<event>
 8    1  0.5542925E-011  0.9118800E+02  0.7816164E-02  0.1184000E+00
        -11   -1    0    0    0    0  0.00000000000E+00  0.00000000000E+00  0.45593999997E+02  0.45594000000E+02  0.51100000000E-03 0. -1.
         11   -1    0    0    0    0 -0.00000000000E+00 -0.00000000000E+00 -0.45593999997E+02  0.45594000000E+02  0.51100000000E-03 0.  1.
         23    2    1    2    0    0  0.00000000000E+00 -0.35527136788E-14  0.71054273576E-14  0.91188000000E+02  0.91188000000E+02 0.  0.
    9900012    2    3    3    0    0 -0.33035940886E+01 -0.25470375526E+02  0.34985271875E+02  0.47787274067E+02  0.20000013781E+02 0.  0.
        -12    1    3    3    0    0  0.33035940886E+01  0.25470375526E+02 -0.34985271875E+02  0.43400725933E+02  0.00000000000E+00 0.  1.
         11    1    4    4    0    0  0.26494570837E+01 -0.68272346745E+00  0.66007368898E+01  0.71453104846E+01  0.51100000000E-03 0. -1.
        -11    1    4    4    0    0  0.10528421185E+01  0.14092420877E+01  0.31059878181E+01  0.35695378378E+01  0.51100000000E-03 0.  1.
         12    1    4    4    0    0 -0.70058932908E+01 -0.26196894146E+02  0.25278547167E+02  0.37072425745E+02  0.00000000000E+00 0. -1.
</event>
<event>
 8    1  0.5542925E-011  0.9118800E+02  0.7816164E-02  0.1184000E+00
        -11   -1    0    0    0    0  0.00000000000E+00  0.00000000000E+00  0.45593999997E+02  0.45594000000E+02  0.51100000000E-03 0. -1.
         11   -1    0    0    0    0 -0.00000000000E+00 -0.00000000000E+00 -0.45593999997E+02  0.45594000000E+02  0.51100000000E-03 0.  1.
         23    2    1    2    0    0 -0.35527136788E-14  0.17763568394E-14  0.71054273576E-14  0.91188000000E+02  0.91188000000E+02 0.  0.
    9900012    2    3    3    0    0 -0.17121704783E+02  0.15616786381E+02  0.36695864620E+02  0.47787271069E+02  0.20000000112E+02 0.  0.
        -12    1    3    3    0    0  0.17121704783E+02 -0.15616786381E+02 -0.36695864620E+02  0.43400728931E+02  0.00000000000E+00 0.  1.
         11    1    4    4    0    0 -0.11522049652E+02  0.23894762412E+01  0.15143370267E+02  0.19177822822E+02  0.51100000000E-03 0. -1.
        -11    1    4    4    0    0 -0.80102557759E+01  0.81704101637E+01  0.80475077693E+01  0.13988644731E+02  0.51100000000E-03 0.  1.
        -12    1    4    4    0    0  0.24106006453E+01  0.50568999758E+01  0.13504986584E+02  0.14620803516E+02  0.00000000000E+00 0.  1.
</event>
<event>
 8    1  0.5542925E-011  0.9118800E+02  0.7816164E-02  0.1184000E+00
        -11   -1    0    0    0    0  0.00000000000E+00  0.00000000000E+00  0.45593999997E+02  0.45594000000E+02  0.51100000000E-03 0. -1.
         11   -1    0    0    0    0 -0.00000000000E+00 -0.00000000000E+00 -0.45593999997E+02  0.45594000000E+02  0.51100000000E-03 0.  1.
         23    2    1    2    0    0  0.17763568394E-14  0.88817841970E-15  0.00000000000E+00  0.91188000000E+02  0.91188000000E+02 0.  0.
    9900012    2    3    3    0    0  0.10237791427E+02  0.54088988419E+01  0.41827675364E+02  0.47787274357E+02  0.20000015103E+02 0.  0.
        -12    1    3    3    0    0 -0.10237791427E+02 -0.54088988419E+01 -0.41827675364E+02  0.43400725643E+02  0.00000000000E+00 0.  1.
         11    1    4    4    0    0  0.16137879644E+00  0.33184543455E+01  0.13272156991E+02  0.13681678765E+02  0.51100000000E-03 0. -1.
        -11    1    4    4    0    0 -0.26255593309E+01  0.16357588661E+00  0.15743270520E+02  0.15961543967E+02  0.51100000000E-03 0.  1.
         12    1    4    4    0    0  0.12701971961E+02  0.19268686098E+01  0.12812247853E+02  0.18144051626E+02  0.00000000000E+00 0. -1.
</event>
<event>
 8    1  0.5542925E-011  0.9118800E+02  0.7816164E-02  0.1184000E+00
        -11   -1    0    0    0    0  0.00000000000E+00  0.00000000000E+00  0.45593999997E+02  0.45594000000E+02  0.51100000000E-03 0. -1.
         11   -1    0    0    0    0 -0.00000000000E+00 -0.00000000000E+00 -0.45593999997E+02  0.45594000000E+02  0.51100000000E-03 0.  1.
         23    2    1    2    0    0  0.00000000000E+00 -0.33306690739E-15  0.00000000000E+00  0.91188000000E+02  0.91188000000E+02 0.  0.
    9900012    2    3    3    0    0 -0.10951583518E+02 -0.19606433040E+00 -0.41995808406E+02  0.47787267905E+02  0.19999985684E+02 0.  0.
         12    1    3    3    0    0  0.10951583518E+02  0.19606433040E+00  0.41995808406E+02  0.43400732095E+02  0.00000000000E+00 0. -1.
         11    1    4    4    0    0 -0.70697045430E+00  0.39723135952E+01 -0.22696759748E+02  0.23052591738E+02  0.51100000000E-03 0. -1.
        -11    1    4    4    0    0 -0.58669748244E+01 -0.43944069030E+01 -0.18972196686E+02  0.20339037661E+02  0.51100000000E-03 0.  1.
         12    1    4    4    0    0 -0.43776382398E+01  0.22602897742E+00 -0.32685197103E+00  0.43956385052E+01  0.00000000000E+00 0. -1.
</event>
<event>
 8    1  0.5542925E-011  0.9118800E+02  0.7816164E-02  0.1184000E+00
        -11   -1    0    0    0    0  0.00000000000E+00  0.00000000000E+00  0.45593999997E+02  0.45594000000E+02  0.51100000000E-03 0. -1.
         11   -1    0    0    0    0 -0.00000000000E+00 -0.00000000000E+00 -0.45593999997E+02  0.45594000000E+02  0.51100000000E-03 0.  1.
         23    2    1    2    0    0  0.88817841970E-15  0.00000000000E+00  0.35527136788E-14  0.91188000000E+02  0.91188000000E+02 0.  0.
    9900012    2    3    3    0    0  0.57086375460E+01 -0.36868192808E+02  0.22175911981E+02  0.47787271254E+02  0.20000000953E+02 0.  0.
        -12    1    3    3    0    0 -0.57086375460E+01  0.36868192808E+02 -0.22175911981E+02  0.43400728746E+02  0.00000000000E+00 0.  1.
         11    1    4    4    0    0  0.42026622174E+01 -0.30087177919E+02  0.14688772149E+02  0.33744046472E+02  0.51100000000E-03 0. -1.
        -11    1    4    4    0    0 -0.17339349035E+01 -0.79525318482E+01  0.66173153492E+01  0.10489907327E+02  0.51100000000E-03 0.  1.
        -12    1    4    4    0    0  0.32399102321E+01  0.11715169591E+01  0.86982448340E+00  0.35533174541E+01  0.00000000000E+00 0.  1.
</event>
<event>
 8    1  0.5542925E-011  0.9118800E+02  0.7816164E-02  0.1184000E+00
        -11   -1    0    0    0    0  0.00000000000E+00  0.00000000000E+00  0.45593999997E+02  0.45594000000E+02  0.51100000000E-03 0.  1.
         11   -1    0    0    0    0 -0.00000000000E+00 -0.00000000000E+00 -0.45593999997E+02  0.45594000000E+02  0.51100000000E-03 0. -1.
         23    2    1    2    0    0 -0.88817841970E-15 -0.71054273576E-14  0.00000000000E+00  0.91188000000E+02  0.91188000000E+02 0.  0.
    9900012    2    3    3    0    0  0.34407994044E+01  0.43065702272E+02 -0.41387925815E+01  0.47787269398E+02  0.19999992493E+02 0.  0.
        -12    1    3    3    0    0 -0.34407994044E+01 -0.43065702272E+02  0.41387925815E+01  0.43400730602E+02  0.00000000000E+00 0.  1.
         11    1    4    4    0    0  0.20783103651E+01  0.24302610524E+02 -0.98520692315E+01  0.26305883765E+02  0.51100000000E-03 0. -1.
        -11    1    4    4    0    0  0.19123218410E+01  0.74970159540E+00 -0.95540624440E+00  0.22653539809E+01  0.51100000000E-03 0.  1.
        -12    1    4    4    0    0 -0.54983280171E+00  0.18013390153E+02  0.66686828943E+01  0.19216031652E+02  0.00000000000E+00 0.  1.
</event>
<event>
 8    1  0.5542925E-011  0.9118800E+02  0.7816164E-02  0.1184000E+00
        -11   -1    0    0    0    0  0.00000000000E+00  0.00000000000E+00  0.45593999997E+02  0.45594000000E+02  0.51100000000E-03 0. -1.
         11   -1    0    0    0    0 -0.00000000000E+00 -0.00000000000E+00 -0.45593999997E+02  0.45594000000E+02  0.51100000000E-03 0.  1.
         23    2    1    2    0    0  0.00000000000E+00 -0.88817841970E-15  0.00000000000E+00  0.91188000000E+02  0.91188000000E+02 0.  0.
    9900012    2    3    3    0    0 -0.17708537223E+02 -0.67982356717E+01 -0.39036074774E+02  0.47787269216E+02  0.19999991664E+02 0.  0.
         12    1    3    3    0    0  0.17708537223E+02  0.67982356717E+01  0.39036074774E+02  0.43400730784E+02  0.00000000000E+00 0. -1.
         11    1    4    4    0    0 -0.36222362499E+01 -0.15279975802E+01  0.13299733066E+00  0.39335811427E+01  0.51100000000E-03 0.  1.
        -11    1    4    4    0    0 -0.55958068173E+01 -0.48359099015E+01 -0.57441587714E+01  0.93645308886E+01  0.51100000000E-03 0. -1.
        -12    1    4    4    0    0 -0.84904941556E+01 -0.43432819001E+00 -0.33424913333E+02  0.34489157185E+02  0.00000000000E+00 0.  1.
</event>
<event>
 8    1  0.5542925E-011  0.9118800E+02  0.7816164E-02  0.1184000E+00
        -11   -1    0    0    0    0  0.00000000000E+00  0.00000000000E+00  0.45593999997E+02  0.45594000000E+02  0.51100000000E-03 0.  1.
         11   -1    0    0    0    0 -0.00000000000E+00 -0.00000000000E+00 -0.45593999997E+02  0.45594000000E+02  0.51100000000E-03 0. -1.
         23    2    1    2    0    0 -0.71054273576E-14  0.44408920985E-15 -0.88817841970E-15  0.91188000000E+02  0.91188000000E+02 0.  0.
    9900012    2    3    3    0    0 -0.43138101677E+02 -0.10676404701E+01 -0.46460933107E+01  0.47787287385E+02  0.20000074503E+02 0.  0.
         12    1    3    3    0    0  0.43138101677E+02  0.10676404701E+01  0.46460933107E+01  0.43400712615E+02  0.00000000000E+00 0. -1.
         11    1    4    4    0    0 -0.13611625849E+02  0.34708046290E+01 -0.42368693333E+01  0.14672215410E+02  0.51100000000E-03 0. -1.
        -11    1    4    4    0    0 -0.24169099430E+02  0.10365237334E+01  0.35133406959E+01  0.24445108136E+02  0.51100000000E-03 0.  1.
         12    1    4    4    0    0 -0.53573763984E+01 -0.55749688325E+01 -0.39225646733E+01  0.86699638392E+01  0.00000000000E+00 0. -1.
</event>
<event>
 8    1  0.5542925E-011  0.9118800E+02  0.7816164E-02  0.1184000E+00
        -11   -1    0    0    0    0  0.00000000000E+00  0.00000000000E+00  0.45593999997E+02  0.45594000000E+02  0.51100000000E-03 0. -1.
         11   -1    0    0    0    0 -0.00000000000E+00 -0.00000000000E+00 -0.45593999997E+02  0.45594000000E+02  0.51100000000E-03 0.  1.
         23    2    1    2    0    0  0.00000000000E+00 -0.17763568394E-14  0.00000000000E+00  0.91188000000E+02  0.91188000000E+02 0.  0.
    9900012    2    3    3    0    0  0.29006117892E+01 -0.12327895802E+02 -0.41511828158E+02  0.47787280643E+02  0.20000043764E+02 0.  0.
         12    1    3    3    0    0 -0.29006117892E+01  0.12327895802E+02  0.41511828158E+02  0.43400719357E+02  0.00000000000E+00 0. -1.
         11    1    4    4    0    0 -0.27630778901E+01  0.21548864683E+01 -0.79383557150E+01  0.86773052751E+01  0.51100000000E-03 0. -1.
        -11    1    4    4    0    0  0.23562929034E+01  0.13229326972E+01 -0.11177343831E+02  0.11499360093E+02  0.51100000000E-03 0.  1.
         12    1    4    4    0    0  0.33073967759E+01 -0.15805714967E+02 -0.22396128612E+02  0.27610615275E+02  0.00000000000E+00 0. -1.
</event>
<event>
 8    1  0.5542925E-011  0.9118800E+02  0.7816164E-02  0.1184000E+00
        -11   -1    0    0    0    0  0.00000000000E+00  0.00000000000E+00  0.45593999997E+02  0.45594000000E+02  0.51100000000E-03 0.  1.
         11   -1    0    0    0    0 -0.00000000000E+00 -0.00000000000E+00 -0.45593999997E+02  0.45594000000E+02  0.51100000000E-03 0. -1.
         23    2    1    2    0    0  0.00000000000E+00  0.00000000000E+00  0.00000000000E+00  0.91188000000E+02  0.91188000000E+02 0.  0.
    9900012    2    3    3    0    0 -0.40458549341E+02  0.64103762741E+01 -0.14340001727E+02  0.47787276639E+02  0.20000025507E+02 0.  0.
         12    1    3    3    0    0  0.40458549341E+02 -0.64103762741E+01  0.14340001727E+02  0.43400723361E+02  0.00000000000E+00 0. -1.
         11    1    4    4    0    0 -0.69701944653E+01  0.41222638147E+01 -0.84011762788E+01  0.11668608870E+02  0.51100000000E-03 0. -1.
        -11    1    4    4    0    0 -0.17939317062E+02  0.12795436039E+01 -0.91968856560E+01  0.20199976102E+02  0.51100000000E-03 0.  1.
        -12    1    4    4    0    0 -0.15549037814E+02  0.10085688555E+01  0.32580602077E+01  0.15918691667E+02  0.00000000000E+00 0.  1.
</event>
<event>
 8    1  0.5542925E-011  0.9118800E+02  0.7816164E-02  0.1184000E+00
        -11   -1    0    0    0    0  0.00000000000E+00  0.00000000000E+00  0.45593999997E+02  0.45594000000E+02  0.51100000000E-03 0. -1.
         11   -1    0    0    0    0 -0.00000000000E+00 -0.00000000000E+00 -0.45593999997E+02  0.45594000000E+02  0.51100000000E-03 0.  1.
         23    2    1    2    0    0 -0.88817841970E-15  0.00000000000E+00  0.00000000000E+00  0.91188000000E+02  0.91188000000E+02 0.  0.
    9900012    2    3    3    0    0  0.51704232617E+01 -0.34694819293E+02 -0.25557000856E+02  0.47787262042E+02  0.19999958956E+02 0.  0.
         12    1    3    3    0    0 -0.51704232617E+01  0.34694819293E+02  0.25557000856E+02  0.43400737958E+02  0.00000000000E+00 0. -1.
         11    1    4    4    0    0  0.44979721374E+01 -0.12315332106E+02 -0.10038993878E+02  0.16513042014E+02  0.51100000000E-03 0. -1.
        -11    1    4    4    0    0  0.70328097271E+01 -0.55485492436E+01 -0.34011772565E+01  0.95820049237E+01  0.51100000000E-03 0.  1.
         12    1    4    4    0    0 -0.63603586028E+01 -0.16830937944E+02 -0.12116829722E+02  0.21692215105E+02  0.00000000000E+00 0. -1.
</event>
<event>
 8    1  0.5542925E-011  0.9118800E+02  0.7816164E-02  0.1184000E+00
        -11   -1    0    0    0    0  0.00000000000E+00  0.00000000000E+00  0.45593999997E+02  0.45594000000E+02  0.51100000000E-03 0. -1.
         11   -1    0    0    0    0 -0.00000000000E+00 -0.00000000000E+00 -0.45593999997E+02  0.45594000000E+02  0.51100000000E-03 0.  1.
         23    2    1    2    0    0  0.00000000000E+00 -0.35527136788E-14  0.00000000000E+00  0.91188000000E+02  0.91188000000E+02 0.  0.
    9900012    2    3    3    0    0  0.90526696527E+01  0.29320611710E+02 -0.30691595571E+02  0.47787272615E+02  0.20000007159E+02 0.  0.
         12    1    3    3    0    0 -0.90526696527E+01 -0.29320611710E+02  0.30691595571E+02  0.43400727385E+02  0.00000000000E+00 0. -1.
         11    1    4    4    0    0  0.13120960525E+01  0.36894925235E+01 -0.40111629514E+01  0.56056560379E+01  0.51100000000E-03 0. -1.
        -11    1    4    4    0    0  0.70687095320E+01  0.30623733017E+00 -0.37318947285E+01  0.79992171040E+01  0.51100000000E-03 0.  1.
        -12    1    4    4    0    0  0.67186406819E+00  0.25324881857E+02 -0.22948537891E+02  0.34182399473E+02  0.00000000000E+00 0.  1.
</event>
<event>
 8    1  0.5542925E-011  0.9118800E+02  0.7816164E-02  0.1184000E+00
        -11   -1    0    0    0    0  0.00000000000E+00  0.00000000000E+00  0.45593999997E+02  0.45594000000E+02  0.51100000000E-03 0. -1.
         11   -1    0    0    0    0 -0.00000000000E+00 -0.00000000000E+00 -0.45593999997E+02  0.45594000000E+02  0.51100000000E-03 0.  1.
         23    2    1    2    0    0  0.00000000000E+00  0.00000000000E+00  0.00000000000E+00  0.91188000000E+02  0.91188000000E+02 0.  0.
    9900012    2    3    3    0    0 -0.10587215782E+02  0.80954267941E+01 -0.41303731486E+02  0.47787270655E+02  0.19999998225E+02 0.  0.
         12    1    3    3    0    0  0.10587215782E+02 -0.80954267941E+01  0.41303731486E+02  0.43400729345E+02  0.00000000000E+00 0. -1.
         11    1    4    4    0    0 -0.17853705989E+01  0.25341042254E+01  0.14525389860E+01  0.34233174214E+01  0.51100000000E-03 0. -1.
        -11    1    4    4    0    0 -0.35980549819E+01  0.11216491311E-01 -0.78081038759E+01  0.85972444342E+01  0.51100000000E-03 0.  1.
         12    1    4    4    0    0 -0.52037902009E+01  0.55501060774E+01 -0.34948166596E+02  0.35766708800E+02  0.00000000000E+00 0. -1.
</event>
<event>
 8    1  0.5542925E-011  0.9118800E+02  0.7816164E-02  0.1184000E+00
        -11   -1    0    0    0    0  0.00000000000E+00  0.00000000000E+00  0.45593999997E+02  0.45594000000E+02  0.51100000000E-03 0.  1.
         11   -1    0    0    0    0 -0.00000000000E+00 -0.00000000000E+00 -0.45593999997E+02  0.45594000000E+02  0.51100000000E-03 0. -1.
         23    2    1    2    0    0  0.00000000000E+00  0.71054273576E-14  0.35527136788E-14  0.91188000000E+02  0.91188000000E+02 0.  0.
    9900012    2    3    3    0    0  0.85495459441E+01  0.32960753590E+02 -0.26909418844E+02  0.47787276094E+02  0.20000023022E+02 0.  0.
         12    1    3    3    0    0 -0.85495459441E+01 -0.32960753590E+02  0.26909418844E+02  0.43400723906E+02  0.00000000000E+00 0. -1.
         11    1    4    4    0    0  0.30105520634E+01  0.13060378715E+02 -0.57508660253E+01  0.14584559513E+02  0.51100000000E-03 0. -1.
        -11    1    4    4    0    0 -0.51322894384E+01  0.54315340392E+01 -0.46966011151E+01  0.88260987528E+01  0.51100000000E-03 0.  1.
         12    1    4    4    0    0  0.10671283319E+02  0.14468840836E+02 -0.16461951704E+02  0.24376617828E+02  0.00000000000E+00 0. -1.
</event>
<event>
 8    1  0.5542925E-011  0.9118800E+02  0.7816164E-02  0.1184000E+00
        -11   -1    0    0    0    0  0.00000000000E+00  0.00000000000E+00  0.45593999997E+02  0.45594000000E+02  0.51100000000E-03 0.  1.
         11   -1    0    0    0    0 -0.00000000000E+00 -0.00000000000E+00 -0.45593999997E+02  0.45594000000E+02  0.51100000000E-03 0. -1.
         23    2    1    2    0    0  0.00000000000E+00  0.00000000000E+00  0.00000000000E+00  0.91188000000E+02  0.91188000000E+02 0.  0.
    9900012    2    3    3    0    0  0.38286243830E+02 -0.11461745251E+02  0.16923803999E+02  0.47787271750E+02  0.20000003218E+02 0.  0.
        -12    1    3    3    0    0 -0.38286243830E+02  0.11461745251E+02 -0.16923803999E+02  0.43400728250E+02  0.00000000000E+00 0.  1.
         11    1    4    4    0    0  0.17030413413E+02 -0.46425366515E+01  0.89040963231E+01  0.19770459256E+02  0.51100000000E-03 0. -1.
        -11    1    4    4    0    0  0.23524600938E+02 -0.61761590558E+01  0.81608280507E+01  0.25654451947E+02  0.51100000000E-03 0.  1.
        -12    1    4    4    0    0 -0.22687705215E+01 -0.64304954350E+00 -0.14112037428E+00  0.23623605472E+01  0.00000000000E+00 0.  1.
</event>
<event>
 8    1  0.5542925E-011  0.9118800E+02  0.7816164E-02  0.1184000E+00
        -11   -1    0    0    0    0  0.00000000000E+00  0.00000000000E+00  0.45593999997E+02  0.45594000000E+02  0.51100000000E-03 0. -1.
         11   -1    0    0    0    0 -0.00000000000E+00 -0.00000000000E+00 -0.45593999997E+02  0.45594000000E+02  0.51100000000E-03 0.  1.
         23    2    1    2    0    0 -0.71054273576E-14  0.88817841970E-15 -0.35527136788E-14  0.91188000000E+02  0.91188000000E+02 0.  0.
    9900012    2    3    3    0    0 -0.37454894463E+02  0.74312742658E+01 -0.20628391483E+02  0.47787268536E+02  0.19999988563E+02 0.  0.
         12    1    3    3    0    0  0.37454894463E+02 -0.74312742658E+01  0.20628391483E+02  0.43400731464E+02  0.00000000000E+00 0. -1.
         11    1    4    4    0    0 -0.47461500073E+01  0.34853048274E+01  0.18187445499E+01  0.61628825748E+01  0.51100000000E-03 0. -1.
        -11    1    4    4    0    0 -0.25143585148E+02  0.33139769262E+01 -0.10455416032E+02  0.27431697757E+02  0.51100000000E-03 0.  1.
        -12    1    4    4    0    0 -0.75651593074E+01  0.63199251219E+00 -0.11991720001E+02  0.14192688204E+02  0.00000000000E+00 0.  1.
</event>
<event>
 8    1  0.5542925E-011  0.9118800E+02  0.7816164E-02  0.1184000E+00
        -11   -1    0    0    0    0  0.00000000000E+00  0.00000000000E+00  0.45593999997E+02  0.45594000000E+02  0.51100000000E-03 0.  1.
         11   -1    0    0    0    0 -0.00000000000E+00 -0.00000000000E+00 -0.45593999997E+02  0.45594000000E+02  0.51100000000E-03 0. -1.
         23    2    1    2    0    0 -0.17763568394E-14  0.00000000000E+00  0.00000000000E+00  0.91188000000E+02  0.91188000000E+02 0.  0.
    9900012    2    3    3    0    0  0.11831942090E+02  0.36349114239E+02 -0.20551654472E+02  0.47787268887E+02  0.19999990164E+02 0.  0.
         12    1    3    3    0    0 -0.11831942090E+02 -0.36349114239E+02  0.20551654472E+02  0.43400731113E+02  0.00000000000E+00 0. -1.
         11    1    4    4    0    0  0.92892208473E+01  0.27361629299E+02 -0.14597653357E+02  0.32373443833E+02  0.51100000000E-03 0. -1.
        -11    1    4    4    0    0 -0.15031897247E+01  0.78057218438E+01 -0.74955967264E+01  0.10925787999E+02  0.51100000000E-03 0.  1.
         12    1    4    4    0    0  0.40459109679E+01  0.11817630964E+01  0.15415956117E+01  0.44880370549E+01  0.00000000000E+00 0. -1.
</event>
<event>
 8    1  0.5542925E-011  0.9118800E+02  0.7816164E-02  0.1184000E+00
        -11   -1    0    0    0    0  0.00000000000E+00  0.00000000000E+00  0.45593999997E+02  0.45594000000E+02  0.51100000000E-03 0. -1.
         11   -1    0    0    0    0 -0.00000000000E+00 -0.00000000000E+00 -0.45593999997E+02  0.45594000000E+02  0.51100000000E-03 0.  1.
         23    2    1    2    0    0  0.17763568394E-14  0.71054273576E-14  0.00000000000E+00  0.91188000000E+02  0.91188000000E+02 0.  0.
    9900012    2    3    3    0    0 -0.83553925599E+01  0.32924429396E+02 -0.27014672613E+02  0.47787272215E+02  0.20000005337E+02 0.  0.
         12    1    3    3    0    0  0.83553925599E+01 -0.32924429396E+02  0.27014672613E+02  0.43400727785E+02  0.00000000000E+00 0. -1.
         11    1    4    4    0    0 -0.42075293421E+01  0.84944794293E+01  0.12890907846E+00  0.94803007205E+01  0.51100000000E-03 0. -1.
        -11    1    4    4    0    0 -0.41499895926E+01  0.89926203832E+01 -0.44436077788E+01  0.10855196236E+02  0.51100000000E-03 0.  1.
        -12    1    4    4    0    0  0.21263748011E-02  0.15437329583E+02 -0.22699973913E+02  0.27451775258E+02  0.00000000000E+00 0.  1.
</event>
<event>
 8    1  0.5542925E-011  0.9118800E+02  0.7816164E-02  0.1184000E+00
        -11   -1    0    0    0    0  0.00000000000E+00  0.00000000000E+00  0.45593999997E+02  0.45594000000E+02  0.51100000000E-03 0. -1.
         11   -1    0    0    0    0 -0.00000000000E+00 -0.00000000000E+00 -0.45593999997E+02  0.45594000000E+02  0.51100000000E-03 0.  1.
         23    2    1    2    0    0  0.00000000000E+00  0.00000000000E+00 -0.71054273576E-14  0.91188000000E+02  0.91188000000E+02 0.  0.
    9900012    2    3    3    0    0 -0.11272391538E+02  0.12143561806E+02  0.40113468925E+02  0.47787270818E+02  0.19999998969E+02 0.  0.
        -12    1    3    3    0    0  0.11272391538E+02 -0.12143561806E+02 -0.40113468925E+02  0.43400729182E+02  0.00000000000E+00 0.  1.
         11    1    4    4    0    0  0.39920436179E+00  0.51974726433E+01  0.10021561936E+02  0.11296229013E+02  0.51100000000E-03 0. -1.
        -11    1    4    4    0    0 -0.38425339540E+01 -0.26587034282E+01  0.19916133343E+02  0.20456933756E+02  0.51100000000E-03 0.  1.
        -12    1    4    4    0    0 -0.78290619458E+01  0.96047925904E+01  0.10175773645E+02  0.16034108049E+02  0.00000000000E+00 0.  1.
</event>
<event>
 8    1  0.5542925E-011  0.9118800E+02  0.7816164E-02  0.1184000E+00
        -11   -1    0    0    0    0  0.00000000000E+00  0.00000000000E+00  0.45593999997E+02  0.45594000000E+02  0.51100000000E-03 0. -1.
         11   -1    0    0    0    0 -0.00000000000E+00 -0.00000000000E+00 -0.45593999997E+02  0.45594000000E+02  0.51100000000E-03 0.  1.
         23    2    1    2    0    0  0.88817841970E-15  0.00000000000E+00  0.00000000000E+00  0.91188000000E+02  0.91188000000E+02 0.  0.
    9900012    2    3    3    0    0 -0.73035029632E+01 -0.21359387662E+02 -0.37068280783E+02  0.47787285294E+02  0.20000064967E+02 0.  0.
         12    1    3    3    0    0  0.73035029632E+01  0.21359387662E+02  0.37068280783E+02  0.43400714706E+02  0.00000000000E+00 0. -1.
         11    1    4    4    0    0 -0.61044192504E+01  0.15111749613E+01 -0.99689182426E+01  0.11786726235E+02  0.51100000000E-03 0. -1.
        -11    1    4    4    0    0 -0.19711988158E+01 -0.20990648232E+01 -0.39591181031E+01  0.48955402479E+01  0.51100000000E-03 0.  1.
        -12    1    4    4    0    0  0.77211510298E+00 -0.20771497800E+02 -0.23140244437E+02  0.31105018811E+02  0.00000000000E+00 0.  1.
</event>
<event>
 8    1  0.5542925E-011  0.9118800E+02  0.7816164E-02  0.1184000E+00
        -11   -1    0    0    0    0  0.00000000000E+00  0.00000000000E+00  0.45593999997E+02  0.45594000000E+02  0.51100000000E-03 0. -1.
         11   -1    0    0    0    0 -0.00000000000E+00 -0.00000000000E+00 -0.45593999997E+02  0.45594000000E+02  0.51100000000E-03 0.  1.
         23    2    1    2    0    0  0.00000000000E+00  0.00000000000E+00  0.00000000000E+00  0.91188000000E+02  0.91188000000E+02 0.  0.
    9900012    2    3    3    0    0 -0.10145383019E+01  0.20717254524E+02  0.38123348601E+02  0.47787266924E+02  0.19999981213E+02 0.  0.
        -12    1    3    3    0    0  0.10145383019E+01 -0.20717254524E+02 -0.38123348601E+02  0.43400733076E+02  0.00000000000E+00 0.  1.
         11    1    4    4    0    0 -0.18725042531E+01  0.56295343857E+01  0.16445009793E+02  0.17482456261E+02  0.51100000000E-03 0. -1.
        -11    1    4    4    0    0  0.41434509040E+01  0.12186343518E+02  0.22426959966E+02  0.25858145473E+02  0.51100000000E-03 0.  1.
        -12    1    4    4    0    0 -0.32854849528E+01  0.29013766207E+01 -0.74862115796E+00  0.44466651896E+01  0.00000000000E+00 0.  1.
</event>
<event>
 8    1  0.7660800E-011  0.9118800E+02  0.7816164E-02  0.1184000E+00
        -11   -1    0    0    0    0  0.00000000000E+00  0.00000000000E+00  0.45593999997E+02  0.45594000000E+02  0.51100000000E-03 0. -1.
         11   -1    0    0    0    0 -0.00000000000E+00 -0.00000000000E+00 -0.45593999997E+02  0.45594000000E+02  0.51100000000E-03 0.  1.
         23    2    1    2    0    0  0.00000000000E+00  0.00000000000E+00 -0.71054273576E-14  0.91188000000E+02  0.91188000000E+02 0.  0.
    9900012    2    3    3    0    0 -0.10345711443E+02  0.37267704540E+01  0.41984538743E+02  0.47787262025E+02  0.19999958879E+02 0.  0.
        -12    1    3    3    0    0  0.10345711443E+02 -0.37267704540E+01 -0.41984538743E+02  0.43400737975E+02  0.00000000000E+00 0.  1.
         11    1    4    4    0    0 -0.60630053082E+01  0.54274174052E+01  0.94068950056E+01  0.12438109461E+02  0.51100000000E-03 0. -1.
        -11    1    4    4    0    0  0.13529362124E+01  0.42348949166E+01  0.55595558387E+01  0.71185274274E+01  0.51100000000E-03 0.  1.
         12    1    4    4    0    0 -0.56356423475E+01 -0.59355418678E+01  0.27018087899E+02  0.28230625137E+02  0.00000000000E+00 0. -1.
</event>
<event>
 8    1  0.5542925E-011  0.9118800E+02  0.7816164E-02  0.1184000E+00
        -11   -1    0    0    0    0  0.00000000000E+00  0.00000000000E+00  0.45593999997E+02  0.45594000000E+02  0.51100000000E-03 0. -1.
         11   -1    0    0    0    0 -0.00000000000E+00 -0.00000000000E+00 -0.45593999997E+02  0.45594000000E+02  0.51100000000E-03 0.  1.
         23    2    1    2    0    0  0.00000000000E+00 -0.35527136788E-14  0.00000000000E+00  0.91188000000E+02  0.91188000000E+02 0.  0.
    9900012    2    3    3    0    0 -0.29514237080E+02 -0.28083789647E+02 -0.14961078212E+02  0.47787270828E+02  0.19999999014E+02 0.  0.
         12    1    3    3    0    0  0.29514237080E+02  0.28083789647E+02  0.14961078212E+02  0.43400729172E+02  0.00000000000E+00 0. -1.
         11    1    4    4    0    0 -0.26205464563E+02 -0.29245049884E+02 -0.13943859228E+02  0.41670499471E+02  0.51100000000E-03 0.  1.
        -11    1    4    4    0    0 -0.35831030512E+00  0.54839328180E+00  0.18467369921E+01  0.19594793302E+01  0.51100000000E-03 0. -1.
        -12    1    4    4    0    0 -0.29504622118E+01  0.61286695484E+00 -0.28639559760E+01  0.41572920273E+01  0.00000000000E+00 0.  1.
</event>
<event>
 8    1  0.5542925E-011  0.9118800E+02  0.7816164E-02  0.1184000E+00
        -11   -1    0    0    0    0  0.00000000000E+00  0.00000000000E+00  0.45593999997E+02  0.45594000000E+02  0.51100000000E-03 0. -1.
         11   -1    0    0    0    0 -0.00000000000E+00 -0.00000000000E+00 -0.45593999997E+02  0.45594000000E+02  0.51100000000E-03 0.  1.
         23    2    1    2    0    0 -0.35527136788E-14  0.00000000000E+00  0.00000000000E+00  0.91188000000E+02  0.91188000000E+02 0.  0.
    9900012    2    3    3    0    0 -0.22539139063E+02 -0.35640156222E+02 -0.10265957029E+02  0.47787269603E+02  0.19999993430E+02 0.  0.
         12    1    3    3    0    0  0.22539139063E+02  0.35640156222E+02  0.10265957029E+02  0.43400730397E+02  0.00000000000E+00 0. -1.
         11    1    4    4    0    0  0.11940671246E+01 -0.16273004779E+01  0.22044945771E+01  0.29889295316E+01  0.51100000000E-03 0. -1.
        -11    1    4    4    0    0 -0.75931391724E+01 -0.33197202295E+01 -0.14636541108E+01  0.84153780967E+01  0.51100000000E-03 0.  1.
        -12    1    4    4    0    0 -0.16140067015E+02 -0.30693135515E+02 -0.11006797495E+02  0.36382961975E+02  0.00000000000E+00 0.  1.
</event>
<event>
 8    1  0.5542925E-011  0.9118800E+02  0.7816164E-02  0.1184000E+00
        -11   -1    0    0    0    0  0.00000000000E+00  0.00000000000E+00  0.45593999997E+02  0.45594000000E+02  0.51100000000E-03 0. -1.
         11   -1    0    0    0    0 -0.00000000000E+00 -0.00000000000E+00 -0.45593999997E+02  0.45594000000E+02  0.51100000000E-03 0.  1.
         23    2    1    2    0    0  0.00000000000E+00  0.44408920985E-15  0.00000000000E+00  0.91188000000E+02  0.91188000000E+02 0.  0.
    9900012    2    3    3    0    0 -0.59138550238E+01  0.36338121833E+01  0.42842091089E+02  0.47787273726E+02  0.20000012227E+02 0.  0.
        -12    1    3    3    0    0  0.59138550238E+01 -0.36338121833E+01 -0.42842091089E+02  0.43400726274E+02  0.00000000000E+00 0.  1.
         11    1    4    4    0    0 -0.37339969521E+01  0.10725007990E+02  0.26933424233E+02  0.29229742913E+02  0.51100000000E-03 0. -1.
        -11    1    4    4    0    0 -0.25384764276E+01 -0.19520584045E+00  0.31518532725E+01  0.40516844899E+01  0.51100000000E-03 0.  1.
         12    1    4    4    0    0  0.35861835588E+00 -0.68959899660E+01  0.12756813584E+02  0.14505846323E+02  0.00000000000E+00 0. -1.
</event>
<event>
 8    1  0.5542925E-011  0.9118800E+02  0.7816164E-02  0.1184000E+00
        -11   -1    0    0    0    0  0.00000000000E+00  0.00000000000E+00  0.45593999997E+02  0.45594000000E+02  0.51100000000E-03 0.  1.
         11   -1    0    0    0    0 -0.00000000000E+00 -0.00000000000E+00 -0.45593999997E+02  0.45594000000E+02  0.51100000000E-03 0. -1.
         23    2    1    2    0    0  0.00000000000E+00  0.00000000000E+00  0.88817841970E-15  0.91188000000E+02  0.91188000000E+02 0.  0.
    9900012    2    3    3    0    0 -0.19732771518E+02  0.38349217235E+02 -0.48557496374E+01  0.47787273751E+02  0.20000012342E+02 0.  0.
        -12    1    3    3    0    0  0.19732771518E+02 -0.38349217235E+02  0.48557496374E+01  0.43400726249E+02  0.00000000000E+00 0.  1.
         11    1    4    4    0    0 -0.38334681101E+01  0.75426158095E+00  0.71836238899E+00  0.39724593222E+01  0.51100000000E-03 0. -1.
        -11    1    4    4    0    0 -0.29795429682E+01  0.15308679776E+01  0.30693339589E+01  0.45433516567E+01  0.51100000000E-03 0.  1.
         12    1    4    4    0    0 -0.12919760440E+02  0.36064087677E+02 -0.86434459852E+01  0.39271462773E+02  0.00000000000E+00 0. -1.
</event>
<event>
 8    1  0.5542925E-011  0.9118800E+02  0.7816164E-02  0.1184000E+00
        -11   -1    0    0    0    0  0.00000000000E+00  0.00000000000E+00  0.45593999997E+02  0.45594000000E+02  0.51100000000E-03 0. -1.
         11   -1    0    0    0    0 -0.00000000000E+00 -0.00000000000E+00 -0.45593999997E+02  0.45594000000E+02  0.51100000000E-03 0.  1.
         23    2    1    2    0    0  0.00000000000E+00  0.00000000000E+00 -0.71054273576E-14  0.91188000000E+02  0.91188000000E+02 0.  0.
    9900012    2    3    3    0    0 -0.23504772422E+02 -0.10246647636E+02 -0.35016478836E+02  0.47787286821E+02  0.20000071933E+02 0.  0.
         12    1    3    3    0    0  0.23504772422E+02  0.10246647636E+02  0.35016478836E+02  0.43400713179E+02  0.00000000000E+00 0. -1.
         11    1    4    4    0    0 -0.18245089471E+01 -0.74512339045E+01 -0.13297147167E+02  0.15351346607E+02  0.51100000000E-03 0.  1.
        -11    1    4    4    0    0 -0.11650441508E+01  0.20725638661E+01 -0.49650751943E+01  0.55049814531E+01  0.51100000000E-03 0. -1.
         12    1    4    4    0    0 -0.20515219324E+02 -0.48679775975E+01 -0.16754256474E+02  0.26930958761E+02  0.00000000000E+00 0. -1.
</event>
<event>
 8    1  0.5542925E-011  0.9118800E+02  0.7816164E-02  0.1184000E+00
        -11   -1    0    0    0    0  0.00000000000E+00  0.00000000000E+00  0.45593999997E+02  0.45594000000E+02  0.51100000000E-03 0. -1.
         11   -1    0    0    0    0 -0.00000000000E+00 -0.00000000000E+00 -0.45593999997E+02  0.45594000000E+02  0.51100000000E-03 0.  1.
         23    2    1    2    0    0  0.00000000000E+00  0.35527136788E-14  0.00000000000E+00  0.91188000000E+02  0.91188000000E+02 0.  0.
    9900012    2    3    3    0    0  0.30818231466E+01 -0.18524644879E+02 -0.39127523515E+02  0.47787271916E+02  0.20000003975E+02 0.  0.
         12    1    3    3    0    0 -0.30818231466E+01  0.18524644879E+02  0.39127523515E+02  0.43400728084E+02  0.00000000000E+00 0. -1.
         11    1    4    4    0    0  0.22027496469E+01  0.17512359495E+01 -0.86770544245E+01  0.91219628975E+01  0.51100000000E-03 0. -1.
        -11    1    4    4    0    0  0.49394741140E+01 -0.24149982402E+01 -0.75814557246E+01  0.93653132456E+01  0.51100000000E-03 0.  1.
         12    1    4    4    0    0 -0.40604006143E+01 -0.17860882589E+02 -0.22869013366E+02  0.29299995773E+02  0.00000000000E+00 0. -1.
</event>
<event>
 8    1  0.5542925E-011  0.9118800E+02  0.7816164E-02  0.1184000E+00
        -11   -1    0    0    0    0  0.00000000000E+00  0.00000000000E+00  0.45593999997E+02  0.45594000000E+02  0.51100000000E-03 0.  1.
         11   -1    0    0    0    0 -0.00000000000E+00 -0.00000000000E+00 -0.45593999997E+02  0.45594000000E+02  0.51100000000E-03 0. -1.
         23    2    1    2    0    0  0.00000000000E+00  0.00000000000E+00  0.00000000000E+00  0.91188000000E+02  0.91188000000E+02 0.  0.
    9900012    2    3    3    0    0 -0.20579408709E+02 -0.38138026966E+02 -0.23669022925E+01  0.47787269705E+02  0.19999993894E+02 0.  0.
         12    1    3    3    0    0  0.20579408709E+02  0.38138026966E+02  0.23669022925E+01  0.43400730295E+02  0.00000000000E+00 0. -1.
         11    1    4    4    0    0 -0.12238643708E+01 -0.15042338082E+00  0.77297601129E+00  0.14553224271E+01  0.51100000000E-03 0. -1.
        -11    1    4    4    0    0  0.12473571194E+01 -0.57308997619E+01  0.43865267998E+01  0.73239831712E+01  0.51100000000E-03 0.  1.
         12    1    4    4    0    0 -0.20602901457E+02 -0.32256703823E+02 -0.75264051036E+01  0.39007964107E+02  0.00000000000E+00 0. -1.
</event>
<event>
 8    1  0.5542925E-011  0.9118800E+02  0.7816164E-02  0.1184000E+00
        -11   -1    0    0    0    0  0.00000000000E+00  0.00000000000E+00  0.45593999997E+02  0.45594000000E+02  0.51100000000E-03 0. -1.
         11   -1    0    0    0    0 -0.00000000000E+00 -0.00000000000E+00 -0.45593999997E+02  0.45594000000E+02  0.51100000000E-03 0.  1.
         23    2    1    2    0    0 -0.35527136788E-14  0.71054273576E-14  0.00000000000E+00  0.91188000000E+02  0.91188000000E+02 0.  0.
    9900012    2    3    3    0    0  0.18011521409E+02 -0.32589454761E+02 -0.22296543469E+02  0.47787270562E+02  0.19999997801E+02 0.  0.
         12    1    3    3    0    0 -0.18011521409E+02  0.32589454761E+02  0.22296543469E+02  0.43400729438E+02  0.00000000000E+00 0. -1.
         11    1    4    4    0    0  0.17932673174E+02 -0.31139956613E+02 -0.21572382227E+02  0.41912353074E+02  0.51100000000E-03 0.  1.
        -11    1    4    4    0    0  0.63786889072E-01 -0.26183382897E+01 -0.25833499126E+01  0.36787852885E+01  0.51100000000E-03 0. -1.
        -12    1    4    4    0    0  0.15061346167E-01  0.11688401417E+01  0.18591886712E+01  0.21961321992E+01  0.00000000000E+00 0.  1.
</event>
<event>
 8    1  0.5542925E-011  0.9118800E+02  0.7816164E-02  0.1184000E+00
        -11   -1    0    0    0    0  0.00000000000E+00  0.00000000000E+00  0.45593999997E+02  0.45594000000E+02  0.51100000000E-03 0. -1.
         11   -1    0    0    0    0 -0.00000000000E+00 -0.00000000000E+00 -0.45593999997E+02  0.45594000000E+02  0.51100000000E-03 0.  1.
         23    2    1    2    0    0  0.00000000000E+00  0.00000000000E+00  0.00000000000E+00  0.91188000000E+02  0.91188000000E+02 0.  0.
    9900012    2    3    3    0    0 -0.12329219720E+02 -0.99704241712E+01  0.40400545944E+02  0.47787272706E+02  0.20000007577E+02 0.  0.
        -12    1    3    3    0    0  0.12329219720E+02  0.99704241712E+01 -0.40400545944E+02  0.43400727294E+02  0.00000000000E+00 0.  1.
         11    1    4    4    0    0  0.52878405384E+00 -0.40931030885E+01  0.48641999282E+01  0.63791493690E+01  0.51100000000E-03 0. -1.
        -11    1    4    4    0    0 -0.83185838604E+01  0.34031296197E+01  0.81303062907E+01  0.12119488821E+02  0.51100000000E-03 0.  1.
         12    1    4    4    0    0 -0.45394199132E+01 -0.92804507023E+01  0.27406039725E+02  0.29288634516E+02  0.00000000000E+00 0. -1.
</event>
<event>
 8    1  0.5542925E-011  0.9118800E+02  0.7816164E-02  0.1184000E+00
        -11   -1    0    0    0    0  0.00000000000E+00  0.00000000000E+00  0.45593999997E+02  0.45594000000E+02  0.51100000000E-03 0.  1.
         11   -1    0    0    0    0 -0.00000000000E+00 -0.00000000000E+00 -0.45593999997E+02  0.45594000000E+02  0.51100000000E-03 0. -1.
         23    2    1    2    0    0 -0.71054273576E-14  0.00000000000E+00  0.00000000000E+00  0.91188000000E+02  0.91188000000E+02 0.  0.
    9900012    2    3    3    0    0 -0.33275773854E+02  0.23437021309E+02 -0.15068249026E+02  0.47787271641E+02  0.20000002720E+02 0.  0.
         12    1    3    3    0    0  0.33275773854E+02 -0.23437021309E+02  0.15068249026E+02  0.43400728359E+02  0.00000000000E+00 0. -1.
         11    1    4    4    0    0 -0.10968521923E+02  0.66959258955E+01 -0.10712926272E+02  0.16730531562E+02  0.51100000000E-03 0. -1.
        -11    1    4    4    0    0 -0.17256324816E+02  0.69694392511E+01 -0.67542420490E+01  0.19798323554E+02  0.51100000000E-03 0.  1.
        -12    1    4    4    0    0 -0.50509271150E+01  0.97716561620E+01  0.23989192951E+01  0.11258416525E+02  0.00000000000E+00 0.  1.
</event>
<event>
 8    1  0.5542925E-011  0.9118800E+02  0.7816164E-02  0.1184000E+00
        -11   -1    0    0    0    0  0.00000000000E+00  0.00000000000E+00  0.45593999997E+02  0.45594000000E+02  0.51100000000E-03 0. -1.
         11   -1    0    0    0    0 -0.00000000000E+00 -0.00000000000E+00 -0.45593999997E+02  0.45594000000E+02  0.51100000000E-03 0.  1.
         23    2    1    2    0    0  0.17763568394E-14  0.00000000000E+00  0.71054273576E-14  0.91188000000E+02  0.91188000000E+02 0.  0.
    9900012    2    3    3    0    0  0.65441030747E+01 -0.32493338182E+02  0.28017531126E+02  0.47787258513E+02  0.19999942864E+02 0.  0.
        -12    1    3    3    0    0 -0.65441030747E+01  0.32493338182E+02 -0.28017531126E+02  0.43400741487E+02  0.00000000000E+00 0.  1.
         11    1    4    4    0    0  0.78646238959E+00 -0.13570069303E+01  0.67263041753E+01  0.69067473545E+01  0.51100000000E-03 0. -1.
        -11    1    4    4    0    0  0.88641456412E+01 -0.19918555904E+02  0.19206518765E+02  0.29055331879E+02  0.51100000000E-03 0.  1.
        -12    1    4    4    0    0 -0.31065049560E+01 -0.11217775347E+02  0.20847081860E+01  0.11825179280E+02  0.00000000000E+00 0.  1.
</event>
<event>
 8    1  0.5542925E-011  0.9118800E+02  0.7816164E-02  0.1184000E+00
        -11   -1    0    0    0    0  0.00000000000E+00  0.00000000000E+00  0.45593999997E+02  0.45594000000E+02  0.51100000000E-03 0. -1.
         11   -1    0    0    0    0 -0.00000000000E+00 -0.00000000000E+00 -0.45593999997E+02  0.45594000000E+02  0.51100000000E-03 0.  1.
         23    2    1    2    0    0  0.00000000000E+00  0.00000000000E+00  0.00000000000E+00  0.91188000000E+02  0.91188000000E+02 0.  0.
    9900012    2    3    3    0    0 -0.19950714200E+02  0.84275039645E+01  0.37610762947E+02  0.47787270633E+02  0.19999998123E+02 0.  0.
        -12    1    3    3    0    0  0.19950714200E+02 -0.84275039645E+01 -0.37610762947E+02  0.43400729367E+02  0.00000000000E+00 0.  1.
         11    1    4    4    0    0 -0.24491527905E+00 -0.68556093673E+00 -0.16839939930E+01  0.18346153061E+01  0.51100000000E-03 0. -1.
        -11    1    4    4    0    0 -0.26493018197E+00  0.34620264394E+01  0.74135215994E+01  0.81863372661E+01  0.51100000000E-03 0.  1.
         12    1    4    4    0    0 -0.19440868739E+02  0.56510384619E+01  0.31881235341E+02  0.37766318061E+02  0.00000000000E+00 0. -1.
</event>
<event>
 8    1  0.5542925E-011  0.9118800E+02  0.7816164E-02  0.1184000E+00
        -11   -1    0    0    0    0  0.00000000000E+00  0.00000000000E+00  0.45593999997E+02  0.45594000000E+02  0.51100000000E-03 0. -1.
         11   -1    0    0    0    0 -0.00000000000E+00 -0.00000000000E+00 -0.45593999997E+02  0.45594000000E+02  0.51100000000E-03 0.  1.
         23    2    1    2    0    0  0.00000000000E+00  0.00000000000E+00  0.00000000000E+00  0.91188000000E+02  0.91188000000E+02 0.  0.
    9900012    2    3    3    0    0  0.12852879561E+02  0.83497046327E+01 -0.40604306124E+02  0.47787265487E+02  0.19999974663E+02 0.  0.
         12    1    3    3    0    0 -0.12852879561E+02 -0.83497046327E+01  0.40604306124E+02  0.43400734513E+02  0.00000000000E+00 0. -1.
         11    1    4    4    0    0 -0.11104179223E+01 -0.22975267477E+01 -0.30179192859E+01  0.39521505786E+01  0.51100000000E-03 0. -1.
        -11    1    4    4    0    0 -0.18367287336E+01  0.21235000713E+01 -0.82829896240E+00  0.29272691072E+01  0.51100000000E-03 0.  1.
        -12    1    4    4    0    0  0.15800026216E+02  0.85237313091E+01 -0.36758087875E+02  0.40907845802E+02  0.00000000000E+00 0.  1.
</event>
<event>
 8    1  0.5542925E-011  0.9118800E+02  0.7816164E-02  0.1184000E+00
        -11   -1    0    0    0    0  0.00000000000E+00  0.00000000000E+00  0.45593999997E+02  0.45594000000E+02  0.51100000000E-03 0. -1.
         11   -1    0    0    0    0 -0.00000000000E+00 -0.00000000000E+00 -0.45593999997E+02  0.45594000000E+02  0.51100000000E-03 0.  1.
         23    2    1    2    0    0  0.00000000000E+00  0.00000000000E+00 -0.71054273576E-14  0.91188000000E+02  0.91188000000E+02 0.  0.
    9900012    2    3    3    0    0  0.13278755969E+02 -0.82990884762E+01 -0.40477436751E+02  0.47787272868E+02  0.20000008316E+02 0.  0.
         12    1    3    3    0    0 -0.13278755969E+02  0.82990884762E+01  0.40477436751E+02  0.43400727132E+02  0.00000000000E+00 0. -1.
         11    1    4    4    0    0  0.12900732513E+02 -0.45764935562E+01 -0.38262926643E+02  0.40637725677E+02  0.51100000000E-03 0.  1.
        -11    1    4    4    0    0  0.29916861668E+01 -0.19026583446E+01 -0.16676027282E+01  0.39180599813E+01  0.51100000000E-03 0. -1.
        -12    1    4    4    0    0 -0.26136627116E+01 -0.18199365754E+01 -0.54690738041E+00  0.32314872104E+01  0.00000000000E+00 0.  1.
</event>
<event>
 8    1  0.5542925E-011  0.9118800E+02  0.7816164E-02  0.1184000E+00
        -11   -1    0    0    0    0  0.00000000000E+00  0.00000000000E+00  0.45593999997E+02  0.45594000000E+02  0.51100000000E-03 0. -1.
         11   -1    0    0    0    0 -0.00000000000E+00 -0.00000000000E+00 -0.45593999997E+02  0.45594000000E+02  0.51100000000E-03 0.  1.
         23    2    1    2    0    0  0.00000000000E+00  0.35527136788E-14  0.00000000000E+00  0.91188000000E+02  0.91188000000E+02 0.  0.
    9900012    2    3    3    0    0  0.33627057013E+02  0.19251036806E+02 -0.19551008009E+02  0.47787270794E+02  0.19999998858E+02 0.  0.
         12    1    3    3    0    0 -0.33627057013E+02 -0.19251036806E+02  0.19551008009E+02  0.43400729206E+02  0.00000000000E+00 0. -1.
         11    1    4    4    0    0  0.30981859850E+01  0.72948400961E+01 -0.15539187798E+01  0.80763922800E+01  0.51100000000E-03 0. -1.
        -11    1    4    4    0    0  0.17042775817E+02  0.12859911919E+02 -0.76157689974E+01  0.22667895354E+02  0.51100000000E-03 0.  1.
         12    1    4    4    0    0  0.13486095211E+02 -0.90371520956E+00 -0.10381320232E+02  0.17042983160E+02  0.00000000000E+00 0. -1.
</event>
<event>
 8    1  0.5542925E-011  0.9118800E+02  0.7816164E-02  0.1184000E+00
        -11   -1    0    0    0    0  0.00000000000E+00  0.00000000000E+00  0.45593999997E+02  0.45594000000E+02  0.51100000000E-03 0. -1.
         11   -1    0    0    0    0 -0.00000000000E+00 -0.00000000000E+00 -0.45593999997E+02  0.45594000000E+02  0.51100000000E-03 0.  1.
         23    2    1    2    0    0 -0.22204460493E-14 -0.35527136788E-14  0.35527136788E-14  0.91188000000E+02  0.91188000000E+02 0.  0.
    9900012    2    3    3    0    0 -0.36383448396E+01 -0.31822495970E+02  0.29286750295E+02  0.47787279432E+02  0.20000038243E+02 0.  0.
        -12    1    3    3    0    0  0.36383448396E+01  0.31822495970E+02 -0.29286750295E+02  0.43400720568E+02  0.00000000000E+00 0.  1.
         11    1    4    4    0    0 -0.88668305314E+01 -0.18940110091E+02  0.13658711972E+02  0.24978167806E+02  0.51100000000E-03 0. -1.
        -11    1    4    4    0    0 -0.19575100041E+01 -0.50182971858E+01  0.26030411632E+01  0.59825559437E+01  0.51100000000E-03 0.  1.
        -12    1    4    4    0    0  0.71859956958E+01 -0.78640886929E+01  0.13024997160E+02  0.16826555683E+02  0.00000000000E+00 0.  1.
</event>
<event>
 8    1  0.5542925E-011  0.9118800E+02  0.7816164E-02  0.1184000E+00
        -11   -1    0    0    0    0  0.00000000000E+00  0.00000000000E+00  0.45593999997E+02  0.45594000000E+02  0.51100000000E-03 0. -1.
         11   -1    0    0    0    0 -0.00000000000E+00 -0.00000000000E+00 -0.45593999997E+02  0.45594000000E+02  0.51100000000E-03 0.  1.
         23    2    1    2    0    0  0.00000000000E+00 -0.44408920985E-15  0.00000000000E+00  0.91188000000E+02  0.91188000000E+02 0.  0.
    9900012    2    3    3    0    0  0.96856346023E+01 -0.34710968270E+01 -0.42163539334E+02  0.47787261757E+02  0.19999957656E+02 0.  0.
         12    1    3    3    0    0 -0.96856346023E+01  0.34710968270E+01  0.42163539334E+02  0.43400738243E+02  0.00000000000E+00 0. -1.
         11    1    4    4    0    0  0.72070537111E+00  0.19323686946E-01 -0.66398097733E+01  0.66788370038E+01  0.51100000000E-03 0. -1.
        -11    1    4    4    0    0  0.12633016991E+02  0.24543154362E+01 -0.28145184869E+02  0.30947830524E+02  0.51100000000E-03 0.  1.
         12    1    4    4    0    0 -0.36680877600E+01 -0.59447359501E+01 -0.73785446913E+01  0.10160594229E+02  0.00000000000E+00 0. -1.
</event>
<event>
 8    1  0.5542925E-011  0.9118800E+02  0.7816164E-02  0.1184000E+00
        -11   -1    0    0    0    0  0.00000000000E+00  0.00000000000E+00  0.45593999997E+02  0.45594000000E+02  0.51100000000E-03 0. -1.
         11   -1    0    0    0    0 -0.00000000000E+00 -0.00000000000E+00 -0.45593999997E+02  0.45594000000E+02  0.51100000000E-03 0.  1.
         23    2    1    2    0    0  0.00000000000E+00  0.00000000000E+00 -0.71054273576E-14  0.91188000000E+02  0.91188000000E+02 0.  0.
    9900012    2    3    3    0    0  0.82330378753E+01 -0.12857537681E+02 -0.40626644240E+02  0.47787269475E+02  0.19999992843E+02 0.  0.
         12    1    3    3    0    0 -0.82330378753E+01  0.12857537681E+02  0.40626644240E+02  0.43400730525E+02  0.00000000000E+00 0. -1.
         11    1    4    4    0    0  0.72428235269E+01 -0.51814269904E+00 -0.19619676626E+02  0.20920293393E+02  0.51100000000E-03 0. -1.
        -11    1    4    4    0    0  0.30778975081E+01 -0.84776447497E+01 -0.20563827967E+02  0.22454730782E+02  0.51100000000E-03 0.  1.
         12    1    4    4    0    0 -0.20876831597E+01 -0.38617502325E+01 -0.44313964722E+00  0.44122452992E+01  0.00000000000E+00 0. -1.
</event>
<event>
 8    1  0.5542925E-011  0.9118800E+02  0.7816164E-02  0.1184000E+00
        -11   -1    0    0    0    0  0.00000000000E+00  0.00000000000E+00  0.45593999997E+02  0.45594000000E+02  0.51100000000E-03 0. -1.
         11   -1    0    0    0    0 -0.00000000000E+00 -0.00000000000E+00 -0.45593999997E+02  0.45594000000E+02  0.51100000000E-03 0.  1.
         23    2    1    2    0    0 -0.71054273576E-14  0.35527136788E-14  0.00000000000E+00  0.91188000000E+02  0.91188000000E+02 0.  0.
    9900012    2    3    3    0    0 -0.32204869138E+02  0.20482189653E+02  0.20662752929E+02  0.47787273649E+02  0.20000011874E+02 0.  0.
        -12    1    3    3    0    0  0.32204869138E+02 -0.20482189653E+02 -0.20662752929E+02  0.43400726351E+02  0.00000000000E+00 0.  1.
         11    1    4    4    0    0 -0.15920155803E+02  0.79337434081E+01  0.82595685606E+01  0.19611632219E+02  0.51100000000E-03 0. -1.
        -11    1    4    4    0    0 -0.99292660442E+01 -0.92987978632E+00  0.24930196033E+01  0.10279598611E+02  0.51100000000E-03 0.  1.
        -12    1    4    4    0    0 -0.63554472913E+01  0.13478326032E+02  0.99101647653E+01  0.17896042819E+02  0.00000000000E+00 0.  1.
</event>
<event>
 8    1  0.5542925E-011  0.9118800E+02  0.7816164E-02  0.1184000E+00
        -11   -1    0    0    0    0  0.00000000000E+00  0.00000000000E+00  0.45593999997E+02  0.45594000000E+02  0.51100000000E-03 0.  1.
         11   -1    0    0    0    0 -0.00000000000E+00 -0.00000000000E+00 -0.45593999997E+02  0.45594000000E+02  0.51100000000E-03 0. -1.
         23    2    1    2    0    0  0.00000000000E+00  0.00000000000E+00  0.00000000000E+00  0.91188000000E+02  0.91188000000E+02 0.  0.
    9900012    2    3    3    0    0 -0.40146329958E+02  0.16133927227E+02 -0.34045950047E+01  0.47787277840E+02  0.20000030986E+02 0.  0.
        -12    1    3    3    0    0  0.40146329958E+02 -0.16133927227E+02  0.34045950047E+01  0.43400722160E+02  0.00000000000E+00 0.  1.
         11    1    4    4    0    0 -0.33956560894E+02  0.83059200526E+01 -0.58793114130E+01  0.35448591490E+02  0.51100000000E-03 0. -1.
        -11    1    4    4    0    0 -0.76711159262E+01  0.60281169617E+01  0.19474747845E+01  0.99487120752E+01  0.51100000000E-03 0.  1.
        -12    1    4    4    0    0  0.14813468629E+01  0.17998902125E+01  0.52724162389E+00  0.23899742750E+01  0.00000000000E+00 0.  1.
</event>
<event>
 8    1  0.6010305E-011  0.9118800E+02  0.7816164E-02  0.1184000E+00
        -11   -1    0    0    0    0  0.00000000000E+00  0.00000000000E+00  0.45593999997E+02  0.45594000000E+02  0.51100000000E-03 0. -1.
         11   -1    0    0    0    0 -0.00000000000E+00 -0.00000000000E+00 -0.45593999997E+02  0.45594000000E+02  0.51100000000E-03 0.  1.
         23    2    1    2    0    0  0.00000000000E+00  0.00000000000E+00  0.00000000000E+00  0.91188000000E+02  0.91188000000E+02 0.  0.
    9900012    2    3    3    0    0 -0.19960334407E+02 -0.19721685746E+02  0.33109870128E+02  0.47787270304E+02  0.19999996622E+02 0.  0.
        -12    1    3    3    0    0  0.19960334407E+02  0.19721685746E+02 -0.33109870128E+02  0.43400729696E+02  0.00000000000E+00 0.  1.
         11    1    4    4    0    0 -0.87829938081E+01 -0.12079975390E+02  0.98708012880E+01  0.17902499937E+02  0.51100000000E-03 0. -1.
        -11    1    4    4    0    0 -0.52508691328E+01 -0.30077403846E-01  0.61122474230E+00  0.52864096745E+01  0.51100000000E-03 0.  1.
         12    1    4    4    0    0 -0.59264714662E+01 -0.76116329515E+01  0.22627844098E+02  0.24598360692E+02  0.00000000000E+00 0. -1.
</event>
<event>
 8    1  0.5542925E-011  0.9118800E+02  0.7816164E-02  0.1184000E+00
        -11   -1    0    0    0    0  0.00000000000E+00  0.00000000000E+00  0.45593999997E+02  0.45594000000E+02  0.51100000000E-03 0. -1.
         11   -1    0    0    0    0 -0.00000000000E+00 -0.00000000000E+00 -0.45593999997E+02  0.45594000000E+02  0.51100000000E-03 0.  1.
         23    2    1    2    0    0  0.17763568394E-14  0.00000000000E+00 -0.11102230246E-15  0.91188000000E+02  0.91188000000E+02 0.  0.
    9900012    2    3    3    0    0  0.10410991289E+02 -0.42133043402E+02 -0.20355801897E+00  0.47787268188E+02  0.19999986978E+02 0.  0.
        -12    1    3    3    0    0 -0.10410991289E+02  0.42133043402E+02  0.20355801897E+00  0.43400731812E+02  0.00000000000E+00 0.  1.
         11    1    4    4    0    0  0.51232261455E+01 -0.14531308431E+02 -0.24696670205E+01  0.15604666812E+02  0.51100000000E-03 0. -1.
        -11    1    4    4    0    0  0.45834705570E+01 -0.14429435718E+00 -0.30612421054E+00  0.45959477262E+01  0.51100000000E-03 0.  1.
         12    1    4    4    0    0  0.70429458637E+00 -0.27457440614E+02  0.25722332121E+01  0.27586653651E+02  0.00000000000E+00 0. -1.
</event>
<event>
 8    1  0.5542925E-011  0.9118800E+02  0.7816164E-02  0.1184000E+00
        -11   -1    0    0    0    0  0.00000000000E+00  0.00000000000E+00  0.45593999997E+02  0.45594000000E+02  0.51100000000E-03 0. -1.
         11   -1    0    0    0    0 -0.00000000000E+00 -0.00000000000E+00 -0.45593999997E+02  0.45594000000E+02  0.51100000000E-03 0.  1.
         23    2    1    2    0    0  0.71054273576E-14  0.00000000000E+00  0.00000000000E+00  0.91188000000E+02  0.91188000000E+02 0.  0.
    9900012    2    3    3    0    0 -0.34374286363E+02  0.15556794422E+02  0.21448021428E+02  0.47787273752E+02  0.20000012345E+02 0.  0.
        -12    1    3    3    0    0  0.34374286363E+02 -0.15556794422E+02 -0.21448021428E+02  0.43400726248E+02  0.00000000000E+00 0.  1.
         11    1    4    4    0    0 -0.18062844781E+02  0.11701599259E+02  0.12586036720E+02  0.24931949531E+02  0.51100000000E-03 0. -1.
        -11    1    4    4    0    0 -0.53926087722E+01  0.53463671108E+01 -0.14866467858E+01  0.77378284797E+01  0.51100000000E-03 0.  1.
        -12    1    4    4    0    0 -0.10918832810E+02 -0.14911719486E+01  0.10348631494E+02  0.15117495742E+02  0.00000000000E+00 0.  1.
</event>
<event>
 8    1  0.5542925E-011  0.9118800E+02  0.7816164E-02  0.1184000E+00
        -11   -1    0    0    0    0  0.00000000000E+00  0.00000000000E+00  0.45593999997E+02  0.45594000000E+02  0.51100000000E-03 0. -1.
         11   -1    0    0    0    0 -0.00000000000E+00 -0.00000000000E+00 -0.45593999997E+02  0.45594000000E+02  0.51100000000E-03 0.  1.
         23    2    1    2    0    0 -0.35527136788E-14  0.00000000000E+00  0.00000000000E+00  0.91188000000E+02  0.91188000000E+02 0.  0.
    9900012    2    3    3    0    0  0.26120967292E+02 -0.34171928858E+02  0.57963662615E+01  0.47787268255E+02  0.19999987281E+02 0.  0.
        -12    1    3    3    0    0 -0.26120967292E+02  0.34171928858E+02 -0.57963662615E+01  0.43400731745E+02  0.00000000000E+00 0.  1.
         11    1    4    4    0    0  0.40230534326E+01  0.63246735741E+00  0.69073934209E+00  0.41306288843E+01  0.51100000000E-03 0. -1.
        -11    1    4    4    0    0  0.10974750739E+02 -0.10692994358E+02 -0.35490960699E+01  0.15728361812E+02  0.51100000000E-03 0.  1.
        -12    1    4    4    0    0  0.11123163121E+02 -0.24111401857E+02  0.86547229893E+01  0.27928277558E+02  0.00000000000E+00 0.  1.
</event>
<event>
 8    1  0.5542925E-011  0.9118800E+02  0.7816164E-02  0.1184000E+00
        -11   -1    0    0    0    0  0.00000000000E+00  0.00000000000E+00  0.45593999997E+02  0.45594000000E+02  0.51100000000E-03 0. -1.
         11   -1    0    0    0    0 -0.00000000000E+00 -0.00000000000E+00 -0.45593999997E+02  0.45594000000E+02  0.51100000000E-03 0.  1.
         23    2    1    2    0    0  0.00000000000E+00  0.44408920985E-15  0.00000000000E+00  0.91188000000E+02  0.91188000000E+02 0.  0.
    9900012    2    3    3    0    0 -0.33430428852E+02 -0.32177330834E+01 -0.27489565768E+02  0.47787267223E+02  0.19999982578E+02 0.  0.
         12    1    3    3    0    0  0.33430428852E+02  0.32177330834E+01  0.27489565768E+02  0.43400732777E+02  0.00000000000E+00 0. -1.
         11    1    4    4    0    0 -0.31573568690E+01  0.26517624282E+01  0.35211754849E+00  0.41382041278E+01  0.51100000000E-03 0. -1.
        -11    1    4    4    0    0 -0.23952412349E+01  0.33294222321E+01 -0.21133605820E+01  0.46139490877E+01  0.51100000000E-03 0.  1.
        -12    1    4    4    0    0 -0.27877830748E+02 -0.91989177437E+01 -0.25728322734E+02  0.39035114008E+02  0.00000000000E+00 0.  1.
</event>
<event>
 8    1  0.5542925E-011  0.9118800E+02  0.7816164E-02  0.1184000E+00
        -11   -1    0    0    0    0  0.00000000000E+00  0.00000000000E+00  0.45593999997E+02  0.45594000000E+02  0.51100000000E-03 0. -1.
         11   -1    0    0    0    0 -0.00000000000E+00 -0.00000000000E+00 -0.45593999997E+02  0.45594000000E+02  0.51100000000E-03 0.  1.
         23    2    1    2    0    0  0.00000000000E+00  0.35527136788E-14  0.00000000000E+00  0.91188000000E+02  0.91188000000E+02 0.  0.
    9900012    2    3    3    0    0  0.13395187106E+02  0.31946008903E+02 -0.26146598216E+02  0.47787272809E+02  0.20000008046E+02 0.  0.
         12    1    3    3    0    0 -0.13395187106E+02 -0.31946008903E+02  0.26146598216E+02  0.43400727191E+02  0.00000000000E+00 0. -1.
         11    1    4    4    0    0  0.23564261686E+01  0.20044065136E+02 -0.14770280687E+02  0.25009567835E+02  0.51100000000E-03 0. -1.
        -11    1    4    4    0    0  0.43332975045E+01  0.12153441615E+02 -0.86543980247E+01  0.15536480161E+02  0.51100000000E-03 0.  1.
         12    1    4    4    0    0  0.67054634329E+01 -0.25149784748E+00 -0.27219195044E+01  0.72412248139E+01  0.00000000000E+00 0. -1.
</event>
<event>
 8    1  0.5542925E-011  0.9118800E+02  0.7816164E-02  0.1184000E+00
        -11   -1    0    0    0    0  0.00000000000E+00  0.00000000000E+00  0.45593999997E+02  0.45594000000E+02  0.51100000000E-03 0. -1.
         11   -1    0    0    0    0 -0.00000000000E+00 -0.00000000000E+00 -0.45593999997E+02  0.45594000000E+02  0.51100000000E-03 0.  1.
         23    2    1    2    0    0  0.00000000000E+00  0.71054273576E-14 -0.88817841970E-15  0.91188000000E+02  0.91188000000E+02 0.  0.
    9900012    2    3    3    0    0 -0.27225354703E+02 -0.33725688173E+02 -0.22319085108E+01  0.47787269625E+02  0.19999993529E+02 0.  0.
        -12    1    3    3    0    0  0.27225354703E+02  0.33725688173E+02  0.22319085108E+01  0.43400730375E+02  0.00000000000E+00 0.  1.
         11    1    4    4    0    0 -0.65230355803E+01 -0.60329940014E+01 -0.48490535040E+01  0.10122269012E+02  0.51100000000E-03 0. -1.
        -11    1    4    4    0    0  0.20398807862E+01 -0.51755940848E+01  0.12366259302E+00  0.55644568873E+01  0.51100000000E-03 0.  1.
        -12    1    4    4    0    0 -0.22742199909E+02 -0.22517100087E+02  0.24934824002E+01  0.32100543726E+02  0.00000000000E+00 0.  1.
</event>
<event>
 8    1  0.5542925E-011  0.9118800E+02  0.7816164E-02  0.1184000E+00
        -11   -1    0    0    0    0  0.00000000000E+00  0.00000000000E+00  0.45593999997E+02  0.45594000000E+02  0.51100000000E-03 0. -1.
         11   -1    0    0    0    0 -0.00000000000E+00 -0.00000000000E+00 -0.45593999997E+02  0.45594000000E+02  0.51100000000E-03 0.  1.
         23    2    1    2    0    0  0.17763568394E-14  0.00000000000E+00  0.00000000000E+00  0.91188000000E+02  0.91188000000E+02 0.  0.
    9900012    2    3    3    0    0 -0.15703939912E+02  0.31246856127E+02 -0.25702985053E+02  0.47787272042E+02  0.20000004550E+02 0.  0.
         12    1    3    3    0    0  0.15703939912E+02 -0.31246856127E+02  0.25702985053E+02  0.43400727958E+02  0.00000000000E+00 0. -1.
         11    1    4    4    0    0 -0.82428559275E+01  0.11861900353E+02 -0.57047555992E+01  0.15530408576E+02  0.51100000000E-03 0. -1.
        -11    1    4    4    0    0 -0.97113762306E+01  0.88394526661E+01 -0.16133395393E+02  0.20802240238E+02  0.51100000000E-03 0.  1.
         12    1    4    4    0    0  0.22502922465E+01  0.10545503108E+02 -0.38648340610E+01  0.11454623229E+02  0.00000000000E+00 0. -1.
</event>
<event>
 8    1  0.5542925E-011  0.9118800E+02  0.7816164E-02  0.1184000E+00
        -11   -1    0    0    0    0  0.00000000000E+00  0.00000000000E+00  0.45593999997E+02  0.45594000000E+02  0.51100000000E-03 0.  1.
         11   -1    0    0    0    0 -0.00000000000E+00 -0.00000000000E+00 -0.45593999997E+02  0.45594000000E+02  0.51100000000E-03 0. -1.
         23    2    1    2    0    0 -0.71054273576E-14  0.00000000000E+00  0.44408920985E-15  0.91188000000E+02  0.91188000000E+02 0.  0.
    9900012    2    3    3    0    0  0.42863499672E+02 -0.60825914560E+01 -0.30570303030E+01  0.47787274692E+02  0.20000016632E+02 0.  0.
         12    1    3    3    0    0 -0.42863499672E+02  0.60825914560E+01  0.30570303030E+01  0.43400725308E+02  0.00000000000E+00 0. -1.
         11    1    4    4    0    0  0.30286922441E+02  0.22330476372E+01 -0.78360566189E+01  0.31363800093E+02  0.51100000000E-03 0.  1.
        -11    1    4    4    0    0  0.15186513562E+01 -0.61928989494E-02  0.16489318012E+01  0.22417218025E+01  0.51100000000E-03 0. -1.
        -12    1    4    4    0    0  0.11057925875E+02 -0.83094461943E+01  0.31300945147E+01  0.14181752797E+02  0.00000000000E+00 0.  1.
</event>
<event>
 8    1  0.5542925E-011  0.9118800E+02  0.7816164E-02  0.1184000E+00
        -11   -1    0    0    0    0  0.00000000000E+00  0.00000000000E+00  0.45593999997E+02  0.45594000000E+02  0.51100000000E-03 0. -1.
         11   -1    0    0    0    0 -0.00000000000E+00 -0.00000000000E+00 -0.45593999997E+02  0.45594000000E+02  0.51100000000E-03 0.  1.
         23    2    1    2    0    0  0.00000000000E+00  0.00000000000E+00  0.00000000000E+00  0.91188000000E+02  0.91188000000E+02 0.  0.
    9900012    2    3    3    0    0 -0.28339111242E+02  0.30293871803E+02 -0.12759291272E+02  0.47787269493E+02  0.19999992926E+02 0.  0.
         12    1    3    3    0    0  0.28339111242E+02 -0.30293871803E+02  0.12759291272E+02  0.43400730507E+02  0.00000000000E+00 0. -1.
         11    1    4    4    0    0 -0.17833159533E+01  0.81337381667E+01 -0.98514410395E+01  0.12899178391E+02  0.51100000000E-03 0. -1.
        -11    1    4    4    0    0 -0.45225625708E+01  0.26719488348E+01 -0.13904324876E+01  0.54338002858E+01  0.51100000000E-03 0.  1.
         12    1    4    4    0    0 -0.22033232718E+02  0.19488184801E+02 -0.15174177452E+01  0.29454290816E+02  0.00000000000E+00 0. -1.
</event>
<event>
 8    1  0.5542925E-011  0.9118800E+02  0.7816164E-02  0.1184000E+00
        -11   -1    0    0    0    0  0.00000000000E+00  0.00000000000E+00  0.45593999997E+02  0.45594000000E+02  0.51100000000E-03 0. -1.
         11   -1    0    0    0    0 -0.00000000000E+00 -0.00000000000E+00 -0.45593999997E+02  0.45594000000E+02  0.51100000000E-03 0.  1.
         23    2    1    2    0    0  0.71054273576E-14  0.00000000000E+00 -0.35527136788E-14  0.91188000000E+02  0.91188000000E+02 0.  0.
    9900012    2    3    3    0    0 -0.36999470772E+02  0.44267637318E+01 -0.22250072361E+02  0.47787276566E+02  0.20000025174E+02 0.  0.
         12    1    3    3    0    0  0.36999470772E+02 -0.44267637318E+01  0.22250072361E+02  0.43400723434E+02  0.00000000000E+00 0. -1.
         11    1    4    4    0    0 -0.11448855471E+02  0.34746661135E+01 -0.97599944231E+00  0.12004256385E+02  0.51100000000E-03 0. -1.
        -11    1    4    4    0    0  0.72802055930E+00  0.13715476808E+01 -0.41079904277E+01  0.43916674043E+01  0.51100000000E-03 0.  1.
        -12    1    4    4    0    0 -0.26278635861E+02 -0.41945006255E+00 -0.17166082491E+02  0.31391352776E+02  0.00000000000E+00 0.  1.
</event>
<event>
 8    1  0.5542925E-011  0.9118800E+02  0.7816164E-02  0.1184000E+00
        -11   -1    0    0    0    0  0.00000000000E+00  0.00000000000E+00  0.45593999997E+02  0.45594000000E+02  0.51100000000E-03 0. -1.
         11   -1    0    0    0    0 -0.00000000000E+00 -0.00000000000E+00 -0.45593999997E+02  0.45594000000E+02  0.51100000000E-03 0.  1.
         23    2    1    2    0    0 -0.26645352591E-14 -0.35527136788E-14  0.00000000000E+00  0.91188000000E+02  0.91188000000E+02 0.  0.
    9900012    2    3    3    0    0  0.77350742835E+01  0.21531426977E+02 -0.36880710271E+02  0.47787302864E+02  0.20000145076E+02 0.  0.
         12    1    3    3    0    0 -0.77350742835E+01 -0.21531426977E+02  0.36880710271E+02  0.43400697136E+02  0.00000000000E+00 0. -1.
         11    1    4    4    0    0  0.28913913470E+00  0.18201950700E+00 -0.25467126779E+01  0.25695288021E+01  0.51100000000E-03 0. -1.
        -11    1    4    4    0    0  0.13651288672E+02  0.15698645740E+02 -0.26899891243E+02  0.34006018726E+02  0.51100000000E-03 0.  1.
         12    1    4    4    0    0 -0.62053535230E+01  0.56507617299E+01 -0.74341063502E+01  0.11211755335E+02  0.00000000000E+00 0. -1.
</event>
<event>
 8    1  0.5542925E-011  0.9118800E+02  0.7816164E-02  0.1184000E+00
        -11   -1    0    0    0    0  0.00000000000E+00  0.00000000000E+00  0.45593999997E+02  0.45594000000E+02  0.51100000000E-03 0. -1.
         11   -1    0    0    0    0 -0.00000000000E+00 -0.00000000000E+00 -0.45593999997E+02  0.45594000000E+02  0.51100000000E-03 0.  1.
         23    2    1    2    0    0 -0.17763568394E-14  0.00000000000E+00  0.00000000000E+00  0.91188000000E+02  0.91188000000E+02 0.  0.
    9900012    2    3    3    0    0 -0.12208907711E+02  0.43049392064E+01 -0.41425033132E+02  0.47787270754E+02  0.19999998677E+02 0.  0.
         12    1    3    3    0    0  0.12208907711E+02 -0.43049392064E+01  0.41425033132E+02  0.43400729246E+02  0.00000000000E+00 0. -1.
         11    1    4    4    0    0  0.68341496720E+00 -0.22067479896E+01  0.75091451560E+00  0.24291285634E+01  0.51100000000E-03 0. -1.
        -11    1    4    4    0    0  0.12076771326E+01  0.53574708694E+00 -0.44639548912E+01  0.46553627710E+01  0.51100000000E-03 0.  1.
        -12    1    4    4    0    0 -0.14099999811E+02  0.59759401090E+01 -0.37711992756E+02  0.40702779420E+02  0.00000000000E+00 0.  1.
</event>
<event>
 8    1  0.5542925E-011  0.9118800E+02  0.7816164E-02  0.1184000E+00
        -11   -1    0    0    0    0  0.00000000000E+00  0.00000000000E+00  0.45593999997E+02  0.45594000000E+02  0.51100000000E-03 0.  1.
         11   -1    0    0    0    0 -0.00000000000E+00 -0.00000000000E+00 -0.45593999997E+02  0.45594000000E+02  0.51100000000E-03 0. -1.
         23    2    1    2    0    0  0.00000000000E+00  0.00000000000E+00 -0.44408920985E-15  0.91188000000E+02  0.91188000000E+02 0.  0.
    9900012    2    3    3    0    0  0.42041533146E+02  0.10531099412E+02 -0.22865574849E+01  0.47787275245E+02  0.20000019152E+02 0.  0.
         12    1    3    3    0    0 -0.42041533146E+02 -0.10531099412E+02  0.22865574849E+01  0.43400724755E+02  0.00000000000E+00 0. -1.
         11    1    4    4    0    0  0.83936483636E+00  0.17185362081E+01  0.35556779920E+00  0.19453351249E+01  0.51100000000E-03 0.  1.
        -11    1    4    4    0    0  0.30616962515E+02  0.19813100177E+01 -0.86607564410E+01  0.31879973109E+02  0.51100000000E-03 0. -1.
         12    1    4    4    0    0  0.10585205795E+02  0.68312531866E+01  0.60186311569E+01  0.13961967012E+02  0.00000000000E+00 0. -1.
</event>
<event>
 8    1  0.5542925E-011  0.9118800E+02  0.7816164E-02  0.1184000E+00
        -11   -1    0    0    0    0  0.00000000000E+00  0.00000000000E+00  0.45593999997E+02  0.45594000000E+02  0.51100000000E-03 0. -1.
         11   -1    0    0    0    0 -0.00000000000E+00 -0.00000000000E+00 -0.45593999997E+02  0.45594000000E+02  0.51100000000E-03 0.  1.
         23    2    1    2    0    0  0.35527136788E-14  0.00000000000E+00  0.00000000000E+00  0.91188000000E+02  0.91188000000E+02 0.  0.
    9900012    2    3    3    0    0  0.19592990088E+02  0.18370735147E+02 -0.34091856189E+02  0.47787264651E+02  0.19999970848E+02 0.  0.
         12    1    3    3    0    0 -0.19592990088E+02 -0.18370735147E+02  0.34091856189E+02  0.43400735349E+02  0.00000000000E+00 0. -1.
         11    1    4    4    0    0  0.15806165765E+01  0.23645104924E+01  0.43045121907E+00  0.28765512587E+01  0.51100000000E-03 0. -1.
        -11    1    4    4    0    0  0.89261527818E+01  0.75232048963E+00 -0.20206970931E+02  0.22103480814E+02  0.51100000000E-03 0.  1.
        -12    1    4    4    0    0  0.90862207297E+01  0.15253904165E+02 -0.14315336477E+02  0.22807232578E+02  0.00000000000E+00 0.  1.
</event>
<event>
 8    1  0.5542925E-011  0.9118800E+02  0.7816164E-02  0.1184000E+00
        -11   -1    0    0    0    0  0.00000000000E+00  0.00000000000E+00  0.45593999997E+02  0.45594000000E+02  0.51100000000E-03 0. -1.
         11   -1    0    0    0    0 -0.00000000000E+00 -0.00000000000E+00 -0.45593999997E+02  0.45594000000E+02  0.51100000000E-03 0.  1.
         23    2    1    2    0    0  0.00000000000E+00 -0.35527136788E-14 -0.35527136788E-14  0.91188000000E+02  0.91188000000E+02 0.  0.
    9900012    2    3    3    0    0  0.17609989350E+02  0.24118515852E+02 -0.31492995700E+02  0.47787270629E+02  0.19999998106E+02 0.  0.
         12    1    3    3    0    0 -0.17609989350E+02 -0.24118515852E+02  0.31492995700E+02  0.43400729371E+02  0.00000000000E+00 0. -1.
         11    1    4    4    0    0  0.81114582147E+01  0.87379971951E+01 -0.83461733348E+01  0.14553589212E+02  0.51100000000E-03 0.  1.
        -11    1    4    4    0    0  0.50453363579E+01 -0.11888143329E+01 -0.11026474195E+01  0.52994839442E+01  0.51100000000E-03 0. -1.
        -12    1    4    4    0    0  0.44531947775E+01  0.16569332989E+02 -0.22044174945E+02  0.27934197473E+02  0.00000000000E+00 0.  1.
</event>
<event>
 8    1  0.5542925E-011  0.9118800E+02  0.7816164E-02  0.1184000E+00
        -11   -1    0    0    0    0  0.00000000000E+00  0.00000000000E+00  0.45593999997E+02  0.45594000000E+02  0.51100000000E-03 0. -1.
         11   -1    0    0    0    0 -0.00000000000E+00 -0.00000000000E+00 -0.45593999997E+02  0.45594000000E+02  0.51100000000E-03 0.  1.
         23    2    1    2    0    0  0.17763568394E-14  0.00000000000E+00  0.00000000000E+00  0.91188000000E+02  0.91188000000E+02 0.  0.
    9900012    2    3    3    0    0  0.82610711824E+01 -0.29375219671E+02  0.30862185105E+02  0.47787270775E+02  0.19999998771E+02 0.  0.
        -12    1    3    3    0    0 -0.82610711824E+01  0.29375219671E+02 -0.30862185105E+02  0.43400729225E+02  0.00000000000E+00 0.  1.
         11    1    4    4    0    0  0.61469709786E+01 -0.16983959356E+02  0.11327372845E+02  0.21320166590E+02  0.51100000000E-03 0. -1.
        -11    1    4    4    0    0  0.22759598763E+01 -0.94890518858E+01  0.38095223061E+01  0.10475426460E+02  0.51100000000E-03 0.  1.
        -12    1    4    4    0    0 -0.16185967249E+00 -0.29022084296E+01  0.15725289954E+02  0.15991677725E+02  0.00000000000E+00 0.  1.
</event>
<event>
 8    1  0.5542925E-011  0.9118800E+02  0.7816164E-02  0.1184000E+00
        -11   -1    0    0    0    0  0.00000000000E+00  0.00000000000E+00  0.45593999997E+02  0.45594000000E+02  0.51100000000E-03 0. -1.
         11   -1    0    0    0    0 -0.00000000000E+00 -0.00000000000E+00 -0.45593999997E+02  0.45594000000E+02  0.51100000000E-03 0.  1.
         23    2    1    2    0    0  0.17763568394E-14 -0.35527136788E-14  0.35527136788E-14  0.91188000000E+02  0.91188000000E+02 0.  0.
    9900012    2    3    3    0    0 -0.14205107513E+02  0.30843865005E+02 -0.27027647215E+02  0.47787276482E+02  0.20000024793E+02 0.  0.
         12    1    3    3    0    0  0.14205107513E+02 -0.30843865005E+02  0.27027647215E+02  0.43400723518E+02  0.00000000000E+00 0. -1.
         11    1    4    4    0    0 -0.11380482271E+02  0.15855738970E+02 -0.14669034846E+02  0.24415167797E+02  0.51100000000E-03 0. -1.
        -11    1    4    4    0    0 -0.22018967813E+01  0.16126167661E+02 -0.13867333584E+02  0.21382342572E+02  0.51100000000E-03 0.  1.
         12    1    4    4    0    0 -0.62272846112E+00 -0.11380416257E+01  0.15087212158E+01  0.19897661132E+01  0.00000000000E+00 0. -1.
</event>
<event>
 8    1  0.5542925E-011  0.9118800E+02  0.7816164E-02  0.1184000E+00
        -11   -1    0    0    0    0  0.00000000000E+00  0.00000000000E+00  0.45593999997E+02  0.45594000000E+02  0.51100000000E-03 0. -1.
         11   -1    0    0    0    0 -0.00000000000E+00 -0.00000000000E+00 -0.45593999997E+02  0.45594000000E+02  0.51100000000E-03 0.  1.
         23    2    1    2    0    0  0.00000000000E+00 -0.88817841970E-15 -0.35527136788E-14  0.91188000000E+02  0.91188000000E+02 0.  0.
    9900012    2    3    3    0    0 -0.38337118938E+02  0.34172522012E+01 -0.20055201201E+02  0.47787269634E+02  0.19999993569E+02 0.  0.
         12    1    3    3    0    0  0.38337118938E+02 -0.34172522012E+01  0.20055201201E+02  0.43400730366E+02  0.00000000000E+00 0. -1.
         11    1    4    4    0    0 -0.85590445087E+01  0.13624756110E+01 -0.78256448577E+01  0.11677084413E+02  0.51100000000E-03 0. -1.
        -11    1    4    4    0    0 -0.17208508711E+02 -0.58494536271E+01 -0.10921465112E+02  0.21204416527E+02  0.51100000000E-03 0.  1.
         12    1    4    4    0    0 -0.12569565719E+02  0.79042302173E+01 -0.13080912311E+01  0.14905768694E+02  0.00000000000E+00 0. -1.
</event>
<event>
 8    1  0.5542925E-011  0.9118800E+02  0.7816164E-02  0.1184000E+00
        -11   -1    0    0    0    0  0.00000000000E+00  0.00000000000E+00  0.45593999997E+02  0.45594000000E+02  0.51100000000E-03 0. -1.
         11   -1    0    0    0    0 -0.00000000000E+00 -0.00000000000E+00 -0.45593999997E+02  0.45594000000E+02  0.51100000000E-03 0.  1.
         23    2    1    2    0    0  0.00000000000E+00  0.00000000000E+00  0.00000000000E+00  0.91188000000E+02  0.91188000000E+02 0.  0.
    9900012    2    3    3    0    0  0.10626823487E+02 -0.25553863064E+01 -0.42001974480E+02  0.47787248431E+02  0.19999896894E+02 0.  0.
         12    1    3    3    0    0 -0.10626823487E+02  0.25553863064E+01  0.42001974480E+02  0.43400751569E+02  0.00000000000E+00 0. -1.
         11    1    4    4    0    0 -0.22658147384E+01  0.48850550469E+01 -0.14567805834E+02  0.15531215223E+02  0.51100000000E-03 0. -1.
        -11    1    4    4    0    0  0.48483035002E+01 -0.12205209723E+01 -0.16861171052E+02  0.17586779346E+02  0.51100000000E-03 0.  1.
        -12    1    4    4    0    0  0.80443347252E+01 -0.62199203810E+01 -0.10572997594E+02  0.14669253861E+02  0.00000000000E+00 0.  1.
</event>
<event>
 8    1  0.5542925E-011  0.9118800E+02  0.7816164E-02  0.1184000E+00
        -11   -1    0    0    0    0  0.00000000000E+00  0.00000000000E+00  0.45593999997E+02  0.45594000000E+02  0.51100000000E-03 0. -1.
         11   -1    0    0    0    0 -0.00000000000E+00 -0.00000000000E+00 -0.45593999997E+02  0.45594000000E+02  0.51100000000E-03 0.  1.
         23    2    1    2    0    0  0.88817841970E-15  0.00000000000E+00  0.00000000000E+00  0.91188000000E+02  0.91188000000E+02 0.  0.
    9900012    2    3    3    0    0 -0.73389397729E+01  0.22021727139E+02  0.36671606291E+02  0.47787271767E+02  0.20000003294E+02 0.  0.
        -12    1    3    3    0    0  0.73389397729E+01 -0.22021727139E+02 -0.36671606291E+02  0.43400728233E+02  0.00000000000E+00 0.  1.
         11    1    4    4    0    0 -0.66023473733E+01  0.11965950706E+02  0.82736204106E+01  0.15975849338E+02  0.51100000000E-03 0. -1.
        -11    1    4    4    0    0 -0.54454986427E+01  0.47521066890E+01  0.15086533484E+02  0.16728402980E+02  0.51100000000E-03 0.  1.
        -12    1    4    4    0    0  0.47089062430E+01  0.53036697447E+01  0.13311452397E+02  0.15083019448E+02  0.00000000000E+00 0.  1.
</event>
<event>
 8    1  0.5542925E-011  0.9118800E+02  0.7816164E-02  0.1184000E+00
        -11   -1    0    0    0    0  0.00000000000E+00  0.00000000000E+00  0.45593999997E+02  0.45594000000E+02  0.51100000000E-03 0.  1.
         11   -1    0    0    0    0 -0.00000000000E+00 -0.00000000000E+00 -0.45593999997E+02  0.45594000000E+02  0.51100000000E-03 0. -1.
         23    2    1    2    0    0  0.35527136788E-14 -0.71054273576E-14  0.00000000000E+00  0.91188000000E+02  0.91188000000E+02 0.  0.
    9900012    2    3    3    0    0  0.24053354562E+02 -0.35696937124E+02 -0.55486892405E+01  0.47787272610E+02  0.20000007137E+02 0.  0.
         12    1    3    3    0    0 -0.24053354562E+02  0.35696937124E+02  0.55486892405E+01  0.43400727390E+02  0.00000000000E+00 0. -1.
         11    1    4    4    0    0  0.54825482761E+01 -0.22184496744E+02  0.17492435124E+01  0.22918771444E+02  0.51100000000E-03 0. -1.
        -11    1    4    4    0    0  0.14410820679E+01  0.46488794896E+00 -0.12062767381E+01  0.19359602686E+01  0.51100000000E-03 0.  1.
         12    1    4    4    0    0  0.17129724218E+02 -0.13977328329E+02 -0.60916560147E+01  0.22932540897E+02  0.00000000000E+00 0. -1.
</event>
<event>
 8    1  0.5542925E-011  0.9118800E+02  0.7816164E-02  0.1184000E+00
        -11   -1    0    0    0    0  0.00000000000E+00  0.00000000000E+00  0.45593999997E+02  0.45594000000E+02  0.51100000000E-03 0. -1.
         11   -1    0    0    0    0 -0.00000000000E+00 -0.00000000000E+00 -0.45593999997E+02  0.45594000000E+02  0.51100000000E-03 0.  1.
         23    2    1    2    0    0  0.17763568394E-14 -0.17763568394E-14  0.00000000000E+00  0.91188000000E+02  0.91188000000E+02 0.  0.
    9900012    2    3    3    0    0 -0.15829802932E+02  0.15807464672E+02  0.37190921079E+02  0.47787271770E+02  0.20000003308E+02 0.  0.
        -12    1    3    3    0    0  0.15829802932E+02 -0.15807464672E+02 -0.37190921079E+02  0.43400728230E+02  0.00000000000E+00 0.  1.
         11    1    4    4    0    0 -0.35983457933E+01  0.13657848555E+01  0.13922368076E+01  0.40928943682E+01  0.51100000000E-03 0. -1.
        -11    1    4    4    0    0 -0.11090125895E+02  0.58464871048E+00  0.17182567401E+02  0.20459064720E+02  0.51100000000E-03 0.  1.
         12    1    4    4    0    0 -0.11413312437E+01  0.13857031106E+02  0.18616116870E+02  0.23235312681E+02  0.00000000000E+00 0. -1.
</event>
<event>
 8    1  0.5542925E-011  0.9118800E+02  0.7816164E-02  0.1184000E+00
        -11   -1    0    0    0    0  0.00000000000E+00  0.00000000000E+00  0.45593999997E+02  0.45594000000E+02  0.51100000000E-03 0. -1.
         11   -1    0    0    0    0 -0.00000000000E+00 -0.00000000000E+00 -0.45593999997E+02  0.45594000000E+02  0.51100000000E-03 0.  1.
         23    2    1    2    0    0  0.00000000000E+00  0.00000000000E+00  0.00000000000E+00  0.91188000000E+02  0.91188000000E+02 0.  0.
    9900012    2    3    3    0    0  0.40156483335E+02 -0.12558812394E+02 -0.10646898458E+02  0.47787269945E+02  0.19999994987E+02 0.  0.
         12    1    3    3    0    0 -0.40156483335E+02  0.12558812394E+02  0.10646898458E+02  0.43400730055E+02  0.00000000000E+00 0. -1.
         11    1    4    4    0    0  0.13131733307E+01 -0.52902166200E+01 -0.21800591098E+01  0.58705599448E+01  0.51100000000E-03 0. -1.
        -11    1    4    4    0    0  0.15414703880E+02 -0.15351672485E+01 -0.87574355358E+01  0.17795013673E+02  0.51100000000E-03 0.  1.
        -12    1    4    4    0    0  0.23428606124E+02 -0.57334285252E+01  0.29059618764E+00  0.24121696327E+02  0.00000000000E+00 0.  1.
</event>
<event>
 8    1  0.5542925E-011  0.9118800E+02  0.7816164E-02  0.1184000E+00
        -11   -1    0    0    0    0  0.00000000000E+00  0.00000000000E+00  0.45593999997E+02  0.45594000000E+02  0.51100000000E-03 0. -1.
         11   -1    0    0    0    0 -0.00000000000E+00 -0.00000000000E+00 -0.45593999997E+02  0.45594000000E+02  0.51100000000E-03 0.  1.
         23    2    1    2    0    0  0.00000000000E+00  0.88817841970E-15 -0.44408920985E-15  0.91188000000E+02  0.91188000000E+02 0.  0.
    9900012    2    3    3    0    0  0.42939765865E+02 -0.53755014662E+01 -0.33020505802E+01  0.47787273662E+02  0.20000011936E+02 0.  0.
         12    1    3    3    0    0 -0.42939765865E+02  0.53755014662E+01  0.33020505802E+01  0.43400726338E+02  0.00000000000E+00 0. -1.
         11    1    4    4    0    0 -0.14658480256E+00  0.10833324579E+01 -0.91871371544E+00  0.14279816073E+01  0.51100000000E-03 0. -1.
        -11    1    4    4    0    0  0.14624825498E+02  0.37648580486E+01 -0.52345497807E+01  0.15983121992E+02  0.51100000000E-03 0.  1.
         12    1    4    4    0    0  0.28461525171E+02 -0.10223691973E+02  0.28512129159E+01  0.30376170063E+02  0.00000000000E+00 0. -1.
</event>
<event>
 8    1  0.5542925E-011  0.9118800E+02  0.7816164E-02  0.1184000E+00
        -11   -1    0    0    0    0  0.00000000000E+00  0.00000000000E+00  0.45593999997E+02  0.45594000000E+02  0.51100000000E-03 0. -1.
         11   -1    0    0    0    0 -0.00000000000E+00 -0.00000000000E+00 -0.45593999997E+02  0.45594000000E+02  0.51100000000E-03 0.  1.
         23    2    1    2    0    0  0.00000000000E+00  0.00000000000E+00  0.00000000000E+00  0.91188000000E+02  0.91188000000E+02 0.  0.
    9900012    2    3    3    0    0 -0.19213959213E+02  0.68133152440E+01 -0.38314821830E+02  0.47787273450E+02  0.20000010966E+02 0.  0.
         12    1    3    3    0    0  0.19213959213E+02 -0.68133152440E+01  0.38314821830E+02  0.43400726550E+02  0.00000000000E+00 0. -1.
         11    1    4    4    0    0  0.90439703253E-02  0.28051293446E+01  0.35593278342E+00  0.28276352030E+01  0.51100000000E-03 0. -1.
        -11    1    4    4    0    0 -0.53544337131E+00  0.37185717428E+01 -0.10508762229E+02  0.11160132583E+02  0.51100000000E-03 0.  1.
         12    1    4    4    0    0 -0.18687559812E+02  0.28961415656E+00 -0.28161992384E+02  0.33799505664E+02  0.00000000000E+00 0. -1.
</event>
<event>
 8    1  0.5542925E-011  0.9118800E+02  0.7816164E-02  0.1184000E+00
        -11   -1    0    0    0    0  0.00000000000E+00  0.00000000000E+00  0.45593999997E+02  0.45594000000E+02  0.51100000000E-03 0. -1.
         11   -1    0    0    0    0 -0.00000000000E+00 -0.00000000000E+00 -0.45593999997E+02  0.45594000000E+02  0.51100000000E-03 0.  1.
         23    2    1    2    0    0  0.35527136788E-14  0.00000000000E+00 -0.35527136788E-14  0.91188000000E+02  0.91188000000E+02 0.  0.
    9900012    2    3    3    0    0  0.15752005061E+02  0.32362096930E+02  0.24252673754E+02  0.47787272294E+02  0.20000005698E+02 0.  0.
        -12    1    3    3    0    0 -0.15752005061E+02 -0.32362096930E+02 -0.24252673754E+02  0.43400727706E+02  0.00000000000E+00 0.  1.
         11    1    4    4    0    0  0.12059100699E+02  0.24344527608E+02  0.26441768795E+02  0.37911015172E+02  0.51100000000E-03 0. -1.
        -11    1    4    4    0    0  0.54061011367E+00  0.20164870357E+01  0.10799997404E+01  0.23505061073E+01  0.51100000000E-03 0.  1.
        -12    1    4    4    0    0  0.31522942489E+01  0.60010822870E+01 -0.32690947814E+01  0.75257510148E+01  0.00000000000E+00 0.  1.
</event>
<event>
 8    1  0.5542925E-011  0.9118800E+02  0.7816164E-02  0.1184000E+00
        -11   -1    0    0    0    0  0.00000000000E+00  0.00000000000E+00  0.45593999997E+02  0.45594000000E+02  0.51100000000E-03 0. -1.
         11   -1    0    0    0    0 -0.00000000000E+00 -0.00000000000E+00 -0.45593999997E+02  0.45594000000E+02  0.51100000000E-03 0.  1.
         23    2    1    2    0    0  0.00000000000E+00  0.00000000000E+00  0.00000000000E+00  0.91188000000E+02  0.91188000000E+02 0.  0.
    9900012    2    3    3    0    0 -0.31940228490E+02 -0.86900515569E+01  0.28070055832E+02  0.47787271590E+02  0.20000002489E+02 0.  0.
        -12    1    3    3    0    0  0.31940228490E+02  0.86900515569E+01 -0.28070055832E+02  0.43400728410E+02  0.00000000000E+00 0.  1.
         11    1    4    4    0    0 -0.53060313089E+01 -0.29614508829E+01  0.98558625321E+01  0.11578522621E+02  0.51100000000E-03 0. -1.
        -11    1    4    4    0    0 -0.26750429535E+01 -0.67600652622E+01  0.34521378452E+01  0.80480800887E+01  0.51100000000E-03 0.  1.
        -12    1    4    4    0    0 -0.23959154228E+02  0.10314645881E+01  0.14762055455E+02  0.28160668880E+02  0.00000000000E+00 0.  1.
</event>
<event>
 8    1  0.5542925E-011  0.9118800E+02  0.7816164E-02  0.1184000E+00
        -11   -1    0    0    0    0  0.00000000000E+00  0.00000000000E+00  0.45593999997E+02  0.45594000000E+02  0.51100000000E-03 0. -1.
         11   -1    0    0    0    0 -0.00000000000E+00 -0.00000000000E+00 -0.45593999997E+02  0.45594000000E+02  0.51100000000E-03 0.  1.
         23    2    1    2    0    0  0.00000000000E+00  0.00000000000E+00 -0.71054273576E-14  0.91188000000E+02  0.91188000000E+02 0.  0.
    9900012    2    3    3    0    0 -0.18838472083E+02  0.19164626067E+02 -0.34080093143E+02  0.47787266465E+02  0.19999979121E+02 0.  0.
         12    1    3    3    0    0  0.18838472083E+02 -0.19164626067E+02  0.34080093143E+02  0.43400733535E+02  0.00000000000E+00 0. -1.
         11    1    4    4    0    0 -0.10618275000E+02  0.48248002162E+01 -0.16310341881E+02  0.20051277107E+02  0.51100000000E-03 0. -1.
        -11    1    4    4    0    0  0.10219057267E+01  0.10268773552E+02 -0.12912806328E+02  0.16529748005E+02  0.51100000000E-03 0.  1.
         12    1    4    4    0    0 -0.92421028096E+01  0.40710522980E+01 -0.48569449346E+01  0.11206241353E+02  0.00000000000E+00 0. -1.
</event>
<event>
 8    1  0.7203567E-011  0.9118800E+02  0.7816164E-02  0.1184000E+00
        -11   -1    0    0    0    0  0.00000000000E+00  0.00000000000E+00  0.45593999997E+02  0.45594000000E+02  0.51100000000E-03 0. -1.
         11   -1    0    0    0    0 -0.00000000000E+00 -0.00000000000E+00 -0.45593999997E+02  0.45594000000E+02  0.51100000000E-03 0.  1.
         23    2    1    2    0    0  0.00000000000E+00 -0.17763568394E-14 -0.71054273576E-14  0.91188000000E+02  0.91188000000E+02 0.  0.
    9900012    2    3    3    0    0 -0.61046221153E+01  0.11631348320E+02  0.41365065516E+02  0.47787270513E+02  0.19999997576E+02 0.  0.
        -12    1    3    3    0    0  0.61046221153E+01 -0.11631348320E+02 -0.41365065516E+02  0.43400729487E+02  0.00000000000E+00 0.  1.
         11    1    4    4    0    0 -0.74381733918E+01  0.60602388961E+01  0.23580644212E+02  0.25457802352E+02  0.51100000000E-03 0. -1.
        -11    1    4    4    0    0 -0.51086919399E+01  0.10272266989E+01  0.45149861359E+01  0.68948551903E+01  0.51100000000E-03 0.  1.
         12    1    4    4    0    0  0.64422432165E+01  0.45438827250E+01  0.13269435168E+02  0.15434612971E+02  0.00000000000E+00 0. -1.
</event>
<event>
 8    1  0.5542925E-011  0.9118800E+02  0.7816164E-02  0.1184000E+00
        -11   -1    0    0    0    0  0.00000000000E+00  0.00000000000E+00  0.45593999997E+02  0.45594000000E+02  0.51100000000E-03 0. -1.
         11   -1    0    0    0    0 -0.00000000000E+00 -0.00000000000E+00 -0.45593999997E+02  0.45594000000E+02  0.51100000000E-03 0.  1.
         23    2    1    2    0    0  0.00000000000E+00 -0.17763568394E-14  0.00000000000E+00  0.91188000000E+02  0.91188000000E+02 0.  0.
    9900012    2    3    3    0    0  0.56775682246E+01  0.13486386755E+02 -0.40859593355E+02  0.47787265239E+02  0.19999973530E+02 0.  0.
         12    1    3    3    0    0 -0.56775682246E+01 -0.13486386755E+02  0.40859593355E+02  0.43400734761E+02  0.00000000000E+00 0. -1.
         11    1    4    4    0    0  0.42932627200E+01  0.64827243896E+01 -0.35373374656E+01  0.85422817151E+01  0.51100000000E-03 0. -1.
        -11    1    4    4    0    0  0.54003247445E+01  0.27996187717E+01 -0.15212328868E+02  0.16383416081E+02  0.51100000000E-03 0.  1.
        -12    1    4    4    0    0 -0.40160192399E+01  0.42040435940E+01 -0.22109927021E+02  0.22861567443E+02  0.00000000000E+00 0.  1.
</event>
<event>
 8    1  0.5542925E-011  0.9118800E+02  0.7816164E-02  0.1184000E+00
        -11   -1    0    0    0    0  0.00000000000E+00  0.00000000000E+00  0.45593999997E+02  0.45594000000E+02  0.51100000000E-03 0. -1.
         11   -1    0    0    0    0 -0.00000000000E+00 -0.00000000000E+00 -0.45593999997E+02  0.45594000000E+02  0.51100000000E-03 0.  1.
         23    2    1    2    0    0  0.00000000000E+00  0.00000000000E+00 -0.71054273576E-14  0.91188000000E+02  0.91188000000E+02 0.  0.
    9900012    2    3    3    0    0  0.46158743066E+01  0.27413999260E+02 -0.33328506823E+02  0.47787273991E+02  0.20000013435E+02 0.  0.
         12    1    3    3    0    0 -0.46158743066E+01 -0.27413999260E+02  0.33328506823E+02  0.43400726009E+02  0.00000000000E+00 0. -1.
         11    1    4    4    0    0 -0.29375214903E+01  0.11341397190E+01 -0.12558268088E+01  0.33900452272E+01  0.51100000000E-03 0. -1.
        -11    1    4    4    0    0 -0.24164894465E+01  0.16513507198E+02 -0.16154058096E+02  0.23226901094E+02  0.51100000000E-03 0.  1.
        -12    1    4    4    0    0  0.99698852434E+01  0.97663523428E+01 -0.15918621919E+02  0.21170327670E+02  0.00000000000E+00 0.  1.
</event>
<event>
 8    1  0.5542925E-011  0.9118800E+02  0.7816164E-02  0.1184000E+00
        -11   -1    0    0    0    0  0.00000000000E+00  0.00000000000E+00  0.45593999997E+02  0.45594000000E+02  0.51100000000E-03 0. -1.
         11   -1    0    0    0    0 -0.00000000000E+00 -0.00000000000E+00 -0.45593999997E+02  0.45594000000E+02  0.51100000000E-03 0.  1.
         23    2    1    2    0    0  0.00000000000E+00  0.00000000000E+00  0.00000000000E+00  0.91188000000E+02  0.91188000000E+02 0.  0.
    9900012    2    3    3    0    0  0.29988687231E+02 -0.14776065991E+02  0.27676152023E+02  0.47787275596E+02  0.20000020752E+02 0.  0.
        -12    1    3    3    0    0 -0.29988687231E+02  0.14776065991E+02 -0.27676152023E+02  0.43400724404E+02  0.00000000000E+00 0.  1.
         11    1    4    4    0    0  0.69975780749E+01 -0.51025071706E+01  0.13824939394E+02  0.16313510593E+02  0.51100000000E-03 0. -1.
        -11    1    4    4    0    0  0.87698143580E+01  0.29542076573E+00  0.10674628736E+02  0.13818271101E+02  0.51100000000E-03 0.  1.
        -12    1    4    4    0    0  0.14221294798E+02 -0.99689795858E+01  0.31765838928E+01  0.17655493902E+02  0.00000000000E+00 0.  1.
</event>
<event>
 8    1  0.5542925E-011  0.9118800E+02  0.7816164E-02  0.1184000E+00
        -11   -1    0    0    0    0  0.00000000000E+00  0.00000000000E+00  0.45593999997E+02  0.45594000000E+02  0.51100000000E-03 0. -1.
         11   -1    0    0    0    0 -0.00000000000E+00 -0.00000000000E+00 -0.45593999997E+02  0.45594000000E+02  0.51100000000E-03 0.  1.
         23    2    1    2    0    0  0.00000000000E+00  0.17763568394E-14  0.00000000000E+00  0.91188000000E+02  0.91188000000E+02 0.  0.
    9900012    2    3    3    0    0 -0.59160172952E+01  0.58046576555E+01 -0.42601995461E+02  0.47787270416E+02  0.19999997136E+02 0.  0.
         12    1    3    3    0    0  0.59160172952E+01 -0.58046576555E+01  0.42601995461E+02  0.43400729584E+02  0.00000000000E+00 0. -1.
         11    1    4    4    0    0 -0.32674630403E+01  0.80069996969E+01 -0.10076073009E+02  0.13278388697E+02  0.51100000000E-03 0. -1.
        -11    1    4    4    0    0 -0.31322526034E+01  0.40867877922E+01 -0.16563006584E+02  0.17344913611E+02  0.51100000000E-03 0.  1.
        -12    1    4    4    0    0  0.48369834842E+00 -0.62891298337E+01 -0.15962915869E+02  0.17163968107E+02  0.00000000000E+00 0.  1.
</event>
<event>
 8    1  0.5542925E-011  0.9118800E+02  0.7816164E-02  0.1184000E+00
        -11   -1    0    0    0    0  0.00000000000E+00  0.00000000000E+00  0.45593999997E+02  0.45594000000E+02  0.51100000000E-03 0. -1.
         11   -1    0    0    0    0 -0.00000000000E+00 -0.00000000000E+00 -0.45593999997E+02  0.45594000000E+02  0.51100000000E-03 0.  1.
         23    2    1    2    0    0 -0.17763568394E-14  0.44408920985E-15  0.71054273576E-14  0.91188000000E+02  0.91188000000E+02 0.  0.
    9900012    2    3    3    0    0  0.13541771916E+02  0.15351715581E+01 -0.41205422867E+02  0.47787271757E+02  0.20000003249E+02 0.  0.
         12    1    3    3    0    0 -0.13541771916E+02 -0.15351715581E+01  0.41205422867E+02  0.43400728243E+02  0.00000000000E+00 0. -1.
         11    1    4    4    0    0 -0.45918971777E+00  0.21238962648E+01 -0.11432388175E+01  0.24553585879E+01  0.51100000000E-03 0. -1.
        -11    1    4    4    0    0  0.16107822357E+02  0.30789888660E+01 -0.35532609752E+02  0.39134492070E+02  0.51100000000E-03 0.  1.
         12    1    4    4    0    0 -0.21068607230E+01 -0.36677135727E+01 -0.45295742976E+01  0.61974210987E+01  0.00000000000E+00 0. -1.
</event>
<event>
 8    1  0.5542925E-011  0.9118800E+02  0.7816164E-02  0.1184000E+00
        -11   -1    0    0    0    0  0.00000000000E+00  0.00000000000E+00  0.45593999997E+02  0.45594000000E+02  0.51100000000E-03 0. -1.
         11   -1    0    0    0    0 -0.00000000000E+00 -0.00000000000E+00 -0.45593999997E+02  0.45594000000E+02  0.51100000000E-03 0.  1.
         23    2    1    2    0    0  0.00000000000E+00  0.00000000000E+00  0.35527136788E-14  0.91188000000E+02  0.91188000000E+02 0.  0.
    9900012    2    3    3    0    0 -0.20498957630E+02  0.26649210637E+02 -0.27445140346E+02  0.47787269360E+02  0.19999992319E+02 0.  0.
         12    1    3    3    0    0  0.20498957630E+02 -0.26649210637E+02  0.27445140346E+02  0.43400730640E+02  0.00000000000E+00 0. -1.
         11    1    4    4    0    0 -0.15253683482E+01  0.39435927344E+01  0.17051259691E+01  0.45591805277E+01  0.51100000000E-03 0. -1.
        -11    1    4    4    0    0 -0.11740350970E+01  0.98884841476E+01 -0.82625733223E+01  0.12939497491E+02  0.51100000000E-03 0.  1.
        -12    1    4    4    0    0 -0.17799554185E+02  0.12817133755E+02 -0.20887692993E+02  0.30288591341E+02  0.00000000000E+00 0.  1.
</event>
<event>
 8    1  0.5542925E-011  0.9118800E+02  0.7816164E-02  0.1184000E+00
        -11   -1    0    0    0    0  0.00000000000E+00  0.00000000000E+00  0.45593999997E+02  0.45594000000E+02  0.51100000000E-03 0. -1.
         11   -1    0    0    0    0 -0.00000000000E+00 -0.00000000000E+00 -0.45593999997E+02  0.45594000000E+02  0.51100000000E-03 0.  1.
         23    2    1    2    0    0  0.00000000000E+00 -0.35527136788E-14  0.35527136788E-14  0.91188000000E+02  0.91188000000E+02 0.  0.
    9900012    2    3    3    0    0 -0.37576008992E+02  0.16255086700E+02 -0.14402863862E+02  0.47787230620E+02  0.19999815688E+02 0.  0.
         12    1    3    3    0    0  0.37576008992E+02 -0.16255086700E+02  0.14402863862E+02  0.43400769380E+02  0.00000000000E+00 0. -1.
         11    1    4    4    0    0 -0.20817465898E+02  0.37490225027E+01 -0.72381349447E+01  0.22356490195E+02  0.51100000000E-03 0. -1.
        -11    1    4    4    0    0 -0.18353938593E+02  0.94888622624E+01 -0.75458666584E+01  0.21996492284E+02  0.51100000000E-03 0.  1.
         12    1    4    4    0    0  0.15953954989E+01  0.30172019349E+01  0.38113774138E+00  0.34342481407E+01  0.00000000000E+00 0. -1.
</event>
<event>
 8    1  0.5542925E-011  0.9118800E+02  0.7816164E-02  0.1184000E+00
        -11   -1    0    0    0    0  0.00000000000E+00  0.00000000000E+00  0.45593999997E+02  0.45594000000E+02  0.51100000000E-03 0. -1.
         11   -1    0    0    0    0 -0.00000000000E+00 -0.00000000000E+00 -0.45593999997E+02  0.45594000000E+02  0.51100000000E-03 0.  1.
         23    2    1    2    0    0  0.00000000000E+00  0.00000000000E+00  0.17763568394E-14  0.91188000000E+02  0.91188000000E+02 0.  0.
    9900012    2    3    3    0    0  0.10357560898E+02 -0.40577034605E+02  0.11395109609E+02  0.47787270420E+02  0.19999997153E+02 0.  0.
        -12    1    3    3    0    0 -0.10357560898E+02  0.40577034605E+02 -0.11395109609E+02  0.43400729580E+02  0.00000000000E+00 0.  1.
         11    1    4    4    0    0  0.49073589274E+01 -0.10691657051E+02  0.19718525983E+01  0.11928197897E+02  0.51100000000E-03 0. -1.
        -11    1    4    4    0    0  0.13502584178E+01 -0.31186203528E+01  0.80585006530E+01  0.87457660462E+01  0.51100000000E-03 0.  1.
        -12    1    4    4    0    0  0.40999435531E+01 -0.26766757201E+02  0.13647563574E+01  0.27113306477E+02  0.00000000000E+00 0.  1.
</event>
<event>
 8    1  0.5542925E-011  0.9118800E+02  0.7816164E-02  0.1184000E+00
        -11   -1    0    0    0    0  0.00000000000E+00  0.00000000000E+00  0.45593999997E+02  0.45594000000E+02  0.51100000000E-03 0. -1.
         11   -1    0    0    0    0 -0.00000000000E+00 -0.00000000000E+00 -0.45593999997E+02  0.45594000000E+02  0.51100000000E-03 0.  1.
         23    2    1    2    0    0  0.00000000000E+00  0.00000000000E+00  0.00000000000E+00  0.91188000000E+02  0.91188000000E+02 0.  0.
    9900012    2    3    3    0    0  0.19613187221E+02 -0.25014053853E+01 -0.38635336740E+02  0.47787269743E+02  0.19999994064E+02 0.  0.
         12    1    3    3    0    0 -0.19613187221E+02  0.25014053853E+01  0.38635336740E+02  0.43400730257E+02  0.00000000000E+00 0. -1.
         11    1    4    4    0    0  0.15591113665E+02  0.20615859957E+01 -0.26372842687E+02  0.30706022109E+02  0.51100000000E-03 0. -1.
        -11    1    4    4    0    0  0.29024394456E+01 -0.20748997473E+01 -0.13587508864E+02  0.14048123045E+02  0.51100000000E-03 0.  1.
         12    1    4    4    0    0  0.11196341098E+01 -0.24880916337E+01  0.13250148107E+01  0.30331245880E+01  0.00000000000E+00 0. -1.
</event>
<event>
 8    1  0.5542925E-011  0.9118800E+02  0.7816164E-02  0.1184000E+00
        -11   -1    0    0    0    0  0.00000000000E+00  0.00000000000E+00  0.45593999997E+02  0.45594000000E+02  0.51100000000E-03 0.  1.
         11   -1    0    0    0    0 -0.00000000000E+00 -0.00000000000E+00 -0.45593999997E+02  0.45594000000E+02  0.51100000000E-03 0. -1.
         23    2    1    2    0    0  0.00000000000E+00  0.00000000000E+00  0.00000000000E+00  0.91188000000E+02  0.91188000000E+02 0.  0.
    9900012    2    3    3    0    0 -0.27012172363E+02 -0.31900893109E+02 -0.11674710365E+02  0.47787270755E+02  0.19999998681E+02 0.  0.
         12    1    3    3    0    0  0.27012172363E+02  0.31900893109E+02  0.11674710365E+02  0.43400729245E+02  0.00000000000E+00 0. -1.
         11    1    4    4    0    0 -0.26596546160E+01 -0.60691686012E+01 -0.96851638262E+01  0.11735031691E+02  0.51100000000E-03 0. -1.
        -11    1    4    4    0    0 -0.21761975442E+01 -0.10225526086E+01  0.10784157516E+01  0.26352287155E+01  0.51100000000E-03 0.  1.
         12    1    4    4    0    0 -0.22176320203E+02 -0.24809171899E+02 -0.30679622901E+01  0.33417010349E+02  0.00000000000E+00 0. -1.
</event>
<event>
 8    1  0.5542925E-011  0.9118800E+02  0.7816164E-02  0.1184000E+00
        -11   -1    0    0    0    0  0.00000000000E+00  0.00000000000E+00  0.45593999997E+02  0.45594000000E+02  0.51100000000E-03 0.  1.
         11   -1    0    0    0    0 -0.00000000000E+00 -0.00000000000E+00 -0.45593999997E+02  0.45594000000E+02  0.51100000000E-03 0. -1.
         23    2    1    2    0    0  0.00000000000E+00 -0.71054273576E-14  0.00000000000E+00  0.91188000000E+02  0.91188000000E+02 0.  0.
    9900012    2    3    3    0    0  0.27375645692E+02  0.32283415575E+02 -0.95904994645E+01  0.47787279058E+02  0.20000036539E+02 0.  0.
         12    1    3    3    0    0 -0.27375645692E+02 -0.32283415575E+02  0.95904994645E+01  0.43400720942E+02  0.00000000000E+00 0. -1.
         11    1    4    4    0    0  0.26835413338E+02  0.32410712128E+02 -0.76148037464E+01  0.42761886137E+02  0.51100000000E-03 0.  1.
        -11    1    4    4    0    0  0.20337763177E+01 -0.51582405486E+00 -0.26169516580E+01  0.33542147826E+01  0.51100000000E-03 0. -1.
        -12    1    4    4    0    0 -0.14935439633E+01  0.38852750213E+00  0.64125593995E+00  0.16711781386E+01  0.00000000000E+00 0.  1.
</event>
<event>
 8    1  0.5542925E-011  0.9118800E+02  0.7816164E-02  0.1184000E+00
        -11   -1    0    0    0    0  0.00000000000E+00  0.00000000000E+00  0.45593999997E+02  0.45594000000E+02  0.51100000000E-03 0.  1.
         11   -1    0    0    0    0 -0.00000000000E+00 -0.00000000000E+00 -0.45593999997E+02  0.45594000000E+02  0.51100000000E-03 0. -1.
         23    2    1    2    0    0 -0.35527136788E-14  0.00000000000E+00 -0.71054273576E-14  0.91188000000E+02  0.91188000000E+02 0.  0.
    9900012    2    3    3    0    0 -0.24501077701E+02  0.21127917434E+02  0.28929764549E+02  0.47787274424E+02  0.20000015410E+02 0.  0.
        -12    1    3    3    0    0  0.24501077701E+02 -0.21127917434E+02 -0.28929764549E+02  0.43400725576E+02  0.00000000000E+00 0.  1.
         11    1    4    4    0    0 -0.14746588575E+02  0.26789114842E+01  0.95272431270E+01  0.17759696034E+02  0.51100000000E-03 0. -1.
        -11    1    4    4    0    0 -0.11643334520E+02  0.16049753083E+02  0.16223540060E+02  0.25619622658E+02  0.51100000000E-03 0.  1.
        -12    1    4    4    0    0  0.18888453942E+01  0.23992528667E+01  0.31789813620E+01  0.44079557327E+01  0.00000000000E+00 0.  1.
</event>
<event>
 8    1  0.5542925E-011  0.9118800E+02  0.7816164E-02  0.1184000E+00
        -11   -1    0    0    0    0  0.00000000000E+00  0.00000000000E+00  0.45593999997E+02  0.45594000000E+02  0.51100000000E-03 0. -1.
         11   -1    0    0    0    0 -0.00000000000E+00 -0.00000000000E+00 -0.45593999997E+02  0.45594000000E+02  0.51100000000E-03 0.  1.
         23    2    1    2    0    0  0.00000000000E+00  0.00000000000E+00  0.00000000000E+00  0.91188000000E+02  0.91188000000E+02 0.  0.
    9900012    2    3    3    0    0 -0.13669104531E+02 -0.23333616246E+02  0.33945859006E+02  0.47787269482E+02  0.19999992878E+02 0.  0.
        -12    1    3    3    0    0  0.13669104531E+02  0.23333616246E+02 -0.33945859006E+02  0.43400730518E+02  0.00000000000E+00 0.  1.
         11    1    4    4    0    0  0.29075211555E+01 -0.27689180164E+01  0.21301905544E+01  0.45451400760E+01  0.51100000000E-03 0. -1.
        -11    1    4    4    0    0 -0.68673027255E+01 -0.44664984129E+01  0.27782988082E+01  0.86503409948E+01  0.51100000000E-03 0.  1.
        -12    1    4    4    0    0 -0.97093229612E+01 -0.16098199817E+02  0.29037369643E+02  0.34591788412E+02  0.00000000000E+00 0.  1.
</event>
<event>
 8    1  0.5542925E-011  0.9118800E+02  0.7816164E-02  0.1184000E+00
        -11   -1    0    0    0    0  0.00000000000E+00  0.00000000000E+00  0.45593999997E+02  0.45594000000E+02  0.51100000000E-03 0. -1.
         11   -1    0    0    0    0 -0.00000000000E+00 -0.00000000000E+00 -0.45593999997E+02  0.45594000000E+02  0.51100000000E-03 0.  1.
         23    2    1    2    0    0 -0.22204460493E-15  0.00000000000E+00  0.00000000000E+00  0.91188000000E+02  0.91188000000E+02 0.  0.
    9900012    2    3    3    0    0 -0.79213990482E+00  0.38906668159E+02 -0.19216297418E+02  0.47787281120E+02  0.20000045936E+02 0.  0.
         12    1    3    3    0    0  0.79213990482E+00 -0.38906668159E+02  0.19216297418E+02  0.43400718880E+02  0.00000000000E+00 0. -1.
         11    1    4    4    0    0  0.10061945935E+00  0.54869483171E+01  0.88944405417E+00  0.55594817292E+01  0.51100000000E-03 0. -1.
        -11    1    4    4    0    0 -0.40017224903E+01  0.33276257368E+02 -0.16177417537E+02  0.37216017059E+02  0.51100000000E-03 0.  1.
         12    1    4    4    0    0  0.31089631262E+01  0.14346247451E+00 -0.39283239347E+01  0.50117823314E+01  0.00000000000E+00 0. -1.
</event>
<event>
 8    1  0.5542925E-011  0.9118800E+02  0.7816164E-02  0.1184000E+00
        -11   -1    0    0    0    0  0.00000000000E+00  0.00000000000E+00  0.45593999997E+02  0.45594000000E+02  0.51100000000E-03 0. -1.
         11   -1    0    0    0    0 -0.00000000000E+00 -0.00000000000E+00 -0.45593999997E+02  0.45594000000E+02  0.51100000000E-03 0.  1.
         23    2    1    2    0    0  0.17763568394E-14  0.00000000000E+00 -0.71054273576E-14  0.91188000000E+02  0.91188000000E+02 0.  0.
    9900012    2    3    3    0    0  0.14897565516E+02 -0.18427576899E+02  0.36360824572E+02  0.47787278667E+02  0.20000034752E+02 0.  0.
        -12    1    3    3    0    0 -0.14897565516E+02  0.18427576899E+02 -0.36360824572E+02  0.43400721333E+02  0.00000000000E+00 0.  1.
         11    1    4    4    0    0 -0.87973188365E+00 -0.10406410396E+01  0.49120421718E+00  0.14484970847E+01  0.51100000000E-03 0. -1.
        -11    1    4    4    0    0  0.65602884837E+01 -0.18702849862E+02  0.21753216285E+02  0.29428496342E+02  0.51100000000E-03 0.  1.
         12    1    4    4    0    0  0.92170089158E+01  0.13159140023E+01  0.14116404070E+02  0.16910285240E+02  0.00000000000E+00 0. -1.
</event>
<event>
 8    1  0.5542925E-011  0.9118800E+02  0.7816164E-02  0.1184000E+00
        -11   -1    0    0    0    0  0.00000000000E+00  0.00000000000E+00  0.45593999997E+02  0.45594000000E+02  0.51100000000E-03 0. -1.
         11   -1    0    0    0    0 -0.00000000000E+00 -0.00000000000E+00 -0.45593999997E+02  0.45594000000E+02  0.51100000000E-03 0.  1.
         23    2    1    2    0    0  0.00000000000E+00  0.00000000000E+00  0.00000000000E+00  0.91188000000E+02  0.91188000000E+02 0.  0.
    9900012    2    3    3    0    0  0.14498750506E+02  0.73345364131E+01  0.40244428002E+02  0.47787272174E+02  0.20000005149E+02 0.  0.
        -12    1    3    3    0    0 -0.14498750506E+02 -0.73345364131E+01 -0.40244428002E+02  0.43400727826E+02  0.00000000000E+00 0.  1.
         11    1    4    4    0    0  0.50540348944E+01  0.46231964800E+01  0.19939804880E+02  0.21083477733E+02  0.51100000000E-03 0. -1.
        -11    1    4    4    0    0  0.98660627758E+01 -0.55955654903E+00  0.21110432106E+02  0.23308853301E+02  0.51100000000E-03 0.  1.
        -12    1    4    4    0    0 -0.42134716405E+00  0.32708964821E+01 -0.80580898363E+00  0.33949411405E+01  0.00000000000E+00 0.  1.
</event>
<event>
 8    1  0.5542925E-011  0.9118800E+02  0.7816164E-02  0.1184000E+00
        -11   -1    0    0    0    0  0.00000000000E+00  0.00000000000E+00  0.45593999997E+02  0.45594000000E+02  0.51100000000E-03 0. -1.
         11   -1    0    0    0    0 -0.00000000000E+00 -0.00000000000E+00 -0.45593999997E+02  0.45594000000E+02  0.51100000000E-03 0.  1.
         23    2    1    2    0    0  0.00000000000E+00 -0.35527136788E-14  0.00000000000E+00  0.91188000000E+02  0.91188000000E+02 0.  0.
    9900012    2    3    3    0    0 -0.22401101047E+02  0.18851637314E+02 -0.32037941167E+02  0.47787271530E+02  0.20000002212E+02 0.  0.
         12    1    3    3    0    0  0.22401101047E+02 -0.18851637314E+02  0.32037941167E+02  0.43400728470E+02  0.00000000000E+00 0. -1.
         11    1    4    4    0    0 -0.78721306461E+01 -0.60000492451E+00 -0.11825903269E+01  0.79830424627E+01  0.51100000000E-03 0. -1.
        -11    1    4    4    0    0  0.70128936855E-01  0.88273527798E+00  0.71995268016E-01  0.88843864083E+00  0.51100000000E-03 0.  1.
        -12    1    4    4    0    0 -0.14599099338E+02  0.18568906960E+02 -0.30927346108E+02  0.38915790426E+02  0.00000000000E+00 0.  1.
</event>
<event>
 8    1  0.5542925E-011  0.9118800E+02  0.7816164E-02  0.1184000E+00
        -11   -1    0    0    0    0  0.00000000000E+00  0.00000000000E+00  0.45593999997E+02  0.45594000000E+02  0.51100000000E-03 0. -1.
         11   -1    0    0    0    0 -0.00000000000E+00 -0.00000000000E+00 -0.45593999997E+02  0.45594000000E+02  0.51100000000E-03 0.  1.
         23    2    1    2    0    0  0.88817841970E-15  0.35527136788E-14  0.00000000000E+00  0.91188000000E+02  0.91188000000E+02 0.  0.
    9900012    2    3    3    0    0 -0.35977775689E+01 -0.23840405918E+02 -0.36087588146E+02  0.47787274476E+02  0.20000015648E+02 0.  0.
         12    1    3    3    0    0  0.35977775689E+01  0.23840405918E+02  0.36087588146E+02  0.43400725524E+02  0.00000000000E+00 0. -1.
         11    1    4    4    0    0  0.54787503121E+01 -0.87476824088E+01 -0.76763445420E+01  0.12863316769E+02  0.51100000000E-03 0. -1.
        -11    1    4    4    0    0 -0.33287313201E+01 -0.39564848035E+01 -0.17404247329E+01  0.54555753787E+01  0.51100000000E-03 0.  1.
        -12    1    4    4    0    0 -0.57477965609E+01 -0.11136238706E+02 -0.26670818871E+02  0.29468382329E+02  0.00000000000E+00 0.  1.
</event>
<event>
 8    1  0.5542925E-011  0.9118800E+02  0.7816164E-02  0.1184000E+00
        -11   -1    0    0    0    0  0.00000000000E+00  0.00000000000E+00  0.45593999997E+02  0.45594000000E+02  0.51100000000E-03 0. -1.
         11   -1    0    0    0    0 -0.00000000000E+00 -0.00000000000E+00 -0.45593999997E+02  0.45594000000E+02  0.51100000000E-03 0.  1.
         23    2    1    2    0    0  0.35527136788E-14 -0.35527136788E-14  0.17763568394E-14  0.91188000000E+02  0.91188000000E+02 0.  0.
    9900012    2    3    3    0    0  0.29511685091E+02 -0.29803977310E+02  0.11153747203E+02  0.47787277689E+02  0.20000030296E+02 0.  0.
        -12    1    3    3    0    0 -0.29511685091E+02  0.29803977310E+02 -0.11153747203E+02  0.43400722311E+02  0.00000000000E+00 0.  1.
         11    1    4    4    0    0  0.12354639590E+02 -0.49710834746E+01  0.39134640721E+01  0.13880345515E+02  0.51100000000E-03 0. -1.
        -11    1    4    4    0    0  0.75687108309E+01 -0.45368386059E+01  0.73116394228E+01  0.11459858616E+02  0.51100000000E-03 0.  1.
         12    1    4    4    0    0  0.95883346706E+01 -0.20296055230E+02 -0.71356291899E-01  0.22447073559E+02  0.00000000000E+00 0. -1.
</event>
<event>
 8    1  0.5542925E-011  0.9118800E+02  0.7816164E-02  0.1184000E+00
        -11   -1    0    0    0    0  0.00000000000E+00  0.00000000000E+00  0.45593999997E+02  0.45594000000E+02  0.51100000000E-03 0. -1.
         11   -1    0    0    0    0 -0.00000000000E+00 -0.00000000000E+00 -0.45593999997E+02  0.45594000000E+02  0.51100000000E-03 0.  1.
         23    2    1    2    0    0  0.00000000000E+00  0.00000000000E+00  0.00000000000E+00  0.91188000000E+02  0.91188000000E+02 0.  0.
    9900012    2    3    3    0    0 -0.17856210799E+02  0.10511660499E+02  0.38135077775E+02  0.47787269275E+02  0.19999991932E+02 0.  0.
        -12    1    3    3    0    0  0.17856210799E+02 -0.10511660499E+02 -0.38135077775E+02  0.43400730725E+02  0.00000000000E+00 0.  1.
         11    1    4    4    0    0 -0.12127796143E+02  0.34454369735E+01  0.16797786786E+02  0.21002859720E+02  0.51100000000E-03 0.  1.
        -11    1    4    4    0    0 -0.99156370822E+01  0.51608769779E+01  0.17634788847E+02  0.20879183122E+02  0.51100000000E-03 0. -1.
        -12    1    4    4    0    0  0.41872224260E+01  0.19053465480E+01  0.37025021421E+01  0.59052264330E+01  0.00000000000E+00 0.  1.
</event>
<event>
 8    1  0.5542925E-011  0.9118800E+02  0.7816164E-02  0.1184000E+00
        -11   -1    0    0    0    0  0.00000000000E+00  0.00000000000E+00  0.45593999997E+02  0.45594000000E+02  0.51100000000E-03 0.  1.
         11   -1    0    0    0    0 -0.00000000000E+00 -0.00000000000E+00 -0.45593999997E+02  0.45594000000E+02  0.51100000000E-03 0. -1.
         23    2    1    2    0    0  0.71054273576E-14  0.00000000000E+00  0.27755575616E-15  0.91188000000E+02  0.91188000000E+02 0.  0.
    9900012    2    3    3    0    0 -0.41958073695E+02 -0.11090682405E+02  0.37472776509E+00  0.47787267226E+02  0.19999982590E+02 0.  0.
        -12    1    3    3    0    0  0.41958073695E+02  0.11090682405E+02 -0.37472776509E+00  0.43400732774E+02  0.00000000000E+00 0.  1.
         11    1    4    4    0    0 -0.36139491047E+02 -0.64914147759E+01  0.36430865896E+01  0.36898148451E+02  0.51100000000E-03 0. -1.
        -11    1    4    4    0    0 -0.74477708111E+01 -0.27929919838E+01 -0.24660378483E+01  0.83277510293E+01  0.51100000000E-03 0.  1.
        -12    1    4    4    0    0  0.16291881633E+01 -0.18062756455E+01 -0.80232097621E+00  0.25613677455E+01  0.00000000000E+00 0.  1.
</event>
<event>
 8    1  0.5542925E-011  0.9118800E+02  0.7816164E-02  0.1184000E+00
        -11   -1    0    0    0    0  0.00000000000E+00  0.00000000000E+00  0.45593999997E+02  0.45594000000E+02  0.51100000000E-03 0.  1.
         11   -1    0    0    0    0 -0.00000000000E+00 -0.00000000000E+00 -0.45593999997E+02  0.45594000000E+02  0.51100000000E-03 0. -1.
         23    2    1    2    0    0  0.00000000000E+00  0.00000000000E+00  0.00000000000E+00  0.91188000000E+02  0.91188000000E+02 0.  0.
    9900012    2    3    3    0    0  0.41562433089E+02  0.33594258655E+01 -0.12037512117E+02  0.47787270923E+02  0.19999999448E+02 0.  0.
        -12    1    3    3    0    0 -0.41562433089E+02 -0.33594258655E+01  0.12037512117E+02  0.43400729077E+02  0.00000000000E+00 0.  1.
         11    1    4    4    0    0  0.32613782739E+02  0.20201017531E+01 -0.10678398195E+02  0.34376850116E+02  0.51100000000E-03 0. -1.
        -11    1    4    4    0    0  0.10594747848E+02 -0.73989840543E+00 -0.53760632942E+00  0.10634150292E+02  0.51100000000E-03 0.  1.
        -12    1    4    4    0    0 -0.16460974976E+01  0.20792225178E+01 -0.82150759195E+00  0.27762705152E+01  0.00000000000E+00 0.  1.
</event>
<event>
 8    1  0.5542925E-011  0.9118800E+02  0.7816164E-02  0.1184000E+00
        -11   -1    0    0    0    0  0.00000000000E+00  0.00000000000E+00  0.45593999997E+02  0.45594000000E+02  0.51100000000E-03 0. -1.
         11   -1    0    0    0    0 -0.00000000000E+00 -0.00000000000E+00 -0.45593999997E+02  0.45594000000E+02  0.51100000000E-03 0.  1.
         23    2    1    2    0    0 -0.17763568394E-14  0.00000000000E+00  0.35527136788E-14  0.91188000000E+02  0.91188000000E+02 0.  0.
    9900012    2    3    3    0    0  0.88581049772E+01 -0.38555742481E+02 -0.17849703102E+02  0.47787271862E+02  0.20000003730E+02 0.  0.
         12    1    3    3    0    0 -0.88581049772E+01  0.38555742481E+02  0.17849703102E+02  0.43400728138E+02  0.00000000000E+00 0. -1.
         11    1    4    4    0    0  0.38532229210E+01 -0.69851701306E+01  0.17907704647E+01  0.81759884877E+01  0.51100000000E-03 0. -1.
        -11    1    4    4    0    0 -0.13813628499E+01 -0.46514295434E+00  0.97348571660E+00  0.17527680943E+01  0.51100000000E-03 0.  1.
        -12    1    4    4    0    0  0.63862449061E+01 -0.31105429396E+02 -0.20613959283E+02  0.37858515280E+02  0.00000000000E+00 0.  1.
</event>
<event>
 8    1  0.5542925E-011  0.9118800E+02  0.7816164E-02  0.1184000E+00
        -11   -1    0    0    0    0  0.00000000000E+00  0.00000000000E+00  0.45593999997E+02  0.45594000000E+02  0.51100000000E-03 0.  1.
         11   -1    0    0    0    0 -0.00000000000E+00 -0.00000000000E+00 -0.45593999997E+02  0.45594000000E+02  0.51100000000E-03 0. -1.
         23    2    1    2    0    0  0.00000000000E+00 -0.71054273576E-14  0.13322676296E-14  0.91188000000E+02  0.91188000000E+02 0.  0.
    9900012    2    3    3    0    0 -0.38421167883E+01  0.43208655559E+02  0.13687322747E+01  0.47787271841E+02  0.20000003634E+02 0.  0.
        -12    1    3    3    0    0  0.38421167883E+01 -0.43208655559E+02 -0.13687322747E+01  0.43400728159E+02  0.00000000000E+00 0.  1.
         11    1    4    4    0    0 -0.41229714119E+01  0.64616515185E+01 -0.39519973150E+01  0.86238110281E+01  0.51100000000E-03 0. -1.
        -11    1    4    4    0    0 -0.14435204300E+01  0.22017601117E+02 -0.28227314402E+01  0.22244692024E+02  0.51100000000E-03 0.  1.
        -12    1    4    4    0    0  0.17243750536E+01  0.14729402924E+02  0.81434610299E+01  0.16918768790E+02  0.00000000000E+00 0.  1.
</event>
<event>
 8    1  0.5542925E-011  0.9118800E+02  0.7816164E-02  0.1184000E+00
        -11   -1    0    0    0    0  0.00000000000E+00  0.00000000000E+00  0.45593999997E+02  0.45594000000E+02  0.51100000000E-03 0. -1.
         11   -1    0    0    0    0 -0.00000000000E+00 -0.00000000000E+00 -0.45593999997E+02  0.45594000000E+02  0.51100000000E-03 0.  1.
         23    2    1    2    0    0  0.00000000000E+00  0.00000000000E+00 -0.71054273576E-14  0.91188000000E+02  0.91188000000E+02 0.  0.
    9900012    2    3    3    0    0 -0.75535270084E+01 -0.28106180173E+02  0.32196431272E+02  0.47787270503E+02  0.19999997532E+02 0.  0.
        -12    1    3    3    0    0  0.75535270084E+01  0.28106180173E+02 -0.32196431272E+02  0.43400729497E+02  0.00000000000E+00 0.  1.
         11    1    4    4    0    0 -0.12650081195E+02 -0.12466295978E+02  0.12933461013E+02  0.21970605447E+02  0.51100000000E-03 0. -1.
        -11    1    4    4    0    0  0.79425567726E+00 -0.73394474684E-01  0.21169293936E+01  0.22622155397E+01  0.51100000000E-03 0.  1.
         12    1    4    4    0    0  0.43022985094E+01 -0.15566489720E+02  0.17146040865E+02  0.23554449517E+02  0.00000000000E+00 0. -1.
</event>
<event>
 8    1  0.5542925E-011  0.9118800E+02  0.7816164E-02  0.1184000E+00
        -11   -1    0    0    0    0  0.00000000000E+00  0.00000000000E+00  0.45593999997E+02  0.45594000000E+02  0.51100000000E-03 0. -1.
         11   -1    0    0    0    0 -0.00000000000E+00 -0.00000000000E+00 -0.45593999997E+02  0.45594000000E+02  0.51100000000E-03 0.  1.
         23    2    1    2    0    0  0.00000000000E+00 -0.44408920985E-15  0.71054273576E-14  0.91188000000E+02  0.91188000000E+02 0.  0.
    9900012    2    3    3    0    0  0.95577090165E+01  0.18594997204E+01 -0.42294392238E+02  0.47787272407E+02  0.20000006212E+02 0.  0.
         12    1    3    3    0    0 -0.95577090165E+01 -0.18594997204E+01  0.42294392238E+02  0.43400727593E+02  0.00000000000E+00 0. -1.
         11    1    4    4    0    0  0.15227040757E+01  0.65651153270E+01 -0.20161458596E+02  0.21258028600E+02  0.51100000000E-03 0. -1.
        -11    1    4    4    0    0 -0.26589748505E+00  0.40313552850E+00 -0.13500501307E+02  0.13509136002E+02  0.51100000000E-03 0.  1.
         12    1    4    4    0    0  0.83009024259E+01 -0.51087511351E+01 -0.86324323349E+01  0.13020107805E+02  0.00000000000E+00 0. -1.
</event>
<event>
 8    1  0.5542925E-011  0.9118800E+02  0.7816164E-02  0.1184000E+00
        -11   -1    0    0    0    0  0.00000000000E+00  0.00000000000E+00  0.45593999997E+02  0.45594000000E+02  0.51100000000E-03 0. -1.
         11   -1    0    0    0    0 -0.00000000000E+00 -0.00000000000E+00 -0.45593999997E+02  0.45594000000E+02  0.51100000000E-03 0.  1.
         23    2    1    2    0    0 -0.33306690739E-15  0.00000000000E+00  0.35527136788E-14  0.91188000000E+02  0.91188000000E+02 0.  0.
    9900012    2    3    3    0    0 -0.57730250851E+00 -0.30238287596E+02 -0.31127739915E+02  0.47787268357E+02  0.19999987746E+02 0.  0.
         12    1    3    3    0    0  0.57730250851E+00  0.30238287596E+02  0.31127739915E+02  0.43400731643E+02  0.00000000000E+00 0. -1.
         11    1    4    4    0    0 -0.94078810299E+00 -0.62265519742E+01 -0.68086785677E+00  0.63339255633E+01  0.51100000000E-03 0. -1.
        -11    1    4    4    0    0 -0.37735190076E+01 -0.16620496087E-01 -0.37434123711E+01  0.53153417936E+01  0.51100000000E-03 0.  1.
        -12    1    4    4    0    0  0.41370046021E+01 -0.23995115126E+02 -0.26703459687E+02  0.36138001000E+02  0.00000000000E+00 0.  1.
</event>
<event>
 8    1  0.5542925E-011  0.9118800E+02  0.7816164E-02  0.1184000E+00
        -11   -1    0    0    0    0  0.00000000000E+00  0.00000000000E+00  0.45593999997E+02  0.45594000000E+02  0.51100000000E-03 0. -1.
         11   -1    0    0    0    0 -0.00000000000E+00 -0.00000000000E+00 -0.45593999997E+02  0.45594000000E+02  0.51100000000E-03 0.  1.
         23    2    1    2    0    0  0.00000000000E+00  0.00000000000E+00  0.00000000000E+00  0.91188000000E+02  0.91188000000E+02 0.  0.
    9900012    2    3    3    0    0  0.21455468638E+02 -0.22008689755E+02  0.30641532056E+02  0.47787273671E+02  0.20000011975E+02 0.  0.
        -12    1    3    3    0    0 -0.21455468638E+02  0.22008689755E+02 -0.30641532056E+02  0.43400726329E+02  0.00000000000E+00 0.  1.
         11    1    4    4    0    0  0.60851179597E+01 -0.12343906472E+02  0.93868360775E+01  0.16658732826E+02  0.51100000000E-03 0. -1.
        -11    1    4    4    0    0  0.91075072716E+01 -0.83688967745E+01  0.44447743110E+01  0.13143102406E+02  0.51100000000E-03 0.  1.
        -12    1    4    4    0    0  0.62628434062E+01 -0.12958865084E+01  0.16809921667E+02  0.17985438439E+02  0.00000000000E+00 0.  1.
</event>
<event>
 8    1  0.5542925E-011  0.9118800E+02  0.7816164E-02  0.1184000E+00
        -11   -1    0    0    0    0  0.00000000000E+00  0.00000000000E+00  0.45593999997E+02  0.45594000000E+02  0.51100000000E-03 0. -1.
         11   -1    0    0    0    0 -0.00000000000E+00 -0.00000000000E+00 -0.45593999997E+02  0.45594000000E+02  0.51100000000E-03 0.  1.
         23    2    1    2    0    0  0.71054273576E-14  0.00000000000E+00  0.00000000000E+00  0.91188000000E+02  0.91188000000E+02 0.  0.
    9900012    2    3    3    0    0  0.34108733291E+02 -0.74720882604E+01  0.25775678206E+02  0.47787269860E+02  0.19999994601E+02 0.  0.
        -12    1    3    3    0    0 -0.34108733291E+02  0.74720882604E+01 -0.25775678206E+02  0.43400730140E+02  0.00000000000E+00 0.  1.
         11    1    4    4    0    0  0.33982757805E+02 -0.64824789970E+01  0.24705744935E+02  0.42511459573E+02  0.51100000000E-03 0. -1.
        -11    1    4    4    0    0  0.31550772384E+00 -0.15422771878E+01  0.29300119500E+01  0.33261290318E+01  0.51100000000E-03 0.  1.
        -12    1    4    4    0    0 -0.18953223728E+00  0.55266792442E+00 -0.18600786797E+01  0.19496812556E+01  0.00000000000E+00 0.  1.
</event>
<event>
 8    1  0.5542925E-011  0.9118800E+02  0.7816164E-02  0.1184000E+00
        -11   -1    0    0    0    0  0.00000000000E+00  0.00000000000E+00  0.45593999997E+02  0.45594000000E+02  0.51100000000E-03 0. -1.
         11   -1    0    0    0    0 -0.00000000000E+00 -0.00000000000E+00 -0.45593999997E+02  0.45594000000E+02  0.51100000000E-03 0.  1.
         23    2    1    2    0    0  0.00000000000E+00  0.00000000000E+00  0.00000000000E+00  0.91188000000E+02  0.91188000000E+02 0.  0.
    9900012    2    3    3    0    0 -0.12677971535E+02  0.22075960901E+02 -0.35150303238E+02  0.47787276162E+02  0.20000023333E+02 0.  0.
         12    1    3    3    0    0  0.12677971535E+02 -0.22075960901E+02  0.35150303238E+02  0.43400723838E+02  0.00000000000E+00 0. -1.
         11    1    4    4    0    0 -0.33624882876E+01  0.20074234708E+01  0.41897167894E+00  0.39384786408E+01  0.51100000000E-03 0. -1.
        -11    1    4    4    0    0 -0.83236027543E+01  0.38440068742E+01 -0.15662470070E+02  0.18148601065E+02  0.51100000000E-03 0.  1.
         12    1    4    4    0    0 -0.99188049321E+00  0.16224530556E+02 -0.19906804847E+02  0.25700196456E+02  0.00000000000E+00 0. -1.
</event>
<event>
 8    1  0.5542925E-011  0.9118800E+02  0.7816164E-02  0.1184000E+00
        -11   -1    0    0    0    0  0.00000000000E+00  0.00000000000E+00  0.45593999997E+02  0.45594000000E+02  0.51100000000E-03 0. -1.
         11   -1    0    0    0    0 -0.00000000000E+00 -0.00000000000E+00 -0.45593999997E+02  0.45594000000E+02  0.51100000000E-03 0.  1.
         23    2    1    2    0    0  0.35527136788E-14  0.00000000000E+00  0.00000000000E+00  0.91188000000E+02  0.91188000000E+02 0.  0.
    9900012    2    3    3    0    0  0.27893740053E+02 -0.18492961039E+02 -0.27632829485E+02  0.47787267201E+02  0.19999982478E+02 0.  0.
         12    1    3    3    0    0 -0.27893740053E+02  0.18492961039E+02  0.27632829485E+02  0.43400732799E+02  0.00000000000E+00 0. -1.
         11    1    4    4    0    0  0.41624937994E+01  0.22621377399E+01 -0.79351479102E+01  0.92417635980E+01  0.51100000000E-03 0. -1.
        -11    1    4    4    0    0  0.38799067173E+01 -0.34893368170E+00  0.53409011030E-01  0.38959316772E+01  0.51100000000E-03 0.  1.
        -12    1    4    4    0    0  0.19851339536E+02 -0.20406165097E+02 -0.19751090585E+02  0.34649571926E+02  0.00000000000E+00 0.  1.
</event>
<event>
 8    1  0.5542925E-011  0.9118800E+02  0.7816164E-02  0.1184000E+00
        -11   -1    0    0    0    0  0.00000000000E+00  0.00000000000E+00  0.45593999997E+02  0.45594000000E+02  0.51100000000E-03 0. -1.
         11   -1    0    0    0    0 -0.00000000000E+00 -0.00000000000E+00 -0.45593999997E+02  0.45594000000E+02  0.51100000000E-03 0.  1.
         23    2    1    2    0    0  0.00000000000E+00  0.00000000000E+00 -0.35527136788E-14  0.91188000000E+02  0.91188000000E+02 0.  0.
    9900012    2    3    3    0    0 -0.19689550540E+02 -0.25998018303E+02 -0.28636471758E+02  0.47787275686E+02  0.20000021164E+02 0.  0.
         12    1    3    3    0    0  0.19689550540E+02  0.25998018303E+02  0.28636471758E+02  0.43400724314E+02  0.00000000000E+00 0. -1.
         11    1    4    4    0    0  0.15978288330E+01 -0.87091027949E+01 -0.63415700558E+01  0.10891145004E+02  0.51100000000E-03 0. -1.
        -11    1    4    4    0    0 -0.81685561279E+01 -0.10026089495E+02 -0.46565106186E+01  0.13745212664E+02  0.51100000000E-03 0.  1.
         12    1    4    4    0    0 -0.13118823245E+02 -0.72628260133E+01 -0.17638391084E+02  0.23150918018E+02  0.00000000000E+00 0. -1.
</event>
<event>
 8    1  0.5542925E-011  0.9118800E+02  0.7816164E-02  0.1184000E+00
        -11   -1    0    0    0    0  0.00000000000E+00  0.00000000000E+00  0.45593999997E+02  0.45594000000E+02  0.51100000000E-03 0. -1.
         11   -1    0    0    0    0 -0.00000000000E+00 -0.00000000000E+00 -0.45593999997E+02  0.45594000000E+02  0.51100000000E-03 0.  1.
         23    2    1    2    0    0  0.35527136788E-14  0.00000000000E+00  0.00000000000E+00  0.91188000000E+02  0.91188000000E+02 0.  0.
    9900012    2    3    3    0    0  0.22287698255E+02  0.13566508951E+02 -0.34681858310E+02  0.47787274724E+02  0.20000016777E+02 0.  0.
         12    1    3    3    0    0 -0.22287698255E+02 -0.13566508951E+02  0.34681858310E+02  0.43400725276E+02  0.00000000000E+00 0. -1.
         11    1    4    4    0    0 -0.26677381822E+00 -0.13642296439E+01  0.34145331571E+00  0.14313914277E+01  0.51100000000E-03 0. -1.
        -11    1    4    4    0    0  0.47302359940E+01  0.47343523259E+01 -0.19492859470E+02  0.20609725740E+02  0.51100000000E-03 0.  1.
         12    1    4    4    0    0  0.17824236079E+02  0.10196386269E+02 -0.15530452157E+02  0.25746157557E+02  0.00000000000E+00 0. -1.
</event>
<event>
 8    1  0.5542925E-011  0.9118800E+02  0.7816164E-02  0.1184000E+00
        -11   -1    0    0    0    0  0.00000000000E+00  0.00000000000E+00  0.45593999997E+02  0.45594000000E+02  0.51100000000E-03 0. -1.
         11   -1    0    0    0    0 -0.00000000000E+00 -0.00000000000E+00 -0.45593999997E+02  0.45594000000E+02  0.51100000000E-03 0.  1.
         23    2    1    2    0    0  0.00000000000E+00 -0.13322676296E-14  0.35527136788E-14  0.91188000000E+02  0.91188000000E+02 0.  0.
    9900012    2    3    3    0    0 -0.35864138625E+02  0.26768610270E+01  0.24294467429E+02  0.47787272219E+02  0.20000005355E+02 0.  0.
        -12    1    3    3    0    0  0.35864138625E+02 -0.26768610270E+01 -0.24294467429E+02  0.43400727781E+02  0.00000000000E+00 0.  1.
         11    1    4    4    0    0 -0.20254545050E+02 -0.79871617650E+01  0.12508069967E+02  0.25109622913E+02  0.51100000000E-03 0. -1.
        -11    1    4    4    0    0 -0.80048406626E+01  0.30904658138E+01  0.43492591989E+01  0.96200056559E+01  0.51100000000E-03 0.  1.
         12    1    4    4    0    0 -0.76047529117E+01  0.75735569782E+01  0.74371382631E+01  0.13057643650E+02  0.00000000000E+00 0. -1.
</event>
<event>
 8    1  0.5542925E-011  0.9118800E+02  0.7816164E-02  0.1184000E+00
        -11   -1    0    0    0    0  0.00000000000E+00  0.00000000000E+00  0.45593999997E+02  0.45594000000E+02  0.51100000000E-03 0. -1.
         11   -1    0    0    0    0 -0.00000000000E+00 -0.00000000000E+00 -0.45593999997E+02  0.45594000000E+02  0.51100000000E-03 0.  1.
         23    2    1    2    0    0  0.00000000000E+00  0.00000000000E+00  0.00000000000E+00  0.91188000000E+02  0.91188000000E+02 0.  0.
    9900012    2    3    3    0    0  0.50910340414E+01 -0.53683247108E+01 -0.42765470691E+02  0.47787273955E+02  0.20000013272E+02 0.  0.
         12    1    3    3    0    0 -0.50910340414E+01  0.53683247108E+01  0.42765470691E+02  0.43400726045E+02  0.00000000000E+00 0. -1.
         11    1    4    4    0    0 -0.21118815343E+01 -0.55048367750E+01 -0.27870950896E+01  0.65215926608E+01  0.51100000000E-03 0. -1.
        -11    1    4    4    0    0  0.30376346103E+01 -0.35253957111E+01 -0.16754666227E+02  0.17388918298E+02  0.51100000000E-03 0.  1.
         12    1    4    4    0    0  0.41652809655E+01  0.36619077753E+01 -0.23223709374E+02  0.23876762996E+02  0.00000000000E+00 0. -1.
</event>
<event>
 8    1  0.5542925E-011  0.9118800E+02  0.7816164E-02  0.1184000E+00
        -11   -1    0    0    0    0  0.00000000000E+00  0.00000000000E+00  0.45593999997E+02  0.45594000000E+02  0.51100000000E-03 0. -1.
         11   -1    0    0    0    0 -0.00000000000E+00 -0.00000000000E+00 -0.45593999997E+02  0.45594000000E+02  0.51100000000E-03 0.  1.
         23    2    1    2    0    0  0.00000000000E+00  0.00000000000E+00  0.00000000000E+00  0.91188000000E+02  0.91188000000E+02 0.  0.
    9900012    2    3    3    0    0 -0.35597782881E+02  0.59983397082E+01 -0.24092342984E+02  0.47787271714E+02  0.20000003055E+02 0.  0.
         12    1    3    3    0    0  0.35597782881E+02 -0.59983397082E+01  0.24092342984E+02  0.43400728286E+02  0.00000000000E+00 0. -1.
         11    1    4    4    0    0 -0.79650481745E+01  0.30449085847E+01 -0.17268045189E+01  0.87003054440E+01  0.51100000000E-03 0. -1.
        -11    1    4    4    0    0 -0.24594621689E+02 -0.35390309179E+01 -0.18153993123E+02  0.30773163997E+02  0.51100000000E-03 0.  1.
         12    1    4    4    0    0 -0.30381130173E+01  0.64924620414E+01 -0.42115453423E+01  0.83138022731E+01  0.00000000000E+00 0. -1.
</event>
<event>
 8    1  0.5542925E-011  0.9118800E+02  0.7816164E-02  0.1184000E+00
        -11   -1    0    0    0    0  0.00000000000E+00  0.00000000000E+00  0.45593999997E+02  0.45594000000E+02  0.51100000000E-03 0. -1.
         11   -1    0    0    0    0 -0.00000000000E+00 -0.00000000000E+00 -0.45593999997E+02  0.45594000000E+02  0.51100000000E-03 0.  1.
         23    2    1    2    0    0  0.00000000000E+00  0.00000000000E+00  0.00000000000E+00  0.91188000000E+02  0.91188000000E+02 0.  0.
    9900012    2    3    3    0    0 -0.22707135960E+01 -0.18598239399E+02  0.39148087453E+02  0.47787269589E+02  0.19999993366E+02 0.  0.
        -12    1    3    3    0    0  0.22707135960E+01  0.18598239399E+02 -0.39148087453E+02  0.43400730411E+02  0.00000000000E+00 0.  1.
         11    1    4    4    0    0 -0.46403029540E-01 -0.61093245304E+01  0.57525179079E+01  0.83915113061E+01  0.51100000000E-03 0. -1.
        -11    1    4    4    0    0  0.33506952056E+01  0.10321245244E+01  0.69593292391E+00  0.35744597200E+01  0.51100000000E-03 0.  1.
         12    1    4    4    0    0 -0.55750057720E+01 -0.13521039393E+02  0.32699636621E+02  0.35821298563E+02  0.00000000000E+00 0. -1.
</event>
<event>
 8    1  0.5542925E-011  0.9118800E+02  0.7816164E-02  0.1184000E+00
        -11   -1    0    0    0    0  0.00000000000E+00  0.00000000000E+00  0.45593999997E+02  0.45594000000E+02  0.51100000000E-03 0. -1.
         11   -1    0    0    0    0 -0.00000000000E+00 -0.00000000000E+00 -0.45593999997E+02  0.45594000000E+02  0.51100000000E-03 0.  1.
         23    2    1    2    0    0 -0.35527136788E-14  0.00000000000E+00  0.00000000000E+00  0.91188000000E+02  0.91188000000E+02 0.  0.
    9900012    2    3    3    0    0  0.28768356869E+02 -0.14283235813E+02  0.29188938387E+02  0.47787270670E+02  0.19999998293E+02 0.  0.
        -12    1    3    3    0    0 -0.28768356869E+02  0.14283235813E+02 -0.29188938387E+02  0.43400729330E+02  0.00000000000E+00 0.  1.
         11    1    4    4    0    0  0.15272884699E+02 -0.82020217705E+01  0.13729406964E+02  0.22114040427E+02  0.51100000000E-03 0. -1.
        -11    1    4    4    0    0  0.12616378604E+02 -0.43920912072E+00  0.46592501899E+01  0.13456393511E+02  0.51100000000E-03 0.  1.
        -12    1    4    4    0    0  0.87909356593E+00 -0.56420049216E+01  0.10800281233E+02  0.12216836732E+02  0.00000000000E+00 0.  1.
</event>
<event>
 8    1  0.5542925E-011  0.9118800E+02  0.7816164E-02  0.1184000E+00
        -11   -1    0    0    0    0  0.00000000000E+00  0.00000000000E+00  0.45593999997E+02  0.45594000000E+02  0.51100000000E-03 0. -1.
         11   -1    0    0    0    0 -0.00000000000E+00 -0.00000000000E+00 -0.45593999997E+02  0.45594000000E+02  0.51100000000E-03 0.  1.
         23    2    1    2    0    0 -0.35527136788E-14  0.17763568394E-14  0.35527136788E-14  0.91188000000E+02  0.91188000000E+02 0.  0.
    9900012    2    3    3    0    0  0.25464687038E+02  0.15636611657E+02 -0.31474899849E+02  0.47787271543E+02  0.20000002273E+02 0.  0.
         12    1    3    3    0    0 -0.25464687038E+02 -0.15636611657E+02  0.31474899849E+02  0.43400728457E+02  0.00000000000E+00 0. -1.
         11    1    4    4    0    0  0.31649777770E+01  0.16204231577E+01 -0.74399152251E+01  0.82459198611E+01  0.51100000000E-03 0. -1.
        -11    1    4    4    0    0  0.19641796721E+02  0.17534799833E+02 -0.17347969446E+02  0.31531276976E+02  0.51100000000E-03 0.  1.
        -12    1    4    4    0    0  0.26579125408E+01 -0.35186113336E+01 -0.66870151783E+01  0.80100747055E+01  0.00000000000E+00 0.  1.
</event>
<event>
 8    1  0.5542925E-011  0.9118800E+02  0.7816164E-02  0.1184000E+00
        -11   -1    0    0    0    0  0.00000000000E+00  0.00000000000E+00  0.45593999997E+02  0.45594000000E+02  0.51100000000E-03 0. -1.
         11   -1    0    0    0    0 -0.00000000000E+00 -0.00000000000E+00 -0.45593999997E+02  0.45594000000E+02  0.51100000000E-03 0.  1.
         23    2    1    2    0    0 -0.88817841970E-15 -0.17763568394E-14  0.00000000000E+00  0.91188000000E+02  0.91188000000E+02 0.  0.
    9900012    2    3    3    0    0 -0.65968312951E+01 -0.15257082401E+02  0.40091478890E+02  0.47787269291E+02  0.19999992004E+02 0.  0.
        -12    1    3    3    0    0  0.65968312951E+01  0.15257082401E+02 -0.40091478890E+02  0.43400730709E+02  0.00000000000E+00 0.  1.
         11    1    4    4    0    0 -0.48136635498E+00 -0.97603656754E+01  0.98492547513E+01  0.13874590844E+02  0.51100000000E-03 0. -1.
        -11    1    4    4    0    0  0.22763956949E+01 -0.64666545700E+01  0.14802394478E+02  0.16312893098E+02  0.51100000000E-03 0.  1.
        -12    1    4    4    0    0 -0.83918606351E+01  0.96993784474E+00  0.15439829661E+02  0.17599785348E+02  0.00000000000E+00 0.  1.
</event>
<event>
 8    1  0.5542925E-011  0.9118800E+02  0.7816164E-02  0.1184000E+00
        -11   -1    0    0    0    0  0.00000000000E+00  0.00000000000E+00  0.45593999997E+02  0.45594000000E+02  0.51100000000E-03 0. -1.
         11   -1    0    0    0    0 -0.00000000000E+00 -0.00000000000E+00 -0.45593999997E+02  0.45594000000E+02  0.51100000000E-03 0.  1.
         23    2    1    2    0    0  0.17763568394E-14  0.00000000000E+00 -0.71054273576E-14  0.91188000000E+02  0.91188000000E+02 0.  0.
    9900012    2    3    3    0    0 -0.13770085195E+02  0.10613956035E+02  0.39766217659E+02  0.47787269869E+02  0.19999994643E+02 0.  0.
        -12    1    3    3    0    0  0.13770085195E+02 -0.10613956035E+02 -0.39766217659E+02  0.43400730131E+02  0.00000000000E+00 0.  1.
         11    1    4    4    0    0 -0.26616637413E+01 -0.19205828047E+01  0.21622666302E+02  0.21870363290E+02  0.51100000000E-03 0. -1.
        -11    1    4    4    0    0  0.49010835035E+00  0.26770854350E+01  0.54712846356E+01  0.61108058753E+01  0.51100000000E-03 0.  1.
         12    1    4    4    0    0 -0.11598529805E+02  0.98574534042E+01  0.12672266721E+02  0.19806100704E+02  0.00000000000E+00 0. -1.
</event>
<event>
 8    1  0.5542925E-011  0.9118800E+02  0.7816164E-02  0.1184000E+00
        -11   -1    0    0    0    0  0.00000000000E+00  0.00000000000E+00  0.45593999997E+02  0.45594000000E+02  0.51100000000E-03 0.  1.
         11   -1    0    0    0    0 -0.00000000000E+00 -0.00000000000E+00 -0.45593999997E+02  0.45594000000E+02  0.51100000000E-03 0. -1.
         23    2    1    2    0    0  0.00000000000E+00  0.00000000000E+00 -0.35527136788E-14  0.91188000000E+02  0.91188000000E+02 0.  0.
    9900012    2    3    3    0    0 -0.28665748671E+02 -0.12328532756E+02  0.30164625774E+02  0.47787279789E+02  0.20000039868E+02 0.  0.
        -12    1    3    3    0    0  0.28665748671E+02  0.12328532756E+02 -0.30164625774E+02  0.43400720211E+02  0.00000000000E+00 0.  1.
         11    1    4    4    0    0 -0.23380122068E+02 -0.16215718286E+02  0.26635617234E+02  0.38974808956E+02  0.51100000000E-03 0. -1.
        -11    1    4    4    0    0 -0.22639298922E+01 -0.48195372450E+00 -0.19813090971E+00  0.23231259259E+01  0.51100000000E-03 0.  1.
         12    1    4    4    0    0 -0.30216967103E+01  0.43691392549E+01  0.37271394507E+01  0.64893449070E+01  0.00000000000E+00 0. -1.
</event>
<event>
 8    1  0.5542925E-011  0.9118800E+02  0.7816164E-02  0.1184000E+00
        -11   -1    0    0    0    0  0.00000000000E+00  0.00000000000E+00  0.45593999997E+02  0.45594000000E+02  0.51100000000E-03 0. -1.
         11   -1    0    0    0    0 -0.00000000000E+00 -0.00000000000E+00 -0.45593999997E+02  0.45594000000E+02  0.51100000000E-03 0.  1.
         23    2    1    2    0    0  0.66613381478E-15  0.00000000000E+00  0.00000000000E+00  0.91188000000E+02  0.91188000000E+02 0.  0.
    9900012    2    3    3    0    0  0.19794362552E+01  0.16196825224E+02 -0.40216500124E+02  0.47787283446E+02  0.20000056543E+02 0.  0.
         12    1    3    3    0    0 -0.19794362552E+01 -0.16196825224E+02  0.40216500124E+02  0.43400716554E+02  0.00000000000E+00 0. -1.
         11    1    4    4    0    0  0.11274093106E+01  0.11384984978E+02 -0.15646336149E+02  0.19382898902E+02  0.51100000000E-03 0. -1.
        -11    1    4    4    0    0  0.61383174661E+01  0.62542213641E+01 -0.14619700940E+02  0.17044937137E+02  0.51100000000E-03 0.  1.
         12    1    4    4    0    0 -0.52862905214E+01 -0.14423811183E+01 -0.99504630353E+01  0.11359447407E+02  0.00000000000E+00 0. -1.
</event>
<event>
 8    1  0.5542925E-011  0.9118800E+02  0.7816164E-02  0.1184000E+00
        -11   -1    0    0    0    0  0.00000000000E+00  0.00000000000E+00  0.45593999997E+02  0.45594000000E+02  0.51100000000E-03 0. -1.
         11   -1    0    0    0    0 -0.00000000000E+00 -0.00000000000E+00 -0.45593999997E+02  0.45594000000E+02  0.51100000000E-03 0.  1.
         23    2    1    2    0    0  0.00000000000E+00  0.00000000000E+00  0.17763568394E-14  0.91188000000E+02  0.91188000000E+02 0.  0.
    9900012    2    3    3    0    0  0.17067290071E+02 -0.39295027691E+02 -0.69448996494E+01  0.47787271634E+02  0.20000002686E+02 0.  0.
        -12    1    3    3    0    0 -0.17067290071E+02  0.39295027691E+02  0.69448996494E+01  0.43400728366E+02  0.00000000000E+00 0.  1.
         11    1    4    4    0    0  0.13515827139E+02 -0.16030959908E+02 -0.36168087372E+01  0.21277936096E+02  0.51100000000E-03 0. -1.
        -11    1    4    4    0    0  0.46833054204E+00 -0.22528978501E+01 -0.46956769701E+01  0.52291743793E+01  0.51100000000E-03 0.  1.
         12    1    4    4    0    0  0.30831323901E+01 -0.21011169933E+02  0.13675860580E+01  0.21280161158E+02  0.00000000000E+00 0. -1.
</event>
<event>
 8    1  0.5542925E-011  0.9118800E+02  0.7816164E-02  0.1184000E+00
        -11   -1    0    0    0    0  0.00000000000E+00  0.00000000000E+00  0.45593999997E+02  0.45594000000E+02  0.51100000000E-03 0. -1.
         11   -1    0    0    0    0 -0.00000000000E+00 -0.00000000000E+00 -0.45593999997E+02  0.45594000000E+02  0.51100000000E-03 0.  1.
         23    2    1    2    0    0  0.00000000000E+00  0.00000000000E+00  0.00000000000E+00  0.91188000000E+02  0.91188000000E+02 0.  0.
    9900012    2    3    3    0    0  0.70248110662E+01  0.20115475275E+02 -0.37810618966E+02  0.47787271634E+02  0.20000002690E+02 0.  0.
         12    1    3    3    0    0 -0.70248110662E+01 -0.20115475275E+02  0.37810618966E+02  0.43400728366E+02  0.00000000000E+00 0. -1.
         11    1    4    4    0    0  0.23360676133E+00  0.63857781647E+01 -0.39318753651E+00  0.64021349242E+01  0.51100000000E-03 0. -1.
        -11    1    4    4    0    0 -0.82965185855E+00  0.76920107326E+01 -0.19889159015E+02  0.21340899650E+02  0.51100000000E-03 0.  1.
        -12    1    4    4    0    0  0.76208561635E+01  0.60376863777E+01 -0.17528272415E+02  0.20044237060E+02  0.00000000000E+00 0.  1.
</event>
<event>
 8    1  0.5542925E-011  0.9118800E+02  0.7816164E-02  0.1184000E+00
        -11   -1    0    0    0    0  0.00000000000E+00  0.00000000000E+00  0.45593999997E+02  0.45594000000E+02  0.51100000000E-03 0.  1.
         11   -1    0    0    0    0 -0.00000000000E+00 -0.00000000000E+00 -0.45593999997E+02  0.45594000000E+02  0.51100000000E-03 0. -1.
         23    2    1    2    0    0 -0.35527136788E-14  0.00000000000E+00  0.35527136788E-14  0.91188000000E+02  0.91188000000E+02 0.  0.
    9900012    2    3    3    0    0  0.30459771231E+02  0.16820496177E+02 -0.25940239012E+02  0.47787277021E+02  0.20000027249E+02 0.  0.
         12    1    3    3    0    0 -0.30459771231E+02 -0.16820496177E+02  0.25940239012E+02  0.43400722979E+02  0.00000000000E+00 0. -1.
         11    1    4    4    0    0  0.11391342271E+01  0.18843420736E+01  0.31810094696E+00  0.22247607312E+01  0.51100000000E-03 0. -1.
        -11    1    4    4    0    0  0.29224075179E+02  0.11393187414E+02 -0.27592385784E+02  0.41775483756E+02  0.51100000000E-03 0.  1.
        -12    1    4    4    0    0  0.96561825154E-01  0.35429666896E+01  0.13340458247E+01  0.37870325338E+01  0.00000000000E+00 0.  1.
</event>
<event>
 8    1  0.5542925E-011  0.9118800E+02  0.7816164E-02  0.1184000E+00
        -11   -1    0    0    0    0  0.00000000000E+00  0.00000000000E+00  0.45593999997E+02  0.45594000000E+02  0.51100000000E-03 0. -1.
         11   -1    0    0    0    0 -0.00000000000E+00 -0.00000000000E+00 -0.45593999997E+02  0.45594000000E+02  0.51100000000E-03 0.  1.
         23    2    1    2    0    0  0.35527136788E-14 -0.71054273576E-14  0.00000000000E+00  0.91188000000E+02  0.91188000000E+02 0.  0.
    9900012    2    3    3    0    0 -0.30542607933E+02  0.28744239119E+02 -0.11159786225E+02  0.47787274079E+02  0.20000013837E+02 0.  0.
         12    1    3    3    0    0  0.30542607933E+02 -0.28744239119E+02  0.11159786225E+02  0.43400725921E+02  0.00000000000E+00 0. -1.
         11    1    4    4    0    0 -0.12297778391E+02  0.89091164593E+01 -0.11041452543E+02  0.18775552827E+02  0.51100000000E-03 0. -1.
        -11    1    4    4    0    0 -0.88722781493E+01  0.14256450599E+02 -0.42947609198E+01  0.17332301488E+02  0.51100000000E-03 0.  1.
         12    1    4    4    0    0 -0.93725513930E+01  0.55786720602E+01  0.41764272375E+01  0.11679419765E+02  0.00000000000E+00 0. -1.
</event>
<event>
 8    1  0.5542925E-011  0.9118800E+02  0.7816164E-02  0.1184000E+00
        -11   -1    0    0    0    0  0.00000000000E+00  0.00000000000E+00  0.45593999997E+02  0.45594000000E+02  0.51100000000E-03 0. -1.
         11   -1    0    0    0    0 -0.00000000000E+00 -0.00000000000E+00 -0.45593999997E+02  0.45594000000E+02  0.51100000000E-03 0.  1.
         23    2    1    2    0    0 -0.66613381478E-15  0.00000000000E+00  0.00000000000E+00  0.91188000000E+02  0.91188000000E+02 0.  0.
    9900012    2    3    3    0    0  0.19815951427E+01 -0.43723303811E+01 -0.43134433971E+02  0.47787269750E+02  0.19999994098E+02 0.  0.
         12    1    3    3    0    0 -0.19815951427E+01  0.43723303811E+01  0.43134433971E+02  0.43400730250E+02  0.00000000000E+00 0. -1.
         11    1    4    4    0    0  0.40274765982E+01 -0.36985504411E+01 -0.12951919413E+02  0.14058878328E+02  0.51100000000E-03 0. -1.
        -11    1    4    4    0    0  0.53908417325E+01 -0.41132030111E+01 -0.15405942256E+02  0.16832191499E+02  0.51100000000E-03 0.  1.
         12    1    4    4    0    0 -0.74367231881E+01  0.34394230712E+01 -0.14776572301E+02  0.16896199922E+02  0.00000000000E+00 0. -1.
</event>
<event>
 8    1  0.5542925E-011  0.9118800E+02  0.7816164E-02  0.1184000E+00
        -11   -1    0    0    0    0  0.00000000000E+00  0.00000000000E+00  0.45593999997E+02  0.45594000000E+02  0.51100000000E-03 0. -1.
         11   -1    0    0    0    0 -0.00000000000E+00 -0.00000000000E+00 -0.45593999997E+02  0.45594000000E+02  0.51100000000E-03 0.  1.
         23    2    1    2    0    0  0.00000000000E+00  0.71054273576E-14  0.00000000000E+00  0.91188000000E+02  0.91188000000E+02 0.  0.
    9900012    2    3    3    0    0 -0.20514283951E+02  0.33708882072E+02 -0.18069281964E+02  0.47787268125E+02  0.19999986691E+02 0.  0.
         12    1    3    3    0    0  0.20514283951E+02 -0.33708882072E+02  0.18069281964E+02  0.43400731875E+02  0.00000000000E+00 0. -1.
         11    1    4    4    0    0  0.24209534985E+00  0.25148191341E+01  0.25597469368E+01  0.35965580876E+01  0.51100000000E-03 0. -1.
        -11    1    4    4    0    0 -0.86848861698E+01  0.45919168657E+01 -0.43013406051E+01  0.10724480386E+02  0.51100000000E-03 0.  1.
        -12    1    4    4    0    0 -0.12071493131E+02  0.26602146072E+02 -0.16327688296E+02  0.33466229652E+02  0.00000000000E+00 0.  1.
</event>
<event>
 8    1  0.5542925E-011  0.9118800E+02  0.7816164E-02  0.1184000E+00
        -11   -1    0    0    0    0  0.00000000000E+00  0.00000000000E+00  0.45593999997E+02  0.45594000000E+02  0.51100000000E-03 0.  1.
         11   -1    0    0    0    0 -0.00000000000E+00 -0.00000000000E+00 -0.45593999997E+02  0.45594000000E+02  0.51100000000E-03 0. -1.
         23    2    1    2    0    0  0.00000000000E+00  0.00000000000E+00  0.22204460493E-15  0.91188000000E+02  0.91188000000E+02 0.  0.
    9900012    2    3    3    0    0 -0.39252245459E+02  0.18465727761E+02 -0.13788762671E+01  0.47787272183E+02  0.20000005191E+02 0.  0.
         12    1    3    3    0    0  0.39252245459E+02 -0.18465727761E+02  0.13788762671E+01  0.43400727817E+02  0.00000000000E+00 0. -1.
         11    1    4    4    0    0 -0.98658961107E+01  0.79209813591E+01 -0.64698554950E+01  0.14210449752E+02  0.51100000000E-03 0. -1.
        -11    1    4    4    0    0 -0.16146046905E+02  0.36361687550E+01 -0.26407180550E+01  0.16759771657E+02  0.51100000000E-03 0.  1.
        -12    1    4    4    0    0 -0.13240302443E+02  0.69085776471E+01  0.77316972829E+01  0.16817050774E+02  0.00000000000E+00 0.  1.
</event>
<event>
 8    1  0.5542925E-011  0.9118800E+02  0.7816164E-02  0.1184000E+00
        -11   -1    0    0    0    0  0.00000000000E+00  0.00000000000E+00  0.45593999997E+02  0.45594000000E+02  0.51100000000E-03 0. -1.
         11   -1    0    0    0    0 -0.00000000000E+00 -0.00000000000E+00 -0.45593999997E+02  0.45594000000E+02  0.51100000000E-03 0.  1.
         23    2    1    2    0    0  0.00000000000E+00  0.00000000000E+00  0.00000000000E+00  0.91188000000E+02  0.91188000000E+02 0.  0.
    9900012    2    3    3    0    0  0.55543336455E+00  0.12007174848E+02 -0.41703032678E+02  0.47787266267E+02  0.19999978216E+02 0.  0.
         12    1    3    3    0    0 -0.55543336455E+00 -0.12007174848E+02  0.41703032678E+02  0.43400733733E+02  0.00000000000E+00 0. -1.
         11    1    4    4    0    0  0.19936592150E+01  0.65474184452E+01 -0.74217432547E+01  0.10095822827E+02  0.51100000000E-03 0. -1.
        -11    1    4    4    0    0  0.42080442313E+00  0.52054915411E+01 -0.23871968612E+01  0.57422058185E+01  0.51100000000E-03 0.  1.
        -12    1    4    4    0    0 -0.18590302736E+01  0.25426486193E+00 -0.31894092562E+02  0.31949237621E+02  0.00000000000E+00 0.  1.
</event>
<event>
 8    1  0.5542925E-011  0.9118800E+02  0.7816164E-02  0.1184000E+00
        -11   -1    0    0    0    0  0.00000000000E+00  0.00000000000E+00  0.45593999997E+02  0.45594000000E+02  0.51100000000E-03 0. -1.
         11   -1    0    0    0    0 -0.00000000000E+00 -0.00000000000E+00 -0.45593999997E+02  0.45594000000E+02  0.51100000000E-03 0.  1.
         23    2    1    2    0    0  0.00000000000E+00  0.17763568394E-14  0.00000000000E+00  0.91188000000E+02  0.91188000000E+02 0.  0.
    9900012    2    3    3    0    0  0.39487476267E+02  0.13321369353E+02  0.12120375559E+02  0.47787272275E+02  0.20000005610E+02 0.  0.
        -12    1    3    3    0    0 -0.39487476267E+02 -0.13321369353E+02 -0.12120375559E+02  0.43400727725E+02  0.00000000000E+00 0.  1.
         11    1    4    4    0    0  0.19595329176E-01  0.76858264013E+00  0.22683373253E+01  0.23950903395E+01  0.51100000000E-03 0. -1.
        -11    1    4    4    0    0  0.12201828429E+02  0.10524601991E+02  0.79942122785E+01  0.17987754009E+02  0.51100000000E-03 0.  1.
         12    1    4    4    0    0  0.27266052509E+02  0.20281847213E+01  0.18578259555E+01  0.27404427926E+02  0.00000000000E+00 0. -1.
</event>
<event>
 8    1  0.5542925E-011  0.9118800E+02  0.7816164E-02  0.1184000E+00
        -11   -1    0    0    0    0  0.00000000000E+00  0.00000000000E+00  0.45593999997E+02  0.45594000000E+02  0.51100000000E-03 0. -1.
         11   -1    0    0    0    0 -0.00000000000E+00 -0.00000000000E+00 -0.45593999997E+02  0.45594000000E+02  0.51100000000E-03 0.  1.
         23    2    1    2    0    0  0.44408920985E-15  0.17763568394E-14 -0.71054273576E-14  0.91188000000E+02  0.91188000000E+02 0.  0.
    9900012    2    3    3    0    0  0.20797311913E+01  0.15121066140E+02 -0.40628216298E+02  0.47787264031E+02  0.19999968024E+02 0.  0.
         12    1    3    3    0    0 -0.20797311913E+01 -0.15121066140E+02  0.40628216298E+02  0.43400735969E+02  0.00000000000E+00 0. -1.
         11    1    4    4    0    0  0.97802368647E+01  0.94948488262E+01 -0.15613102985E+02  0.20726171196E+02  0.51100000000E-03 0. -1.
        -11    1    4    4    0    0 -0.22271719168E+01  0.15741955580E+01 -0.31836409890E+01  0.41921303188E+01  0.51100000000E-03 0.  1.
         12    1    4    4    0    0 -0.54733337566E+01  0.40520217559E+01 -0.21831472325E+02  0.22868962517E+02  0.00000000000E+00 0. -1.
</event>
<event>
 8    1  0.5542925E-011  0.9118800E+02  0.7816164E-02  0.1184000E+00
        -11   -1    0    0    0    0  0.00000000000E+00  0.00000000000E+00  0.45593999997E+02  0.45594000000E+02  0.51100000000E-03 0.  1.
         11   -1    0    0    0    0 -0.00000000000E+00 -0.00000000000E+00 -0.45593999997E+02  0.45594000000E+02  0.51100000000E-03 0. -1.
         23    2    1    2    0    0 -0.35527136788E-14  0.00000000000E+00  0.00000000000E+00  0.91188000000E+02  0.91188000000E+02 0.  0.
    9900012    2    3    3    0    0  0.21290266763E+02 -0.32334992080E+02 -0.19616236860E+02  0.47787263598E+02  0.19999966050E+02 0.  0.
        -12    1    3    3    0    0 -0.21290266763E+02  0.32334992080E+02  0.19616236860E+02  0.43400736402E+02  0.00000000000E+00 0.  1.
         11    1    4    4    0    0 -0.17025476131E+01 -0.27134324216E+01 -0.79487131268E+00  0.33004855016E+01  0.51100000000E-03 0. -1.
        -11    1    4    4    0    0  0.15394524705E+02 -0.23575082777E+02 -0.66763194497E+01  0.28936986030E+02  0.51100000000E-03 0.  1.
         12    1    4    4    0    0  0.75982896707E+01 -0.60464768818E+01 -0.12145046098E+02  0.15549792067E+02  0.00000000000E+00 0. -1.
</event>
<event>
 8    1  0.5542925E-011  0.9118800E+02  0.7816164E-02  0.1184000E+00
        -11   -1    0    0    0    0  0.00000000000E+00  0.00000000000E+00  0.45593999997E+02  0.45594000000E+02  0.51100000000E-03 0. -1.
         11   -1    0    0    0    0 -0.00000000000E+00 -0.00000000000E+00 -0.45593999997E+02  0.45594000000E+02  0.51100000000E-03 0.  1.
         23    2    1    2    0    0 -0.17763568394E-14 -0.17763568394E-14  0.00000000000E+00  0.91188000000E+02  0.91188000000E+02 0.  0.
    9900012    2    3    3    0    0  0.13886146340E+02  0.11004675576E+02  0.39619383938E+02  0.47787268113E+02  0.19999986633E+02 0.  0.
        -12    1    3    3    0    0 -0.13886146340E+02 -0.11004675576E+02 -0.39619383938E+02  0.43400731887E+02  0.00000000000E+00 0.  1.
         11    1    4    4    0    0  0.15659982382E+00 -0.12566797161E+01  0.95482958983E+00  0.15860224527E+01  0.51100000000E-03 0. -1.
        -11    1    4    4    0    0 -0.52287891517E-01  0.12621943269E+01 -0.17205464129E+01  0.21345137064E+01  0.51100000000E-03 0.  1.
         12    1    4    4    0    0  0.13781834408E+02  0.10999160965E+02  0.40385100761E+02  0.44066731954E+02  0.00000000000E+00 0. -1.
</event>
<event>
 8    1  0.5542925E-011  0.9118800E+02  0.7816164E-02  0.1184000E+00
        -11   -1    0    0    0    0  0.00000000000E+00  0.00000000000E+00  0.45593999997E+02  0.45594000000E+02  0.51100000000E-03 0. -1.
         11   -1    0    0    0    0 -0.00000000000E+00 -0.00000000000E+00 -0.45593999997E+02  0.45594000000E+02  0.51100000000E-03 0.  1.
         23    2    1    2    0    0  0.00000000000E+00  0.71054273576E-14 -0.71054273576E-14  0.91188000000E+02  0.91188000000E+02 0.  0.
    9900012    2    3    3    0    0  0.10104833071E+02 -0.33564021243E+02  0.25592426243E+02  0.47787268965E+02  0.19999990518E+02 0.  0.
        -12    1    3    3    0    0 -0.10104833071E+02  0.33564021243E+02 -0.25592426243E+02  0.43400731035E+02  0.00000000000E+00 0.  1.
         11    1    4    4    0    0  0.43662130260E+01 -0.15118330734E+02  0.11322383277E+02  0.19386183320E+02  0.51100000000E-03 0. -1.
        -11    1    4    4    0    0 -0.31512850241E+01 -0.13907805575E+02  0.10592696505E+02  0.17764089415E+02  0.51100000000E-03 0.  1.
         12    1    4    4    0    0  0.88899050692E+01 -0.45378849328E+01  0.36773464609E+01  0.10636996230E+02  0.00000000000E+00 0. -1.
</event>
<event>
 8    1  0.5542925E-011  0.9118800E+02  0.7816164E-02  0.1184000E+00
        -11   -1    0    0    0    0  0.00000000000E+00  0.00000000000E+00  0.45593999997E+02  0.45594000000E+02  0.51100000000E-03 0. -1.
         11   -1    0    0    0    0 -0.00000000000E+00 -0.00000000000E+00 -0.45593999997E+02  0.45594000000E+02  0.51100000000E-03 0.  1.
         23    2    1    2    0    0  0.00000000000E+00  0.35527136788E-14  0.00000000000E+00  0.91188000000E+02  0.91188000000E+02 0.  0.
    9900012    2    3    3    0    0 -0.37500047884E+02 -0.14777955567E+02  0.16092879620E+02  0.47787281844E+02  0.20000049238E+02 0.  0.
        -12    1    3    3    0    0  0.37500047884E+02  0.14777955567E+02 -0.16092879620E+02  0.43400718156E+02  0.00000000000E+00 0.  1.
         11    1    4    4    0    0 -0.71510124590E+01 -0.92773182679E+01  0.10119939436E+02  0.15479624927E+02  0.51100000000E-03 0. -1.
        -11    1    4    4    0    0 -0.57550600468E+01  0.85968463147E+00 -0.11356513305E+01  0.59286995212E+01  0.51100000000E-03 0.  1.
        -12    1    4    4    0    0 -0.24593975378E+02 -0.63603219306E+01  0.71085915145E+01  0.26378957396E+02  0.00000000000E+00 0.  1.
</event>
<event>
 8    1  0.5542925E-011  0.9118800E+02  0.7816164E-02  0.1184000E+00
        -11   -1    0    0    0    0  0.00000000000E+00  0.00000000000E+00  0.45593999997E+02  0.45594000000E+02  0.51100000000E-03 0. -1.
         11   -1    0    0    0    0 -0.00000000000E+00 -0.00000000000E+00 -0.45593999997E+02  0.45594000000E+02  0.51100000000E-03 0.  1.
         23    2    1    2    0    0  0.17763568394E-14 -0.71054273576E-14  0.00000000000E+00  0.91188000000E+02  0.91188000000E+02 0.  0.
    9900012    2    3    3    0    0 -0.55717763521E+01  0.33281554734E+02 -0.27293165192E+02  0.47787269091E+02  0.19999991095E+02 0.  0.
         12    1    3    3    0    0  0.55717763521E+01 -0.33281554734E+02  0.27293165192E+02  0.43400730909E+02  0.00000000000E+00 0. -1.
         11    1    4    4    0    0 -0.63230606048E+01  0.16335758092E+02 -0.11888851618E+02  0.21170330204E+02  0.51100000000E-03 0. -1.
        -11    1    4    4    0    0 -0.41851038243E+01  0.94007707924E+01 -0.14176251880E+02  0.17517297256E+02  0.51100000000E-03 0.  1.
         12    1    4    4    0    0  0.49363880770E+01  0.75450258493E+01 -0.12280616929E+01  0.90996416322E+01  0.00000000000E+00 0. -1.
</event>
<event>
 8    1  0.5542925E-011  0.9118800E+02  0.7816164E-02  0.1184000E+00
        -11   -1    0    0    0    0  0.00000000000E+00  0.00000000000E+00  0.45593999997E+02  0.45594000000E+02  0.51100000000E-03 0. -1.
         11   -1    0    0    0    0 -0.00000000000E+00 -0.00000000000E+00 -0.45593999997E+02  0.45594000000E+02  0.51100000000E-03 0.  1.
         23    2    1    2    0    0  0.00000000000E+00  0.88817841970E-15  0.00000000000E+00  0.91188000000E+02  0.91188000000E+02 0.  0.
    9900012    2    3    3    0    0  0.15110632373E+02 -0.43676073987E+01 -0.40450166211E+02  0.47787272453E+02  0.20000006422E+02 0.  0.
         12    1    3    3    0    0 -0.15110632373E+02  0.43676073987E+01  0.40450166211E+02  0.43400727547E+02  0.00000000000E+00 0. -1.
         11    1    4    4    0    0 -0.10421028601E+01 -0.34234441123E+00 -0.47243573934E+01  0.48500238256E+01  0.51100000000E-03 0. -1.
        -11    1    4    4    0    0  0.86825787760E+01 -0.10601479403E+02 -0.18189116044E+02  0.22773284402E+02  0.51100000000E-03 0.  1.
        -12    1    4    4    0    0  0.74701564573E+01  0.65762164156E+01 -0.17536692774E+02  0.20163964226E+02  0.00000000000E+00 0.  1.
</event>
<event>
 8    1  0.5542925E-011  0.9118800E+02  0.7816164E-02  0.1184000E+00
        -11   -1    0    0    0    0  0.00000000000E+00  0.00000000000E+00  0.45593999997E+02  0.45594000000E+02  0.51100000000E-03 0. -1.
         11   -1    0    0    0    0 -0.00000000000E+00 -0.00000000000E+00 -0.45593999997E+02  0.45594000000E+02  0.51100000000E-03 0.  1.
         23    2    1    2    0    0  0.00000000000E+00 -0.35527136788E-14  0.71054273576E-14  0.91188000000E+02  0.91188000000E+02 0.  0.
    9900012    2    3    3    0    0 -0.10937797070E+02  0.21127878621E+02  0.36298772395E+02  0.47787268011E+02  0.19999986171E+02 0.  0.
        -12    1    3    3    0    0  0.10937797070E+02 -0.21127878621E+02 -0.36298772395E+02  0.43400731989E+02  0.00000000000E+00 0.  1.
         11    1    4    4    0    0 -0.42880921867E+01  0.10463235613E+02  0.25441740667E+02  0.27841501441E+02  0.51100000000E-03 0. -1.
        -11    1    4    4    0    0 -0.90569358341E+01  0.93440363814E+01  0.59194399134E+01  0.14296113869E+02  0.51100000000E-03 0.  1.
         12    1    4    4    0    0  0.24072309510E+01  0.13206066270E+01  0.49375918150E+01  0.56496527014E+01  0.00000000000E+00 0. -1.
</event>
<event>
 8    1  0.5542925E-011  0.9118800E+02  0.7816164E-02  0.1184000E+00
        -11   -1    0    0    0    0  0.00000000000E+00  0.00000000000E+00  0.45593999997E+02  0.45594000000E+02  0.51100000000E-03 0. -1.
         11   -1    0    0    0    0 -0.00000000000E+00 -0.00000000000E+00 -0.45593999997E+02  0.45594000000E+02  0.51100000000E-03 0.  1.
         23    2    1    2    0    0  0.00000000000E+00  0.71054273576E-14  0.00000000000E+00  0.91188000000E+02  0.91188000000E+02 0.  0.
    9900012    2    3    3    0    0 -0.17808897874E+02  0.39167756588E+02 -0.56879889751E+01  0.47787271686E+02  0.20000002924E+02 0.  0.
         12    1    3    3    0    0  0.17808897874E+02 -0.39167756588E+02  0.56879889751E+01  0.43400728314E+02  0.00000000000E+00 0. -1.
         11    1    4    4    0    0 -0.46526517921E+00  0.35551453953E+01 -0.12758794727E+01  0.38057061315E+01  0.51100000000E-03 0. -1.
        -11    1    4    4    0    0 -0.83312406842E+01  0.30443490164E+02  0.22442920670E+01  0.31642574355E+02  0.51100000000E-03 0.  1.
         12    1    4    4    0    0 -0.90123920103E+01  0.51691210292E+01 -0.66564015693E+01  0.12338991199E+02  0.00000000000E+00 0. -1.
</event>
<event>
 8    1  0.5542925E-011  0.9118800E+02  0.7816164E-02  0.1184000E+00
        -11   -1    0    0    0    0  0.00000000000E+00  0.00000000000E+00  0.45593999997E+02  0.45594000000E+02  0.51100000000E-03 0. -1.
         11   -1    0    0    0    0 -0.00000000000E+00 -0.00000000000E+00 -0.45593999997E+02  0.45594000000E+02  0.51100000000E-03 0.  1.
         23    2    1    2    0    0  0.00000000000E+00  0.88817841970E-15  0.71054273576E-14  0.91188000000E+02  0.91188000000E+02 0.  0.
    9900012    2    3    3    0    0 -0.26977573361E+02  0.43091400105E+01  0.33723373197E+02  0.47787262082E+02  0.19999959135E+02 0.  0.
        -12    1    3    3    0    0  0.26977573361E+02 -0.43091400105E+01 -0.33723373197E+02  0.43400737918E+02  0.00000000000E+00 0.  1.
         11    1    4    4    0    0 -0.39902468077E+01 -0.53391818670E-01  0.79687291519E+01  0.89121021555E+01  0.51100000000E-03 0. -1.
        -11    1    4    4    0    0 -0.80355921967E+01  0.98981922166E+01  0.81884940601E+01  0.15152438297E+02  0.51100000000E-03 0.  1.
        -12    1    4    4    0    0 -0.14951734357E+02 -0.55356603875E+01  0.17566149985E+02  0.23722721629E+02  0.00000000000E+00 0.  1.
</event>
<event>
 8    1  0.5542925E-011  0.9118800E+02  0.7816164E-02  0.1184000E+00
        -11   -1    0    0    0    0  0.00000000000E+00  0.00000000000E+00  0.45593999997E+02  0.45594000000E+02  0.51100000000E-03 0. -1.
         11   -1    0    0    0    0 -0.00000000000E+00 -0.00000000000E+00 -0.45593999997E+02  0.45594000000E+02  0.51100000000E-03 0.  1.
         23    2    1    2    0    0  0.00000000000E+00  0.00000000000E+00  0.00000000000E+00  0.91188000000E+02  0.91188000000E+02 0.  0.
    9900012    2    3    3    0    0 -0.15525005575E+02 -0.10229172934E+02 -0.39216853502E+02  0.47787269872E+02  0.19999994656E+02 0.  0.
         12    1    3    3    0    0  0.15525005575E+02  0.10229172934E+02  0.39216853502E+02  0.43400730128E+02  0.00000000000E+00 0. -1.
         11    1    4    4    0    0  0.10957411466E+01 -0.14979978681E+01 -0.14211845944E+02  0.14332522865E+02  0.51100000000E-03 0. -1.
        -11    1    4    4    0    0  0.89928240126E-01 -0.32101084239E+01 -0.44784170350E+00  0.32424443918E+01  0.51100000000E-03 0.  1.
        -12    1    4    4    0    0 -0.16710674962E+02 -0.55210666424E+01 -0.24557165855E+02  0.30212302616E+02  0.00000000000E+00 0.  1.
</event>
<event>
 8    1  0.5542925E-011  0.9118800E+02  0.7816164E-02  0.1184000E+00
        -11   -1    0    0    0    0  0.00000000000E+00  0.00000000000E+00  0.45593999997E+02  0.45594000000E+02  0.51100000000E-03 0. -1.
         11   -1    0    0    0    0 -0.00000000000E+00 -0.00000000000E+00 -0.45593999997E+02  0.45594000000E+02  0.51100000000E-03 0.  1.
         23    2    1    2    0    0  0.00000000000E+00  0.00000000000E+00  0.35527136788E-14  0.91188000000E+02  0.91188000000E+02 0.  0.
    9900012    2    3    3    0    0  0.31186101656E+02 -0.20798055756E+02 -0.21874457176E+02  0.47787263410E+02  0.19999965193E+02 0.  0.
         12    1    3    3    0    0 -0.31186101656E+02  0.20798055756E+02  0.21874457176E+02  0.43400736590E+02  0.00000000000E+00 0. -1.
         11    1    4    4    0    0  0.88365561725E+01 -0.17198574417E+01  0.19646966614E+01  0.92142643679E+01  0.51100000000E-03 0. -1.
        -11    1    4    4    0    0  0.12088846902E+02 -0.80968645021E+01 -0.74861747344E+01  0.16362831253E+02  0.51100000000E-03 0.  1.
         12    1    4    4    0    0  0.10260698582E+02 -0.10981333813E+02 -0.16352979103E+02  0.22210167790E+02  0.00000000000E+00 0. -1.
</event>
<event>
 8    1  0.5542925E-011  0.9118800E+02  0.7816164E-02  0.1184000E+00
        -11   -1    0    0    0    0  0.00000000000E+00  0.00000000000E+00  0.45593999997E+02  0.45594000000E+02  0.51100000000E-03 0.  1.
         11   -1    0    0    0    0 -0.00000000000E+00 -0.00000000000E+00 -0.45593999997E+02  0.45594000000E+02  0.51100000000E-03 0. -1.
         23    2    1    2    0    0  0.88817841970E-15  0.00000000000E+00 -0.17763568394E-14  0.91188000000E+02  0.91188000000E+02 0.  0.
    9900012    2    3    3    0    0 -0.37539339100E+01 -0.41010216521E+02 -0.13700111763E+02  0.47787274877E+02  0.20000017472E+02 0.  0.
        -12    1    3    3    0    0  0.37539339100E+01  0.41010216521E+02  0.13700111763E+02  0.43400725123E+02  0.00000000000E+00 0.  1.
         11    1    4    4    0    0 -0.67071299955E+01 -0.15461008230E+02 -0.11918043471E+02  0.20641417798E+02  0.51100000000E-03 0.  1.
        -11    1    4    4    0    0  0.11980999588E+01 -0.46181624105E+01  0.29573881534E+01  0.56132889211E+01  0.51100000000E-03 0. -1.
        -12    1    4    4    0    0  0.17550961267E+01 -0.20931045880E+02 -0.47394564460E+01  0.21532568158E+02  0.00000000000E+00 0.  1.
</event>
<event>
 8    1  0.5542925E-011  0.9118800E+02  0.7816164E-02  0.1184000E+00
        -11   -1    0    0    0    0  0.00000000000E+00  0.00000000000E+00  0.45593999997E+02  0.45594000000E+02  0.51100000000E-03 0. -1.
         11   -1    0    0    0    0 -0.00000000000E+00 -0.00000000000E+00 -0.45593999997E+02  0.45594000000E+02  0.51100000000E-03 0.  1.
         23    2    1    2    0    0 -0.35527136788E-14  0.00000000000E+00  0.35527136788E-14  0.91188000000E+02  0.91188000000E+02 0.  0.
    9900012    2    3    3    0    0  0.21938820948E+02 -0.23314905121E+02 -0.29304038708E+02  0.47787270167E+02  0.19999996001E+02 0.  0.
         12    1    3    3    0    0 -0.21938820948E+02  0.23314905121E+02  0.29304038708E+02  0.43400729833E+02  0.00000000000E+00 0. -1.
         11    1    4    4    0    0  0.98089832672E+01 -0.81072926613E+01 -0.11179416646E+02  0.16938822386E+02  0.51100000000E-03 0. -1.
        -11    1    4    4    0    0  0.68455582102E+01  0.12605310224E+01 -0.20996561532E+01  0.72704306537E+01  0.51100000000E-03 0.  1.
         12    1    4    4    0    0  0.52842794707E+01 -0.16468143482E+02 -0.16024965909E+02  0.23578017127E+02  0.00000000000E+00 0. -1.
</event>
<event>
 8    1  0.5542925E-011  0.9118800E+02  0.7816164E-02  0.1184000E+00
        -11   -1    0    0    0    0  0.00000000000E+00  0.00000000000E+00  0.45593999997E+02  0.45594000000E+02  0.51100000000E-03 0. -1.
         11   -1    0    0    0    0 -0.00000000000E+00 -0.00000000000E+00 -0.45593999997E+02  0.45594000000E+02  0.51100000000E-03 0.  1.
         23    2    1    2    0    0  0.00000000000E+00  0.33306690739E-15  0.00000000000E+00  0.91188000000E+02  0.91188000000E+02 0.  0.
    9900012    2    3    3    0    0  0.25338598583E+02  0.77060958366E+00  0.35227621679E+02  0.47787265600E+02  0.19999975177E+02 0.  0.
        -12    1    3    3    0    0 -0.25338598583E+02 -0.77060958366E+00 -0.35227621679E+02  0.43400734400E+02  0.00000000000E+00 0.  1.
         11    1    4    4    0    0 -0.47663481709E+00 -0.13275423201E+01  0.34887466671E+01  0.37630975179E+01  0.51100000000E-03 0. -1.
        -11    1    4    4    0    0 -0.79333074812E+00 -0.31115883273E+01  0.50095429058E+01  0.59503677181E+01  0.51100000000E-03 0.  1.
         12    1    4    4    0    0  0.26608564148E+02  0.52097402310E+01  0.26729332106E+02  0.38073800364E+02  0.00000000000E+00 0. -1.
</event>
<event>
 8    1  0.5542925E-011  0.9118800E+02  0.7816164E-02  0.1184000E+00
        -11   -1    0    0    0    0  0.00000000000E+00  0.00000000000E+00  0.45593999997E+02  0.45594000000E+02  0.51100000000E-03 0. -1.
         11   -1    0    0    0    0 -0.00000000000E+00 -0.00000000000E+00 -0.45593999997E+02  0.45594000000E+02  0.51100000000E-03 0.  1.
         23    2    1    2    0    0  0.00000000000E+00 -0.33306690739E-15  0.00000000000E+00  0.91188000000E+02  0.91188000000E+02 0.  0.
    9900012    2    3    3    0    0 -0.23514107001E+02  0.78379682572E+00  0.36470477634E+02  0.47787270693E+02  0.19999998398E+02 0.  0.
        -12    1    3    3    0    0  0.23514107001E+02 -0.78379682572E+00 -0.36470477634E+02  0.43400729307E+02  0.00000000000E+00 0.  1.
         11    1    4    4    0    0 -0.51922439116E+01  0.35157036567E+01  0.11988865023E+02  0.13529687869E+02  0.51100000000E-03 0. -1.
        -11    1    4    4    0    0 -0.31640062930E+01 -0.32331877054E+01  0.16520991389E+02  0.17129144616E+02  0.51100000000E-03 0.  1.
        -12    1    4    4    0    0 -0.15157856797E+02  0.50128087449E+00  0.79606212224E+01  0.17128438208E+02  0.00000000000E+00 0.  1.
</event>
<event>
 8    1  0.5822924E-011  0.9118800E+02  0.7816164E-02  0.1184000E+00
        -11   -1    0    0    0    0  0.00000000000E+00  0.00000000000E+00  0.45593999997E+02  0.45594000000E+02  0.51100000000E-03 0. -1.
         11   -1    0    0    0    0 -0.00000000000E+00 -0.00000000000E+00 -0.45593999997E+02  0.45594000000E+02  0.51100000000E-03 0.  1.
         23    2    1    2    0    0  0.88817841970E-15  0.35527136788E-14  0.00000000000E+00  0.91188000000E+02  0.91188000000E+02 0.  0.
    9900012    2    3    3    0    0 -0.60086162702E+01 -0.21645390126E+02  0.37134849459E+02  0.47787269274E+02  0.19999991927E+02 0.  0.
        -12    1    3    3    0    0  0.60086162702E+01  0.21645390126E+02 -0.37134849459E+02  0.43400730726E+02  0.00000000000E+00 0.  1.
         11    1    4    4    0    0 -0.10215130127E+01 -0.20881790762E+01 -0.48664822279E-01  0.23251557400E+01  0.51100000000E-03 0.  1.
        -11    1    4    4    0    0  0.56679866025E+01 -0.40112870942E+01  0.68742789686E+01  0.97709880706E+01  0.51100000000E-03 0. -1.
         12    1    4    4    0    0 -0.10655089860E+02 -0.15545923956E+02  0.30309235313E+02  0.35691125463E+02  0.00000000000E+00 0. -1.
</event>
<event>
 8    1  0.5542925E-011  0.9118800E+02  0.7816164E-02  0.1184000E+00
        -11   -1    0    0    0    0  0.00000000000E+00  0.00000000000E+00  0.45593999997E+02  0.45594000000E+02  0.51100000000E-03 0. -1.
         11   -1    0    0    0    0 -0.00000000000E+00 -0.00000000000E+00 -0.45593999997E+02  0.45594000000E+02  0.51100000000E-03 0.  1.
         23    2    1    2    0    0  0.88817841970E-15  0.00000000000E+00  0.35527136788E-14  0.91188000000E+02  0.91188000000E+02 0.  0.
    9900012    2    3    3    0    0  0.29176207296E+01 -0.33362354605E+02  0.27605503338E+02  0.47787273853E+02  0.20000012805E+02 0.  0.
        -12    1    3    3    0    0 -0.29176207296E+01  0.33362354605E+02 -0.27605503338E+02  0.43400726147E+02  0.00000000000E+00 0.  1.
         11    1    4    4    0    0  0.46687220221E+01 -0.37190212466E+01  0.84700971086E+01  0.10361980006E+02  0.51100000000E-03 0. -1.
        -11    1    4    4    0    0  0.49593754748E+00 -0.12339614579E+02  0.15115943983E+02  0.19519318757E+02  0.51100000000E-03 0.  1.
        -12    1    4    4    0    0 -0.22470388400E+01 -0.17303718780E+02  0.40194622470E+01  0.17905975090E+02  0.00000000000E+00 0.  1.
</event>
<event>
 8    1  0.5542925E-011  0.9118800E+02  0.7816164E-02  0.1184000E+00
        -11   -1    0    0    0    0  0.00000000000E+00  0.00000000000E+00  0.45593999997E+02  0.45594000000E+02  0.51100000000E-03 0. -1.
         11   -1    0    0    0    0 -0.00000000000E+00 -0.00000000000E+00 -0.45593999997E+02  0.45594000000E+02  0.51100000000E-03 0.  1.
         23    2    1    2    0    0  0.17763568394E-14  0.00000000000E+00  0.00000000000E+00  0.91188000000E+02  0.91188000000E+02 0.  0.
    9900012    2    3    3    0    0 -0.10453853789E+02  0.19972353076E+02 -0.37086998170E+02  0.47787269826E+02  0.19999994443E+02 0.  0.
         12    1    3    3    0    0  0.10453853789E+02 -0.19972353076E+02  0.37086998170E+02  0.43400730174E+02  0.00000000000E+00 0. -1.
         11    1    4    4    0    0 -0.59578887971E+01  0.15678347795E+00 -0.53319465811E+01  0.79969165672E+01  0.51100000000E-03 0. -1.
        -11    1    4    4    0    0 -0.98636552376E+00 -0.14067433990E+01 -0.39654734984E+00  0.17632623171E+01  0.51100000000E-03 0.  1.
        -12    1    4    4    0    0 -0.35095994679E+01  0.21222312997E+02 -0.31358504239E+02  0.38027090941E+02  0.00000000000E+00 0.  1.
</event>
<event>
 8    1  0.5542925E-011  0.9118800E+02  0.7816164E-02  0.1184000E+00
        -11   -1    0    0    0    0  0.00000000000E+00  0.00000000000E+00  0.45593999997E+02  0.45594000000E+02  0.51100000000E-03 0. -1.
         11   -1    0    0    0    0 -0.00000000000E+00 -0.00000000000E+00 -0.45593999997E+02  0.45594000000E+02  0.51100000000E-03 0.  1.
         23    2    1    2    0    0  0.00000000000E+00  0.00000000000E+00  0.00000000000E+00  0.91188000000E+02  0.91188000000E+02 0.  0.
    9900012    2    3    3    0    0 -0.37691057905E+02  0.17587906517E+02  0.12396492302E+02  0.47787270478E+02  0.19999997419E+02 0.  0.
        -12    1    3    3    0    0  0.37691057905E+02 -0.17587906517E+02 -0.12396492302E+02  0.43400729522E+02  0.00000000000E+00 0.  1.
         11    1    4    4    0    0 -0.26421214609E+02  0.90342892025E+01  0.15143210230E+02  0.31765008723E+02  0.51100000000E-03 0.  1.
        -11    1    4    4    0    0 -0.14704509992E+01 -0.12149707574E+01  0.39474708329E-01  0.19078623106E+01  0.51100000000E-03 0. -1.
         12    1    4    4    0    0 -0.97993922965E+01  0.97685880716E+01 -0.27861926363E+01  0.14114399445E+02  0.00000000000E+00 0. -1.
</event>
<event>
 8    1  0.5542925E-011  0.9118800E+02  0.7816164E-02  0.1184000E+00
        -11   -1    0    0    0    0  0.00000000000E+00  0.00000000000E+00  0.45593999997E+02  0.45594000000E+02  0.51100000000E-03 0. -1.
         11   -1    0    0    0    0 -0.00000000000E+00 -0.00000000000E+00 -0.45593999997E+02  0.45594000000E+02  0.51100000000E-03 0.  1.
         23    2    1    2    0    0  0.00000000000E+00  0.00000000000E+00  0.00000000000E+00  0.91188000000E+02  0.91188000000E+02 0.  0.
    9900012    2    3    3    0    0 -0.27803237923E+02 -0.88011737745E+01 -0.32142534817E+02  0.47787271397E+02  0.20000001607E+02 0.  0.
         12    1    3    3    0    0  0.27803237923E+02  0.88011737745E+01  0.32142534817E+02  0.43400728603E+02  0.00000000000E+00 0. -1.
         11    1    4    4    0    0 -0.22429240992E+02 -0.40500254929E+00 -0.19631545169E+02  0.29809938688E+02  0.51100000000E-03 0. -1.
        -11    1    4    4    0    0 -0.83094575793E+00  0.67783072625E+00 -0.55952759255E+01  0.56971078882E+01  0.51100000000E-03 0.  1.
         12    1    4    4    0    0 -0.45430511725E+01 -0.90740019515E+01 -0.69157137223E+01  0.12280224821E+02  0.00000000000E+00 0. -1.
</event>
<event>
 8    1  0.5542925E-011  0.9118800E+02  0.7816164E-02  0.1184000E+00
        -11   -1    0    0    0    0  0.00000000000E+00  0.00000000000E+00  0.45593999997E+02  0.45594000000E+02  0.51100000000E-03 0.  1.
         11   -1    0    0    0    0 -0.00000000000E+00 -0.00000000000E+00 -0.45593999997E+02  0.45594000000E+02  0.51100000000E-03 0. -1.
         23    2    1    2    0    0 -0.44408920985E-15  0.00000000000E+00  0.22204460493E-15  0.91188000000E+02  0.91188000000E+02 0.  0.
    9900012    2    3    3    0    0  0.36888141551E+01  0.43216964873E+02  0.15197999214E+01  0.47787271959E+02  0.20000004168E+02 0.  0.
         12    1    3    3    0    0 -0.36888141551E+01 -0.43216964873E+02 -0.15197999214E+01  0.43400728041E+02  0.00000000000E+00 0. -1.
         11    1    4    4    0    0  0.52523594373E+01  0.42768840932E+01  0.44555918037E+00  0.67880439340E+01  0.51100000000E-03 0. -1.
        -11    1    4    4    0    0  0.33377937902E+01  0.10124337246E+02 -0.38961593349E+01  0.11350027748E+02  0.51100000000E-03 0.  1.
        -12    1    4    4    0    0 -0.49013390723E+01  0.28815743534E+02  0.49704000759E+01  0.29649200276E+02  0.00000000000E+00 0.  1.
</event>
<event>
 8    1  0.5542925E-011  0.9118800E+02  0.7816164E-02  0.1184000E+00
        -11   -1    0    0    0    0  0.00000000000E+00  0.00000000000E+00  0.45593999997E+02  0.45594000000E+02  0.51100000000E-03 0. -1.
         11   -1    0    0    0    0 -0.00000000000E+00 -0.00000000000E+00 -0.45593999997E+02  0.45594000000E+02  0.51100000000E-03 0.  1.
         23    2    1    2    0    0  0.00000000000E+00  0.88817841970E-15 -0.35527136788E-14  0.91188000000E+02  0.91188000000E+02 0.  0.
    9900012    2    3    3    0    0  0.31963294164E+02  0.58816340495E+01 -0.28764168289E+02  0.47787272238E+02  0.20000005443E+02 0.  0.
         12    1    3    3    0    0 -0.31963294164E+02 -0.58816340495E+01  0.28764168289E+02  0.43400727762E+02  0.00000000000E+00 0. -1.
         11    1    4    4    0    0  0.13187638783E+02 -0.17950589463E+01 -0.14166307132E+02  0.19437600452E+02  0.51100000000E-03 0.  1.
        -11    1    4    4    0    0  0.46328134421E+01 -0.36910741541E+01 -0.19681161025E+01  0.62418322674E+01  0.51100000000E-03 0. -1.
        -12    1    4    4    0    0  0.14142841939E+02  0.11367767150E+02 -0.12629745054E+02  0.22107839519E+02  0.00000000000E+00 0.  1.
</event>
<event>
 8    1  0.1057205E-010  0.9118800E+02  0.7816164E-02  0.1184000E+00
        -11   -1    0    0    0    0  0.00000000000E+00  0.00000000000E+00  0.45593999997E+02  0.45594000000E+02  0.51100000000E-03 0. -1.
         11   -1    0    0    0    0 -0.00000000000E+00 -0.00000000000E+00 -0.45593999997E+02  0.45594000000E+02  0.51100000000E-03 0.  1.
         23    2    1    2    0    0  0.00000000000E+00  0.00000000000E+00  0.00000000000E+00  0.91188000000E+02  0.91188000000E+02 0.  0.
    9900012    2    3    3    0    0  0.23190220610E+02  0.37471154598E+01  0.36493800902E+02  0.47787254494E+02  0.19999924542E+02 0.  0.
        -12    1    3    3    0    0 -0.23190220610E+02 -0.37471154598E+01 -0.36493800902E+02  0.43400745506E+02  0.00000000000E+00 0.  1.
         11    1    4    4    0    0  0.39289656368E+01 -0.15962035503E+01  0.20436097273E+00  0.42457508662E+01  0.51100000000E-03 0. -1.
        -11    1    4    4    0    0  0.55503717321E+01  0.69002579081E+01  0.74565615058E+01  0.11576722132E+02  0.51100000000E-03 0.  1.
         12    1    4    4    0    0  0.13710883241E+02 -0.15569388980E+01  0.28832878423E+02  0.31964781497E+02  0.00000000000E+00 0. -1.
</event>
<event>
 8    1  0.5542925E-011  0.9118800E+02  0.7816164E-02  0.1184000E+00
        -11   -1    0    0    0    0  0.00000000000E+00  0.00000000000E+00  0.45593999997E+02  0.45594000000E+02  0.51100000000E-03 0. -1.
         11   -1    0    0    0    0 -0.00000000000E+00 -0.00000000000E+00 -0.45593999997E+02  0.45594000000E+02  0.51100000000E-03 0.  1.
         23    2    1    2    0    0  0.00000000000E+00  0.00000000000E+00  0.00000000000E+00  0.91188000000E+02  0.91188000000E+02 0.  0.
    9900012    2    3    3    0    0  0.92285730918E+01  0.37357534992E+01 -0.42243351484E+02  0.47787272355E+02  0.20000005974E+02 0.  0.
         12    1    3    3    0    0 -0.92285730918E+01 -0.37357534992E+01  0.42243351484E+02  0.43400727645E+02  0.00000000000E+00 0. -1.
         11    1    4    4    0    0  0.27499666179E+01  0.26715082924E+01 -0.52867985173E+01  0.65306593679E+01  0.51100000000E-03 0. -1.
        -11    1    4    4    0    0  0.79127715683E+01 -0.32554848970E+01 -0.35441189799E+02  0.36459403046E+02  0.51100000000E-03 0.  1.
        -12    1    4    4    0    0 -0.14341650945E+01  0.43197301038E+01 -0.15153631680E+01  0.47972099410E+01  0.00000000000E+00 0.  1.
</event>
<event>
 8    1  0.5542925E-011  0.9118800E+02  0.7816164E-02  0.1184000E+00
        -11   -1    0    0    0    0  0.00000000000E+00  0.00000000000E+00  0.45593999997E+02  0.45594000000E+02  0.51100000000E-03 0.  1.
         11   -1    0    0    0    0 -0.00000000000E+00 -0.00000000000E+00 -0.45593999997E+02  0.45594000000E+02  0.51100000000E-03 0. -1.
         23    2    1    2    0    0  0.71054273576E-14  0.00000000000E+00  0.17763568394E-14  0.91188000000E+02  0.91188000000E+02 0.  0.
    9900012    2    3    3    0    0 -0.40663880793E+02 -0.29493353451E+01 -0.14878631760E+02  0.47787268864E+02  0.19999990057E+02 0.  0.
        -12    1    3    3    0    0  0.40663880793E+02  0.29493353451E+01  0.14878631760E+02  0.43400731136E+02  0.00000000000E+00 0.  1.
         11    1    4    4    0    0 -0.32806672683E+01  0.38793265118E+01 -0.25887589280E+01  0.57020719882E+01  0.51100000000E-03 0. -1.
        -11    1    4    4    0    0 -0.12212841918E+02 -0.55079057814E+01 -0.10114085617E+02  0.16786460673E+02  0.51100000000E-03 0.  1.
         12    1    4    4    0    0 -0.25170371606E+02 -0.13207560755E+01 -0.21757872153E+01  0.25298736202E+02  0.00000000000E+00 0. -1.
</event>
<event>
 8    1  0.5542925E-011  0.9118800E+02  0.7816164E-02  0.1184000E+00
        -11   -1    0    0    0    0  0.00000000000E+00  0.00000000000E+00  0.45593999997E+02  0.45594000000E+02  0.51100000000E-03 0. -1.
         11   -1    0    0    0    0 -0.00000000000E+00 -0.00000000000E+00 -0.45593999997E+02  0.45594000000E+02  0.51100000000E-03 0.  1.
         23    2    1    2    0    0  0.00000000000E+00 -0.17763568394E-14  0.00000000000E+00  0.91188000000E+02  0.91188000000E+02 0.  0.
    9900012    2    3    3    0    0  0.24464418048E+02  0.14602583567E+02  0.32739581370E+02  0.47787269758E+02  0.19999994134E+02 0.  0.
        -12    1    3    3    0    0 -0.24464418048E+02 -0.14602583567E+02 -0.32739581370E+02  0.43400730242E+02  0.00000000000E+00 0.  1.
         11    1    4    4    0    0  0.16742779987E+02  0.50845963171E+01  0.23868769102E+02  0.29595471615E+02  0.51100000000E-03 0. -1.
        -11    1    4    4    0    0  0.57301051611E+01  0.34114050892E+00  0.77314657673E+00  0.57920840717E+01  0.51100000000E-03 0.  1.
        -12    1    4    4    0    0  0.19915329000E+01  0.91768467408E+01  0.80976656913E+01  0.12399714071E+02  0.00000000000E+00 0.  1.
</event>
<event>
 8    1  0.5542925E-011  0.9118800E+02  0.7816164E-02  0.1184000E+00
        -11   -1    0    0    0    0  0.00000000000E+00  0.00000000000E+00  0.45593999997E+02  0.45594000000E+02  0.51100000000E-03 0. -1.
         11   -1    0    0    0    0 -0.00000000000E+00 -0.00000000000E+00 -0.45593999997E+02  0.45594000000E+02  0.51100000000E-03 0.  1.
         23    2    1    2    0    0  0.00000000000E+00  0.00000000000E+00  0.00000000000E+00  0.91188000000E+02  0.91188000000E+02 0.  0.
    9900012    2    3    3    0    0  0.29049741652E+02  0.15244499841E+02  0.28413748371E+02  0.47787270030E+02  0.19999995373E+02 0.  0.
        -12    1    3    3    0    0 -0.29049741652E+02 -0.15244499841E+02 -0.28413748371E+02  0.43400729970E+02  0.00000000000E+00 0.  1.
         11    1    4    4    0    0  0.21276404644E+02  0.57450172099E+01  0.24598361768E+02  0.33026807585E+02  0.51100000000E-03 0. -1.
        -11    1    4    4    0    0  0.39023049696E+01  0.51633256323E+01  0.57263760727E+01  0.86417185124E+01  0.51100000000E-03 0.  1.
        -12    1    4    4    0    0  0.38710320384E+01  0.43361569985E+01 -0.19109894691E+01  0.61187439323E+01  0.00000000000E+00 0.  1.
</event>
<event>
 8    1  0.5542925E-011  0.9118800E+02  0.7816164E-02  0.1184000E+00
        -11   -1    0    0    0    0  0.00000000000E+00  0.00000000000E+00  0.45593999997E+02  0.45594000000E+02  0.51100000000E-03 0.  1.
         11   -1    0    0    0    0 -0.00000000000E+00 -0.00000000000E+00 -0.45593999997E+02  0.45594000000E+02  0.51100000000E-03 0. -1.
         23    2    1    2    0    0  0.71054273576E-14 -0.22204460493E-14 -0.88817841970E-15  0.91188000000E+02  0.91188000000E+02 0.  0.
    9900012    2    3    3    0    0 -0.42566589936E+02  0.31650089118E+01  0.78544061276E+01  0.47787267797E+02  0.19999985192E+02 0.  0.
         12    1    3    3    0    0  0.42566589936E+02 -0.31650089118E+01 -0.78544061276E+01  0.43400732203E+02  0.00000000000E+00 0. -1.
         11    1    4    4    0    0 -0.17243053924E+02  0.70105209015E+01  0.74510040234E+01  0.20049632744E+02  0.51100000000E-03 0. -1.
        -11    1    4    4    0    0 -0.14355271443E+02  0.30246605253E+01 -0.10825676707E+01  0.14710348144E+02  0.51100000000E-03 0.  1.
         12    1    4    4    0    0 -0.10968264568E+02 -0.68701725150E+01  0.14859697750E+01  0.13027286909E+02  0.00000000000E+00 0. -1.
</event>
<event>
 8    1  0.5542925E-011  0.9118800E+02  0.7816164E-02  0.1184000E+00
        -11   -1    0    0    0    0  0.00000000000E+00  0.00000000000E+00  0.45593999997E+02  0.45594000000E+02  0.51100000000E-03 0.  1.
         11   -1    0    0    0    0 -0.00000000000E+00 -0.00000000000E+00 -0.45593999997E+02  0.45594000000E+02  0.51100000000E-03 0. -1.
         23    2    1    2    0    0  0.00000000000E+00 -0.35527136788E-14  0.00000000000E+00  0.91188000000E+02  0.91188000000E+02 0.  0.
    9900012    2    3    3    0    0 -0.28017848088E+02 -0.31930819737E+02  0.88908423732E+01  0.47787261081E+02  0.19999954575E+02 0.  0.
        -12    1    3    3    0    0  0.28017848088E+02  0.31930819737E+02 -0.88908423732E+01  0.43400738919E+02  0.00000000000E+00 0.  1.
         11    1    4    4    0    0 -0.39183278734E+01  0.15958261979E+01  0.12373233729E+01  0.44080521739E+01  0.51100000000E-03 0. -1.
        -11    1    4    4    0    0 -0.19822401039E+01 -0.10012570045E+02  0.17080257514E-01  0.10206915632E+02  0.51100000000E-03 0.  1.
         12    1    4    4    0    0 -0.22117280110E+02 -0.23514075891E+02  0.76364387428E+01  0.33172293275E+02  0.00000000000E+00 0. -1.
</event>
<event>
 8    1  0.1030239E-010  0.9118800E+02  0.7816164E-02  0.1184000E+00
        -11   -1    0    0    0    0  0.00000000000E+00  0.00000000000E+00  0.45593999997E+02  0.45594000000E+02  0.51100000000E-03 0. -1.
         11   -1    0    0    0    0 -0.00000000000E+00 -0.00000000000E+00 -0.45593999997E+02  0.45594000000E+02  0.51100000000E-03 0.  1.
         23    2    1    2    0    0  0.00000000000E+00 -0.17763568394E-14  0.00000000000E+00  0.91188000000E+02  0.91188000000E+02 0.  0.
    9900012    2    3    3    0    0  0.29194699463E+02  0.11540511601E+02  0.29968471690E+02  0.47787272124E+02  0.20000004920E+02 0.  0.
        -12    1    3    3    0    0 -0.29194699463E+02 -0.11540511601E+02 -0.29968471690E+02  0.43400727876E+02  0.00000000000E+00 0.  1.
         11    1    4    4    0    0  0.96565677839E+01  0.43748571225E+01  0.20116172825E+01  0.10790518086E+02  0.51100000000E-03 0. -1.
        -11    1    4    4    0    0  0.22606714125E+01 -0.32937472022E+01  0.38577289277E+01  0.55535104761E+01  0.51100000000E-03 0.  1.
         12    1    4    4    0    0  0.17277460266E+02  0.10459401680E+02  0.24099125480E+02  0.31443243562E+02  0.00000000000E+00 0. -1.
</event>
<event>
 8    1  0.5542925E-011  0.9118800E+02  0.7816164E-02  0.1184000E+00
        -11   -1    0    0    0    0  0.00000000000E+00  0.00000000000E+00  0.45593999997E+02  0.45594000000E+02  0.51100000000E-03 0. -1.
         11   -1    0    0    0    0 -0.00000000000E+00 -0.00000000000E+00 -0.45593999997E+02  0.45594000000E+02  0.51100000000E-03 0.  1.
         23    2    1    2    0    0  0.35527136788E-14  0.53290705182E-14  0.71054273576E-14  0.91188000000E+02  0.91188000000E+02 0.  0.
    9900012    2    3    3    0    0  0.15809294766E+02  0.12965353302E+02  0.38283015787E+02  0.47787268612E+02  0.19999988910E+02 0.  0.
        -12    1    3    3    0    0 -0.15809294766E+02 -0.12965353302E+02 -0.38283015787E+02  0.43400731388E+02  0.00000000000E+00 0.  1.
         11    1    4    4    0    0  0.13077375535E+02  0.15256136282E+02  0.22690565993E+02  0.30308896886E+02  0.51100000000E-03 0. -1.
        -11    1    4    4    0    0  0.10351325648E+01 -0.29931214106E+01  0.19636764622E+01  0.37264327063E+01  0.51100000000E-03 0.  1.
        -12    1    4    4    0    0  0.16967866667E+01  0.70233843111E+00  0.13628773332E+02  0.13751939020E+02  0.00000000000E+00 0.  1.
</event>
<event>
 8    1  0.5542925E-011  0.9118800E+02  0.7816164E-02  0.1184000E+00
        -11   -1    0    0    0    0  0.00000000000E+00  0.00000000000E+00  0.45593999997E+02  0.45594000000E+02  0.51100000000E-03 0. -1.
         11   -1    0    0    0    0 -0.00000000000E+00 -0.00000000000E+00 -0.45593999997E+02  0.45594000000E+02  0.51100000000E-03 0.  1.
         23    2    1    2    0    0  0.00000000000E+00  0.00000000000E+00 -0.88817841970E-15  0.91188000000E+02  0.91188000000E+02 0.  0.
    9900012    2    3    3    0    0 -0.18513972780E+02  0.39041423281E+02 -0.40775608707E+01  0.47787234770E+02  0.19999834610E+02 0.  0.
         12    1    3    3    0    0  0.18513972780E+02 -0.39041423281E+02  0.40775608707E+01  0.43400765230E+02  0.00000000000E+00 0. -1.
         11    1    4    4    0    0 -0.52778080886E+01 -0.46638229144E+00  0.84487181445E+00  0.53653126010E+01  0.51100000000E-03 0. -1.
        -11    1    4    4    0    0 -0.94815146007E+01  0.20082758950E+02 -0.86340873682E+00  0.22225251429E+02  0.51100000000E-03 0.  1.
        -12    1    4    4    0    0 -0.37546500903E+01  0.19425046622E+02 -0.40590239483E+01  0.20196670740E+02  0.00000000000E+00 0.  1.
</event>
<event>
 8    1  0.5542925E-011  0.9118800E+02  0.7816164E-02  0.1184000E+00
        -11   -1    0    0    0    0  0.00000000000E+00  0.00000000000E+00  0.45593999997E+02  0.45594000000E+02  0.51100000000E-03 0. -1.
         11   -1    0    0    0    0 -0.00000000000E+00 -0.00000000000E+00 -0.45593999997E+02  0.45594000000E+02  0.51100000000E-03 0.  1.
         23    2    1    2    0    0  0.00000000000E+00  0.00000000000E+00  0.00000000000E+00  0.91188000000E+02  0.91188000000E+02 0.  0.
    9900012    2    3    3    0    0 -0.16413321557E+02  0.14819029299E+02  0.37344644869E+02  0.47787271270E+02  0.20000001028E+02 0.  0.
        -12    1    3    3    0    0  0.16413321557E+02 -0.14819029299E+02 -0.37344644869E+02  0.43400728730E+02  0.00000000000E+00 0.  1.
         11    1    4    4    0    0 -0.11366062146E+02  0.89183176185E+01  0.23472313067E+02  0.27562170430E+02  0.51100000000E-03 0. -1.
        -11    1    4    4    0    0 -0.72709086488E+01  0.75196109637E+01  0.63998976761E+01  0.12262518181E+02  0.51100000000E-03 0.  1.
        -12    1    4    4    0    0  0.22236492377E+01 -0.16188992831E+01  0.74724341263E+01  0.79625826585E+01  0.00000000000E+00 0.  1.
</event>
<event>
 8    1  0.5542925E-011  0.9118800E+02  0.7816164E-02  0.1184000E+00
        -11   -1    0    0    0    0  0.00000000000E+00  0.00000000000E+00  0.45593999997E+02  0.45594000000E+02  0.51100000000E-03 0. -1.
         11   -1    0    0    0    0 -0.00000000000E+00 -0.00000000000E+00 -0.45593999997E+02  0.45594000000E+02  0.51100000000E-03 0.  1.
         23    2    1    2    0    0 -0.17763568394E-14  0.71054273576E-14 -0.35527136788E-14  0.91188000000E+02  0.91188000000E+02 0.  0.
    9900012    2    3    3    0    0  0.14956121193E+02 -0.28164299419E+02  0.29439937584E+02  0.47787271344E+02  0.20000001366E+02 0.  0.
        -12    1    3    3    0    0 -0.14956121193E+02  0.28164299419E+02 -0.29439937584E+02  0.43400728656E+02  0.00000000000E+00 0.  1.
         11    1    4    4    0    0  0.61293510959E+01 -0.15672345230E+02  0.72417651699E+01  0.18320330590E+02  0.51100000000E-03 0. -1.
        -11    1    4    4    0    0 -0.29379555003E+01 -0.17999622211E+01  0.32928172890E+01  0.47659303896E+01  0.51100000000E-03 0.  1.
        -12    1    4    4    0    0  0.11764725597E+02 -0.10691991967E+02  0.18905355126E+02  0.24701010365E+02  0.00000000000E+00 0.  1.
</event>
<event>
 8    1  0.5542925E-011  0.9118800E+02  0.7816164E-02  0.1184000E+00
        -11   -1    0    0    0    0  0.00000000000E+00  0.00000000000E+00  0.45593999997E+02  0.45594000000E+02  0.51100000000E-03 0. -1.
         11   -1    0    0    0    0 -0.00000000000E+00 -0.00000000000E+00 -0.45593999997E+02  0.45594000000E+02  0.51100000000E-03 0.  1.
         23    2    1    2    0    0  0.00000000000E+00  0.00000000000E+00  0.00000000000E+00  0.91188000000E+02  0.91188000000E+02 0.  0.
    9900012    2    3    3    0    0 -0.28949869356E+02  0.20608192705E+02 -0.24916475702E+02  0.47787270700E+02  0.19999998431E+02 0.  0.
         12    1    3    3    0    0  0.28949869356E+02 -0.20608192705E+02  0.24916475702E+02  0.43400729300E+02  0.00000000000E+00 0. -1.
         11    1    4    4    0    0 -0.13007352973E+02  0.65558216518E+01 -0.17565547193E+02  0.22819256722E+02  0.51100000000E-03 0. -1.
        -11    1    4    4    0    0 -0.11537317703E+02  0.12327562482E+02 -0.99218856314E+01  0.19583725674E+02  0.51100000000E-03 0.  1.
         12    1    4    4    0    0 -0.44051986805E+01  0.17248085720E+01  0.25709571222E+01  0.53842883047E+01  0.00000000000E+00 0. -1.
</event>
<event>
 8    1  0.5542925E-011  0.9118800E+02  0.7816164E-02  0.1184000E+00
        -11   -1    0    0    0    0  0.00000000000E+00  0.00000000000E+00  0.45593999997E+02  0.45594000000E+02  0.51100000000E-03 0. -1.
         11   -1    0    0    0    0 -0.00000000000E+00 -0.00000000000E+00 -0.45593999997E+02  0.45594000000E+02  0.51100000000E-03 0.  1.
         23    2    1    2    0    0  0.00000000000E+00  0.88817841970E-15  0.00000000000E+00  0.91188000000E+02  0.91188000000E+02 0.  0.
    9900012    2    3    3    0    0  0.21488250674E+01 -0.69965989444E+01 -0.42779122982E+02  0.47787271791E+02  0.20000003404E+02 0.  0.
         12    1    3    3    0    0 -0.21488250674E+01  0.69965989444E+01  0.42779122982E+02  0.43400728209E+02  0.00000000000E+00 0. -1.
         11    1    4    4    0    0  0.23875199187E+01 -0.77775151270E+01 -0.73189415438E+01  0.10943349510E+02  0.51100000000E-03 0. -1.
        -11    1    4    4    0    0 -0.56304576855E+00 -0.44864923112E+01 -0.20103747936E+02  0.20605977655E+02  0.51100000000E-03 0.  1.
        -12    1    4    4    0    0  0.32435091728E+00  0.52674084938E+01 -0.15356433503E+02  0.16237944626E+02  0.00000000000E+00 0.  1.
</event>
<event>
 8    1  0.5542925E-011  0.9118800E+02  0.7816164E-02  0.1184000E+00
        -11   -1    0    0    0    0  0.00000000000E+00  0.00000000000E+00  0.45593999997E+02  0.45594000000E+02  0.51100000000E-03 0. -1.
         11   -1    0    0    0    0 -0.00000000000E+00 -0.00000000000E+00 -0.45593999997E+02  0.45594000000E+02  0.51100000000E-03 0.  1.
         23    2    1    2    0    0 -0.35527136788E-14 -0.71054273576E-14  0.17763568394E-14  0.91188000000E+02  0.91188000000E+02 0.  0.
    9900012    2    3    3    0    0  0.27065901504E+02 -0.32221219130E+02  0.10623194640E+02  0.47787282831E+02  0.20000053738E+02 0.  0.
        -12    1    3    3    0    0 -0.27065901504E+02  0.32221219130E+02 -0.10623194640E+02  0.43400717169E+02  0.00000000000E+00 0.  1.
         11    1    4    4    0    0  0.90849036591E+01 -0.72511135539E+01  0.46389082901E+01  0.12515334300E+02  0.51100000000E-03 0. -1.
        -11    1    4    4    0    0  0.95385185180E+01 -0.11394504688E+02 -0.52198053894E+01  0.15750061624E+02  0.51100000000E-03 0.  1.
        -12    1    4    4    0    0  0.84424793268E+01 -0.13575600888E+02  0.11204091740E+02  0.19521886906E+02  0.00000000000E+00 0.  1.
</event>
<event>
 8    1  0.5542925E-011  0.9118800E+02  0.7816164E-02  0.1184000E+00
        -11   -1    0    0    0    0  0.00000000000E+00  0.00000000000E+00  0.45593999997E+02  0.45594000000E+02  0.51100000000E-03 0. -1.
         11   -1    0    0    0    0 -0.00000000000E+00 -0.00000000000E+00 -0.45593999997E+02  0.45594000000E+02  0.51100000000E-03 0.  1.
         23    2    1    2    0    0  0.26645352591E-14 -0.13322676296E-14  0.00000000000E+00  0.91188000000E+02  0.91188000000E+02 0.  0.
    9900012    2    3    3    0    0 -0.79465059199E+01 -0.25819784714E+01  0.42588845159E+02  0.47787270731E+02  0.19999998569E+02 0.  0.
        -12    1    3    3    0    0  0.79465059199E+01  0.25819784714E+01 -0.42588845159E+02  0.43400729269E+02  0.00000000000E+00 0.  1.
         11    1    4    4    0    0 -0.53926252364E+01  0.14130166627E+01  0.85280429714E+01  0.10188451316E+02  0.51100000000E-03 0. -1.
        -11    1    4    4    0    0 -0.37033842555E+01  0.41581036374E+01  0.53172673351E+01  0.76992345709E+01  0.51100000000E-03 0.  1.
        -12    1    4    4    0    0  0.11495035720E+01 -0.81530987715E+01  0.28743534852E+02  0.29899584844E+02  0.00000000000E+00 0.  1.
</event>
<event>
 8    1  0.5542925E-011  0.9118800E+02  0.7816164E-02  0.1184000E+00
        -11   -1    0    0    0    0  0.00000000000E+00  0.00000000000E+00  0.45593999997E+02  0.45594000000E+02  0.51100000000E-03 0. -1.
         11   -1    0    0    0    0 -0.00000000000E+00 -0.00000000000E+00 -0.45593999997E+02  0.45594000000E+02  0.51100000000E-03 0.  1.
         23    2    1    2    0    0  0.00000000000E+00  0.35527136788E-14  0.71054273576E-14  0.91188000000E+02  0.91188000000E+02 0.  0.
    9900012    2    3    3    0    0  0.11703480123E+02 -0.26951648935E+02 -0.31941521478E+02  0.47787267038E+02  0.19999981734E+02 0.  0.
         12    1    3    3    0    0 -0.11703480123E+02  0.26951648935E+02  0.31941521478E+02  0.43400732962E+02  0.00000000000E+00 0. -1.
         11    1    4    4    0    0  0.74094336531E+00  0.72432207353E+00 -0.75934845071E+00  0.12846205150E+01  0.51100000000E-03 0. -1.
        -11    1    4    4    0    0 -0.30816235986E+00 -0.12202320687E+02 -0.22249746118E+02  0.25377998281E+02  0.51100000000E-03 0.  1.
         12    1    4    4    0    0  0.11270699118E+02 -0.15473650321E+02 -0.89324269093E+01  0.21124648242E+02  0.00000000000E+00 0. -1.
</event>
<event>
 8    1  0.5542925E-011  0.9118800E+02  0.7816164E-02  0.1184000E+00
        -11   -1    0    0    0    0  0.00000000000E+00  0.00000000000E+00  0.45593999997E+02  0.45594000000E+02  0.51100000000E-03 0. -1.
         11   -1    0    0    0    0 -0.00000000000E+00 -0.00000000000E+00 -0.45593999997E+02  0.45594000000E+02  0.51100000000E-03 0.  1.
         23    2    1    2    0    0  0.00000000000E+00  0.17763568394E-14  0.00000000000E+00  0.91188000000E+02  0.91188000000E+02 0.  0.
    9900012    2    3    3    0    0  0.40311788618E+02 -0.14583792998E+02  0.67746677196E+01  0.47787269101E+02  0.19999991140E+02 0.  0.
        -12    1    3    3    0    0 -0.40311788618E+02  0.14583792998E+02 -0.67746677196E+01  0.43400730899E+02  0.00000000000E+00 0.  1.
         11    1    4    4    0    0  0.16170093739E+02 -0.51832966550E+01 -0.68435986283E+01  0.18307739844E+02  0.51100000000E-03 0.  1.
        -11    1    4    4    0    0  0.12490609340E+02 -0.63193940361E+01  0.60580535287E+01  0.15252871057E+02  0.51100000000E-03 0. -1.
        -12    1    4    4    0    0  0.11651085540E+02 -0.30811023074E+01  0.75602128191E+01  0.14226658201E+02  0.00000000000E+00 0.  1.
</event>
<event>
 8    1  0.5542925E-011  0.9118800E+02  0.7816164E-02  0.1184000E+00
        -11   -1    0    0    0    0  0.00000000000E+00  0.00000000000E+00  0.45593999997E+02  0.45594000000E+02  0.51100000000E-03 0.  1.
         11   -1    0    0    0    0 -0.00000000000E+00 -0.00000000000E+00 -0.45593999997E+02  0.45594000000E+02  0.51100000000E-03 0. -1.
         23    2    1    2    0    0  0.00000000000E+00 -0.44408920985E-15  0.00000000000E+00  0.91188000000E+02  0.91188000000E+02 0.  0.
    9900012    2    3    3    0    0  0.37738864767E+02  0.25792814012E+01 -0.21277886708E+02  0.47787273403E+02  0.20000010751E+02 0.  0.
         12    1    3    3    0    0 -0.37738864767E+02 -0.25792814012E+01  0.21277886708E+02  0.43400726597E+02  0.00000000000E+00 0. -1.
         11    1    4    4    0    0  0.85335533923E+01  0.38475991344E+01 -0.36210290580E+01  0.10036802494E+02  0.51100000000E-03 0. -1.
        -11    1    4    4    0    0  0.17531832608E+02  0.65626903297E+01 -0.13539360137E+02  0.23102994008E+02  0.51100000000E-03 0.  1.
        -12    1    4    4    0    0  0.11673478766E+02 -0.78310080629E+01 -0.41174975139E+01  0.14647476901E+02  0.00000000000E+00 0.  1.
</event>
<event>
 8    1  0.5542925E-011  0.9118800E+02  0.7816164E-02  0.1184000E+00
        -11   -1    0    0    0    0  0.00000000000E+00  0.00000000000E+00  0.45593999997E+02  0.45594000000E+02  0.51100000000E-03 0. -1.
         11   -1    0    0    0    0 -0.00000000000E+00 -0.00000000000E+00 -0.45593999997E+02  0.45594000000E+02  0.51100000000E-03 0.  1.
         23    2    1    2    0    0 -0.17763568394E-14  0.71054273576E-14  0.35527136788E-14  0.91188000000E+02  0.91188000000E+02 0.  0.
    9900012    2    3    3    0    0 -0.97569224741E+01  0.34417458762E+02  0.24573652841E+02  0.47787269386E+02  0.19999992440E+02 0.  0.
        -12    1    3    3    0    0  0.97569224741E+01 -0.34417458762E+02 -0.24573652841E+02  0.43400730614E+02  0.00000000000E+00 0.  1.
         11    1    4    4    0    0  0.13802526433E+01 -0.13649943659E+00  0.42529540128E+00  0.14507259889E+01  0.51100000000E-03 0. -1.
        -11    1    4    4    0    0 -0.34454539400E-01 -0.73144591587E+00 -0.12617855947E+01  0.14588705875E+01  0.51100000000E-03 0.  1.
         12    1    4    4    0    0 -0.11102720578E+02  0.35285404115E+02  0.25410143035E+02  0.44877672810E+02  0.00000000000E+00 0. -1.
</event>
<event>
 8    1  0.6581607E-011  0.9118800E+02  0.7816164E-02  0.1184000E+00
        -11   -1    0    0    0    0  0.00000000000E+00  0.00000000000E+00  0.45593999997E+02  0.45594000000E+02  0.51100000000E-03 0. -1.
         11   -1    0    0    0    0 -0.00000000000E+00 -0.00000000000E+00 -0.45593999997E+02  0.45594000000E+02  0.51100000000E-03 0.  1.
         23    2    1    2    0    0 -0.35527136788E-14 -0.17763568394E-14  0.00000000000E+00  0.91188000000E+02  0.91188000000E+02 0.  0.
    9900012    2    3    3    0    0  0.22245944310E+02  0.12874847661E+02  0.34971145960E+02  0.47787253574E+02  0.19999920346E+02 0.  0.
        -12    1    3    3    0    0 -0.22245944310E+02 -0.12874847661E+02 -0.34971145960E+02  0.43400746426E+02  0.00000000000E+00 0.  1.
         11    1    4    4    0    0  0.14810326195E+01  0.66820150545E+01  0.41206884607E+01  0.79889208570E+01  0.51100000000E-03 0. -1.
        -11    1    4    4    0    0  0.12902891759E+02  0.26210242119E+01  0.80861989274E+01  0.15451245808E+02  0.51100000000E-03 0.  1.
         12    1    4    4    0    0  0.78620199308E+01  0.35718083951E+01  0.22764258572E+02  0.24347086909E+02  0.00000000000E+00 0. -1.
</event>
<event>
 8    1  0.5542925E-011  0.9118800E+02  0.7816164E-02  0.1184000E+00
        -11   -1    0    0    0    0  0.00000000000E+00  0.00000000000E+00  0.45593999997E+02  0.45594000000E+02  0.51100000000E-03 0. -1.
         11   -1    0    0    0    0 -0.00000000000E+00 -0.00000000000E+00 -0.45593999997E+02  0.45594000000E+02  0.51100000000E-03 0.  1.
         23    2    1    2    0    0  0.00000000000E+00 -0.35527136788E-14 -0.35527136788E-14  0.91188000000E+02  0.91188000000E+02 0.  0.
    9900012    2    3    3    0    0 -0.26292574248E+02  0.22587434897E+02  0.26117651684E+02  0.47787269530E+02  0.19999993094E+02 0.  0.
        -12    1    3    3    0    0  0.26292574248E+02 -0.22587434897E+02 -0.26117651684E+02  0.43400730470E+02  0.00000000000E+00 0.  1.
         11    1    4    4    0    0 -0.82933418007E+01  0.30277358203E+01  0.74459889306E+01  0.11549435217E+02  0.51100000000E-03 0. -1.
        -11    1    4    4    0    0 -0.16533915470E+02  0.15910003361E+02  0.71043340487E+01  0.24020202544E+02  0.51100000000E-03 0.  1.
        -12    1    4    4    0    0 -0.14653169779E+01  0.36496957156E+01  0.11567328705E+02  0.12217631769E+02  0.00000000000E+00 0.  1.
</event>
<event>
 8    1  0.5542925E-011  0.9118800E+02  0.7816164E-02  0.1184000E+00
        -11   -1    0    0    0    0  0.00000000000E+00  0.00000000000E+00  0.45593999997E+02  0.45594000000E+02  0.51100000000E-03 0. -1.
         11   -1    0    0    0    0 -0.00000000000E+00 -0.00000000000E+00 -0.45593999997E+02  0.45594000000E+02  0.51100000000E-03 0.  1.
         23    2    1    2    0    0  0.00000000000E+00  0.00000000000E+00  0.00000000000E+00  0.91188000000E+02  0.91188000000E+02 0.  0.
    9900012    2    3    3    0    0  0.77399218830E+01 -0.15045784457E+02  0.39966768660E+02  0.47787255562E+02  0.19999929408E+02 0.  0.
        -12    1    3    3    0    0 -0.77399218830E+01  0.15045784457E+02 -0.39966768660E+02  0.43400744438E+02  0.00000000000E+00 0.  1.
         11    1    4    4    0    0  0.37542083093E+01 -0.10862932768E+02  0.16334480857E+02  0.19972797838E+02  0.51100000000E-03 0. -1.
        -11    1    4    4    0    0  0.82694777953E+01 -0.42134468895E+01  0.10563519567E+02  0.14061484402E+02  0.51100000000E-03 0.  1.
         12    1    4    4    0    0 -0.42837642215E+01  0.30595200454E-01  0.13068768236E+02  0.13752973321E+02  0.00000000000E+00 0. -1.
</event>
<event>
 8    1  0.5542925E-011  0.9118800E+02  0.7816164E-02  0.1184000E+00
        -11   -1    0    0    0    0  0.00000000000E+00  0.00000000000E+00  0.45593999997E+02  0.45594000000E+02  0.51100000000E-03 0.  1.
         11   -1    0    0    0    0 -0.00000000000E+00 -0.00000000000E+00 -0.45593999997E+02  0.45594000000E+02  0.51100000000E-03 0. -1.
         23    2    1    2    0    0  0.00000000000E+00 -0.71054273576E-14  0.00000000000E+00  0.91188000000E+02  0.91188000000E+02 0.  0.
    9900012    2    3    3    0    0  0.80199196808E+01  0.42375567207E+02 -0.48595432509E+01  0.47787274564E+02  0.20000016047E+02 0.  0.
        -12    1    3    3    0    0 -0.80199196808E+01 -0.42375567207E+02  0.48595432509E+01  0.43400725436E+02  0.00000000000E+00 0.  1.
         11    1    4    4    0    0  0.45634053938E+00  0.24871852134E+02 -0.29832464167E+01  0.25054281764E+02  0.51100000000E-03 0. -1.
        -11    1    4    4    0    0 -0.25557267557E+01  0.33551619544E+01 -0.31905672073E+01  0.52885319660E+01  0.51100000000E-03 0.  1.
        -12    1    4    4    0    0  0.10119305897E+02  0.14148553118E+02  0.13142703730E+01  0.17444460834E+02  0.00000000000E+00 0.  1.
</event>
<event>
 8    1  0.5542925E-011  0.9118800E+02  0.7816164E-02  0.1184000E+00
        -11   -1    0    0    0    0  0.00000000000E+00  0.00000000000E+00  0.45593999997E+02  0.45594000000E+02  0.51100000000E-03 0. -1.
         11   -1    0    0    0    0 -0.00000000000E+00 -0.00000000000E+00 -0.45593999997E+02  0.45594000000E+02  0.51100000000E-03 0.  1.
         23    2    1    2    0    0  0.00000000000E+00 -0.44408920985E-15  0.00000000000E+00  0.91188000000E+02  0.91188000000E+02 0.  0.
    9900012    2    3    3    0    0 -0.54205748679E+01 -0.32133970430E+01  0.42940829709E+02  0.47787269493E+02  0.19999992927E+02 0.  0.
        -12    1    3    3    0    0  0.54205748679E+01  0.32133970430E+01 -0.42940829709E+02  0.43400730507E+02  0.00000000000E+00 0.  1.
         11    1    4    4    0    0  0.36366919959E+01 -0.73160730240E+01  0.14236542056E+02  0.16414310316E+02  0.51100000000E-03 0. -1.
        -11    1    4    4    0    0 -0.55282427768E+00  0.58977450034E+00 -0.36148090876E+00  0.88550401002E+00  0.51100000000E-03 0.  1.
         12    1    4    4    0    0 -0.85044425861E+01  0.35129014807E+01  0.29065768561E+02  0.30487455167E+02  0.00000000000E+00 0. -1.
</event>
<event>
 8    1  0.5542925E-011  0.9118800E+02  0.7816164E-02  0.1184000E+00
        -11   -1    0    0    0    0  0.00000000000E+00  0.00000000000E+00  0.45593999997E+02  0.45594000000E+02  0.51100000000E-03 0. -1.
         11   -1    0    0    0    0 -0.00000000000E+00 -0.00000000000E+00 -0.45593999997E+02  0.45594000000E+02  0.51100000000E-03 0.  1.
         23    2    1    2    0    0  0.00000000000E+00 -0.17763568394E-14  0.00000000000E+00  0.91188000000E+02  0.91188000000E+02 0.  0.
    9900012    2    3    3    0    0  0.49220313498E+01  0.11762471346E+02  0.41485430969E+02  0.47787272961E+02  0.20000008740E+02 0.  0.
        -12    1    3    3    0    0 -0.49220313498E+01 -0.11762471346E+02 -0.41485430969E+02  0.43400727039E+02  0.00000000000E+00 0.  1.
         11    1    4    4    0    0  0.24708948738E+01  0.41144926587E-01  0.23266427531E+02  0.23397300372E+02  0.51100000000E-03 0. -1.
        -11    1    4    4    0    0 -0.31180871166E+01  0.71779723689E+00  0.70888560694E+01  0.77775047910E+01  0.51100000000E-03 0.  1.
         12    1    4    4    0    0  0.55692235927E+01  0.11003529182E+02  0.11130147369E+02  0.16612467798E+02  0.00000000000E+00 0. -1.
</event>
<event>
 8    1  0.5542925E-011  0.9118800E+02  0.7816164E-02  0.1184000E+00
        -11   -1    0    0    0    0  0.00000000000E+00  0.00000000000E+00  0.45593999997E+02  0.45594000000E+02  0.51100000000E-03 0. -1.
         11   -1    0    0    0    0 -0.00000000000E+00 -0.00000000000E+00 -0.45593999997E+02  0.45594000000E+02  0.51100000000E-03 0.  1.
         23    2    1    2    0    0  0.00000000000E+00  0.00000000000E+00  0.00000000000E+00  0.91188000000E+02  0.91188000000E+02 0.  0.
    9900012    2    3    3    0    0  0.98044514461E+01 -0.15886138898E+01 -0.42248920470E+02  0.47787282919E+02  0.20000054139E+02 0.  0.
         12    1    3    3    0    0 -0.98044514461E+01  0.15886138898E+01  0.42248920470E+02  0.43400717081E+02  0.00000000000E+00 0. -1.
         11    1    4    4    0    0 -0.12282253704E+01  0.12386195508E-01  0.40272952206E+00  0.12926261283E+01  0.51100000000E-03 0. -1.
        -11    1    4    4    0    0  0.72864980599E+01  0.56797750475E+01 -0.14644520928E+02  0.17315163644E+02  0.51100000000E-03 0.  1.
        -12    1    4    4    0    0  0.37461787566E+01 -0.72807751327E+01 -0.28007129065E+02  0.29179493146E+02  0.00000000000E+00 0.  1.
</event>
<event>
 8    1  0.5542925E-011  0.9118800E+02  0.7816164E-02  0.1184000E+00
        -11   -1    0    0    0    0  0.00000000000E+00  0.00000000000E+00  0.45593999997E+02  0.45594000000E+02  0.51100000000E-03 0. -1.
         11   -1    0    0    0    0 -0.00000000000E+00 -0.00000000000E+00 -0.45593999997E+02  0.45594000000E+02  0.51100000000E-03 0.  1.
         23    2    1    2    0    0  0.00000000000E+00  0.00000000000E+00  0.00000000000E+00  0.91188000000E+02  0.91188000000E+02 0.  0.
    9900012    2    3    3    0    0  0.28414508469E+02 -0.10717420262E+02 -0.31006122536E+02  0.47787227849E+02  0.19999803053E+02 0.  0.
         12    1    3    3    0    0 -0.28414508469E+02  0.10717420262E+02  0.31006122536E+02  0.43400772151E+02  0.00000000000E+00 0. -1.
         11    1    4    4    0    0  0.96939314069E+00 -0.25582337597E+01  0.24094025645E+01  0.36454771991E+01  0.51100000000E-03 0. -1.
        -11    1    4    4    0    0  0.93892023755E+01 -0.14025557878E+01 -0.96020264453E+01  0.13502710695E+02  0.51100000000E-03 0.  1.
         12    1    4    4    0    0  0.18055912953E+02 -0.67566307146E+01 -0.23813498655E+02  0.30639039955E+02  0.00000000000E+00 0. -1.
</event>
<event>
 8    1  0.5542925E-011  0.9118800E+02  0.7816164E-02  0.1184000E+00
        -11   -1    0    0    0    0  0.00000000000E+00  0.00000000000E+00  0.45593999997E+02  0.45594000000E+02  0.51100000000E-03 0. -1.
         11   -1    0    0    0    0 -0.00000000000E+00 -0.00000000000E+00 -0.45593999997E+02  0.45594000000E+02  0.51100000000E-03 0.  1.
         23    2    1    2    0    0  0.17763568394E-14  0.00000000000E+00  0.00000000000E+00  0.91188000000E+02  0.91188000000E+02 0.  0.
    9900012    2    3    3    0    0 -0.15083624942E+02 -0.40425248818E+01  0.40494007067E+02  0.47787281605E+02  0.20000048151E+02 0.  0.
        -12    1    3    3    0    0  0.15083624942E+02  0.40425248818E+01 -0.40494007067E+02  0.43400718395E+02  0.00000000000E+00 0.  1.
         11    1    4    4    0    0 -0.86421000674E+01  0.39364942359E+01  0.18924673579E+02  0.21173690060E+02  0.51100000000E-03 0. -1.
        -11    1    4    4    0    0 -0.11901951969E+01 -0.14626669087E+01  0.16949721849E+02  0.17054296529E+02  0.51100000000E-03 0.  1.
         12    1    4    4    0    0 -0.52513296776E+01 -0.65163522090E+01  0.46196116398E+01  0.95592950157E+01  0.00000000000E+00 0. -1.
</event>
<event>
 8    1  0.5542925E-011  0.9118800E+02  0.7816164E-02  0.1184000E+00
        -11   -1    0    0    0    0  0.00000000000E+00  0.00000000000E+00  0.45593999997E+02  0.45594000000E+02  0.51100000000E-03 0. -1.
         11   -1    0    0    0    0 -0.00000000000E+00 -0.00000000000E+00 -0.45593999997E+02  0.45594000000E+02  0.51100000000E-03 0.  1.
         23    2    1    2    0    0  0.17763568394E-14  0.35527136788E-14  0.00000000000E+00  0.91188000000E+02  0.91188000000E+02 0.  0.
    9900012    2    3    3    0    0  0.12995752479E+02  0.12625368804E+02  0.39437717020E+02  0.47787273696E+02  0.20000012089E+02 0.  0.
        -12    1    3    3    0    0 -0.12995752479E+02 -0.12625368804E+02 -0.39437717020E+02  0.43400726304E+02  0.00000000000E+00 0.  1.
         11    1    4    4    0    0  0.92857123964E+01  0.12683310941E+01  0.25458101525E+02  0.27128362501E+02  0.51100000000E-03 0. -1.
        -11    1    4    4    0    0  0.44717538522E+01  0.86884529511E+01  0.14826858895E+02  0.17757295463E+02  0.51100000000E-03 0.  1.
        -12    1    4    4    0    0 -0.76171376944E+00  0.26685847590E+01 -0.84724339909E+00  0.29016157326E+01  0.00000000000E+00 0.  1.
</event>
<event>
 8    1  0.5542925E-011  0.9118800E+02  0.7816164E-02  0.1184000E+00
        -11   -1    0    0    0    0  0.00000000000E+00  0.00000000000E+00  0.45593999997E+02  0.45594000000E+02  0.51100000000E-03 0. -1.
         11   -1    0    0    0    0 -0.00000000000E+00 -0.00000000000E+00 -0.45593999997E+02  0.45594000000E+02  0.51100000000E-03 0.  1.
         23    2    1    2    0    0  0.00000000000E+00  0.44408920985E-15 -0.71054273576E-14  0.91188000000E+02  0.91188000000E+02 0.  0.
    9900012    2    3    3    0    0  0.25018414288E+02 -0.30123182597E+01 -0.35335931272E+02  0.47787272430E+02  0.20000006316E+02 0.  0.
         12    1    3    3    0    0 -0.25018414288E+02  0.30123182597E+01  0.35335931272E+02  0.43400727570E+02  0.00000000000E+00 0. -1.
         11    1    4    4    0    0  0.10935246940E+01 -0.97925164034E+00  0.18938527227E-02  0.14679011817E+01  0.51100000000E-03 0. -1.
        -11    1    4    4    0    0  0.77569971006E+01  0.50862561008E+01 -0.22919506234E+02  0.24725387184E+02  0.51100000000E-03 0.  1.
        -12    1    4    4    0    0  0.16167892494E+02 -0.71193227202E+01 -0.12418318891E+02  0.21593984064E+02  0.00000000000E+00 0.  1.
</event>
<event>
 8    1  0.5542925E-011  0.9118800E+02  0.7816164E-02  0.1184000E+00
        -11   -1    0    0    0    0  0.00000000000E+00  0.00000000000E+00  0.45593999997E+02  0.45594000000E+02  0.51100000000E-03 0. -1.
         11   -1    0    0    0    0 -0.00000000000E+00 -0.00000000000E+00 -0.45593999997E+02  0.45594000000E+02  0.51100000000E-03 0.  1.
         23    2    1    2    0    0  0.00000000000E+00  0.35527136788E-14  0.00000000000E+00  0.91188000000E+02  0.91188000000E+02 0.  0.
    9900012    2    3    3    0    0 -0.22985414365E+02 -0.16981472851E+02 -0.32663863969E+02  0.47787220017E+02  0.19999767344E+02 0.  0.
         12    1    3    3    0    0  0.22985414365E+02  0.16981472851E+02  0.32663863969E+02  0.43400779983E+02  0.00000000000E+00 0. -1.
         11    1    4    4    0    0  0.25254434853E+01 -0.38710951798E+01 -0.14739545072E+01  0.48513693778E+01  0.51100000000E-03 0. -1.
        -11    1    4    4    0    0 -0.50115980276E+01  0.38500858898E-01 -0.70077087438E+01  0.86154268150E+01  0.51100000000E-03 0.  1.
        -12    1    4    4    0    0 -0.20499259823E+02 -0.13148878530E+02 -0.24182200718E+02  0.34320423824E+02  0.00000000000E+00 0.  1.
</event>
<event>
 8    1  0.5542925E-011  0.9118800E+02  0.7816164E-02  0.1184000E+00
        -11   -1    0    0    0    0  0.00000000000E+00  0.00000000000E+00  0.45593999997E+02  0.45594000000E+02  0.51100000000E-03 0. -1.
         11   -1    0    0    0    0 -0.00000000000E+00 -0.00000000000E+00 -0.45593999997E+02  0.45594000000E+02  0.51100000000E-03 0.  1.
         23    2    1    2    0    0  0.00000000000E+00 -0.44408920985E-15  0.00000000000E+00  0.91188000000E+02  0.91188000000E+02 0.  0.
    9900012    2    3    3    0    0  0.32724487661E+02 -0.37458374401E+01  0.28261277790E+02  0.47787271744E+02  0.20000003190E+02 0.  0.
        -12    1    3    3    0    0 -0.32724487661E+02  0.37458374401E+01 -0.28261277790E+02  0.43400728256E+02  0.00000000000E+00 0.  1.
         11    1    4    4    0    0  0.12056660467E+02  0.48211103627E+01  0.50648667055E+01  0.13937684232E+02  0.51100000000E-03 0. -1.
        -11    1    4    4    0    0  0.27383841153E+01  0.36330551065E+00 -0.51520627103E+00  0.28100135622E+01  0.51100000000E-03 0.  1.
        -12    1    4    4    0    0  0.17929443079E+02 -0.89302533134E+01  0.23711617356E+02  0.31039573950E+02  0.00000000000E+00 0.  1.
</event>
<event>
 8    1  0.5542925E-011  0.9118800E+02  0.7816164E-02  0.1184000E+00
        -11   -1    0    0    0    0  0.00000000000E+00  0.00000000000E+00  0.45593999997E+02  0.45594000000E+02  0.51100000000E-03 0. -1.
         11   -1    0    0    0    0 -0.00000000000E+00 -0.00000000000E+00 -0.45593999997E+02  0.45594000000E+02  0.51100000000E-03 0.  1.
         23    2    1    2    0    0  0.00000000000E+00  0.00000000000E+00  0.00000000000E+00  0.91188000000E+02  0.91188000000E+02 0.  0.
    9900012    2    3    3    0    0  0.45719130388E+01 -0.58487191748E+01  0.42761121402E+02  0.47787269495E+02  0.19999992936E+02 0.  0.
        -12    1    3    3    0    0 -0.45719130388E+01  0.58487191748E+01 -0.42761121402E+02  0.43400730505E+02  0.00000000000E+00 0.  1.
         11    1    4    4    0    0  0.99382226109E+01  0.49059579515E-01  0.26291716404E+02  0.28107383856E+02  0.51100000000E-03 0. -1.
        -11    1    4    4    0    0  0.14306036901E+01 -0.31124766182E+01  0.50634644904E+01  0.61133305590E+01  0.51100000000E-03 0.  1.
        -12    1    4    4    0    0 -0.67969132622E+01 -0.27853021361E+01  0.11405940508E+02  0.13566555080E+02  0.00000000000E+00 0.  1.
</event>
<event>
 8    1  0.5542925E-011  0.9118800E+02  0.7816164E-02  0.1184000E+00
        -11   -1    0    0    0    0  0.00000000000E+00  0.00000000000E+00  0.45593999997E+02  0.45594000000E+02  0.51100000000E-03 0. -1.
         11   -1    0    0    0    0 -0.00000000000E+00 -0.00000000000E+00 -0.45593999997E+02  0.45594000000E+02  0.51100000000E-03 0.  1.
         23    2    1    2    0    0 -0.35527136788E-14  0.00000000000E+00  0.00000000000E+00  0.91188000000E+02  0.91188000000E+02 0.  0.
    9900012    2    3    3    0    0  0.30444260208E+02  0.88964917912E+01  0.29624683213E+02  0.47787281097E+02  0.20000045835E+02 0.  0.
        -12    1    3    3    0    0 -0.30444260208E+02 -0.88964917912E+01 -0.29624683213E+02  0.43400718903E+02  0.00000000000E+00 0.  1.
         11    1    4    4    0    0 -0.50685398441E-01 -0.27706185931E+01  0.58619798404E+00  0.28324061742E+01  0.51100000000E-03 0. -1.
        -11    1    4    4    0    0  0.43851785058E+00 -0.34638813500E+00 -0.77035192328E+00  0.95169585067E+00  0.51100000000E-03 0.  1.
         12    1    4    4    0    0  0.30056427756E+02  0.12013498519E+02  0.29808837152E+02  0.44003179072E+02  0.00000000000E+00 0. -1.
</event>
<event>
 8    1  0.5542925E-011  0.9118800E+02  0.7816164E-02  0.1184000E+00
        -11   -1    0    0    0    0  0.00000000000E+00  0.00000000000E+00  0.45593999997E+02  0.45594000000E+02  0.51100000000E-03 0. -1.
         11   -1    0    0    0    0 -0.00000000000E+00 -0.00000000000E+00 -0.45593999997E+02  0.45594000000E+02  0.51100000000E-03 0.  1.
         23    2    1    2    0    0  0.00000000000E+00 -0.17763568394E-14  0.00000000000E+00  0.91188000000E+02  0.91188000000E+02 0.  0.
    9900012    2    3    3    0    0  0.29158255992E+02  0.98117373866E+01 -0.30612894800E+02  0.47787269464E+02  0.19999992795E+02 0.  0.
         12    1    3    3    0    0 -0.29158255992E+02 -0.98117373866E+01  0.30612894800E+02  0.43400730536E+02  0.00000000000E+00 0. -1.
         11    1    4    4    0    0  0.26348595134E+01  0.59625796201E+01 -0.91651543270E+00  0.65829204143E+01  0.51100000000E-03 0. -1.
        -11    1    4    4    0    0  0.10807836197E+02  0.34485557371E+01 -0.61842409141E+01  0.12920785421E+02  0.51100000000E-03 0.  1.
        -12    1    4    4    0    0  0.15715560281E+02  0.40060202946E+00 -0.23512138453E+02  0.28283563629E+02  0.00000000000E+00 0.  1.
</event>
<event>
 8    1  0.5592832E-011  0.9118800E+02  0.7816164E-02  0.1184000E+00
        -11   -1    0    0    0    0  0.00000000000E+00  0.00000000000E+00  0.45593999997E+02  0.45594000000E+02  0.51100000000E-03 0. -1.
         11   -1    0    0    0    0 -0.00000000000E+00 -0.00000000000E+00 -0.45593999997E+02  0.45594000000E+02  0.51100000000E-03 0.  1.
         23    2    1    2    0    0  0.44408920985E-15  0.00000000000E+00  0.00000000000E+00  0.91188000000E+02  0.91188000000E+02 0.  0.
    9900012    2    3    3    0    0 -0.28728445937E+01  0.28535269799E+02  0.32574659338E+02  0.47787270864E+02  0.19999999177E+02 0.  0.
        -12    1    3    3    0    0  0.28728445937E+01 -0.28535269799E+02 -0.32574659338E+02  0.43400729136E+02  0.00000000000E+00 0.  1.
         11    1    4    4    0    0  0.46947721362E+01  0.18132919329E+02  0.24868507711E+02  0.31133363532E+02  0.51100000000E-03 0. -1.
        -11    1    4    4    0    0  0.11072390429E+00 -0.71709327430E+00 -0.46571372437E+00  0.86219028133E+00  0.51100000000E-03 0.  1.
         12    1    4    4    0    0 -0.76783406342E+01  0.11119443745E+02  0.81718653515E+01  0.15791717051E+02  0.00000000000E+00 0. -1.
</event>
<event>
 8    1  0.5542925E-011  0.9118800E+02  0.7816164E-02  0.1184000E+00
        -11   -1    0    0    0    0  0.00000000000E+00  0.00000000000E+00  0.45593999997E+02  0.45594000000E+02  0.51100000000E-03 0. -1.
         11   -1    0    0    0    0 -0.00000000000E+00 -0.00000000000E+00 -0.45593999997E+02  0.45594000000E+02  0.51100000000E-03 0.  1.
         23    2    1    2    0    0 -0.71054273576E-14  0.00000000000E+00  0.00000000000E+00  0.91188000000E+02  0.91188000000E+02 0.  0.
    9900012    2    3    3    0    0  0.22567632998E+02 -0.17882783883E+02 -0.32473544628E+02  0.47787272826E+02  0.20000008122E+02 0.  0.
         12    1    3    3    0    0 -0.22567632998E+02  0.17882783883E+02  0.32473544628E+02  0.43400727174E+02  0.00000000000E+00 0. -1.
         11    1    4    4    0    0  0.37465858227E+01 -0.34724984100E+01 -0.34447314679E+01  0.61612763029E+01  0.51100000000E-03 0. -1.
        -11    1    4    4    0    0  0.21972770458E+02 -0.11545218299E+02 -0.27632471007E+02  0.37143615351E+02  0.51100000000E-03 0.  1.
         12    1    4    4    0    0 -0.31517232822E+01 -0.28650671735E+01 -0.13963421533E+01  0.44823811714E+01  0.00000000000E+00 0. -1.
</event>
<event>
 8    1  0.5542925E-011  0.9118800E+02  0.7816164E-02  0.1184000E+00
        -11   -1    0    0    0    0  0.00000000000E+00  0.00000000000E+00  0.45593999997E+02  0.45594000000E+02  0.51100000000E-03 0. -1.
         11   -1    0    0    0    0 -0.00000000000E+00 -0.00000000000E+00 -0.45593999997E+02  0.45594000000E+02  0.51100000000E-03 0.  1.
         23    2    1    2    0    0 -0.35527136788E-14  0.35527136788E-14  0.71054273576E-14  0.91188000000E+02  0.91188000000E+02 0.  0.
    9900012    2    3    3    0    0  0.17307879710E+02 -0.26048236982E+02 -0.30092355547E+02  0.47787271754E+02  0.20000003234E+02 0.  0.
         12    1    3    3    0    0 -0.17307879710E+02  0.26048236982E+02  0.30092355547E+02  0.43400728246E+02  0.00000000000E+00 0. -1.
         11    1    4    4    0    0  0.97824699230E+01 -0.11735245034E+02 -0.10776146972E+02  0.18695936393E+02  0.51100000000E-03 0. -1.
        -11    1    4    4    0    0  0.10757985099E+02 -0.14345323410E+02 -0.18485922506E+02  0.25753676985E+02  0.51100000000E-03 0.  1.
         12    1    4    4    0    0 -0.32325753118E+01  0.32331461772E-01 -0.83028606950E+00  0.33376583749E+01  0.00000000000E+00 0. -1.
</event>
<event>
 8    1  0.5542925E-011  0.9118800E+02  0.7816164E-02  0.1184000E+00
        -11   -1    0    0    0    0  0.00000000000E+00  0.00000000000E+00  0.45593999997E+02  0.45594000000E+02  0.51100000000E-03 0. -1.
         11   -1    0    0    0    0 -0.00000000000E+00 -0.00000000000E+00 -0.45593999997E+02  0.45594000000E+02  0.51100000000E-03 0.  1.
         23    2    1    2    0    0  0.00000000000E+00  0.00000000000E+00  0.71054273576E-14  0.91188000000E+02  0.91188000000E+02 0.  0.
    9900012    2    3    3    0    0  0.58855446947E+01 -0.13566269801E+02  0.40803674990E+02  0.47787271834E+02  0.20000003600E+02 0.  0.
        -12    1    3    3    0    0 -0.58855446947E+01  0.13566269801E+02 -0.40803674990E+02  0.43400728166E+02  0.00000000000E+00 0.  1.
         11    1    4    4    0    0  0.11999634760E+01 -0.24493664127E+01  0.19800895414E+02  0.19987865510E+02  0.51100000000E-03 0. -1.
        -11    1    4    4    0    0 -0.46422044777E+01 -0.17603117992E+01  0.65314727523E+01  0.82041999377E+01  0.51100000000E-03 0.  1.
        -12    1    4    4    0    0  0.93277856964E+01 -0.93565915891E+01  0.14471306823E+02  0.19595206386E+02  0.00000000000E+00 0.  1.
</event>
<event>
 8    1  0.5542925E-011  0.9118800E+02  0.7816164E-02  0.1184000E+00
        -11   -1    0    0    0    0  0.00000000000E+00  0.00000000000E+00  0.45593999997E+02  0.45594000000E+02  0.51100000000E-03 0. -1.
         11   -1    0    0    0    0 -0.00000000000E+00 -0.00000000000E+00 -0.45593999997E+02  0.45594000000E+02  0.51100000000E-03 0.  1.
         23    2    1    2    0    0  0.00000000000E+00  0.88817841970E-15  0.00000000000E+00  0.91188000000E+02  0.91188000000E+02 0.  0.
    9900012    2    3    3    0    0  0.54839567106E+01 -0.43753608080E+01 -0.42829964851E+02  0.47787268986E+02  0.19999990613E+02 0.  0.
         12    1    3    3    0    0 -0.54839567106E+01  0.43753608080E+01  0.42829964851E+02  0.43400731014E+02  0.00000000000E+00 0. -1.
         11    1    4    4    0    0  0.22807104011E+01  0.33810412094E+01 -0.18873368778E+01  0.44938981235E+01  0.51100000000E-03 0. -1.
        -11    1    4    4    0    0 -0.78459495040E+00 -0.35713837472E+01 -0.25259281641E+01  0.44441742155E+01  0.51100000000E-03 0.  1.
        -12    1    4    4    0    0  0.39878412599E+01 -0.41850182701E+01 -0.38416699810E+02  0.38849196647E+02  0.00000000000E+00 0.  1.
</event>
<event>
 8    1  0.5542925E-011  0.9118800E+02  0.7816164E-02  0.1184000E+00
        -11   -1    0    0    0    0  0.00000000000E+00  0.00000000000E+00  0.45593999997E+02  0.45594000000E+02  0.51100000000E-03 0. -1.
         11   -1    0    0    0    0 -0.00000000000E+00 -0.00000000000E+00 -0.45593999997E+02  0.45594000000E+02  0.51100000000E-03 0.  1.
         23    2    1    2    0    0  0.00000000000E+00  0.44408920985E-15  0.00000000000E+00  0.91188000000E+02  0.91188000000E+02 0.  0.
    9900012    2    3    3    0    0  0.15198515370E+02  0.26908129472E+01 -0.40563380601E+02  0.47787272016E+02  0.20000004430E+02 0.  0.
         12    1    3    3    0    0 -0.15198515370E+02 -0.26908129472E+01  0.40563380601E+02  0.43400727984E+02  0.00000000000E+00 0. -1.
         11    1    4    4    0    0  0.15065901787E+01  0.40431772578E+01 -0.60412884083E+01  0.74238980461E+01  0.51100000000E-03 0.  1.
        -11    1    4    4    0    0  0.12629388169E+02  0.54985801405E+01 -0.20172033737E+02  0.24426354096E+02  0.51100000000E-03 0. -1.
         12    1    4    4    0    0  0.10625370232E+01 -0.68509444512E+01 -0.14350058456E+02  0.15937019874E+02  0.00000000000E+00 0. -1.
</event>
<event>
 8    1  0.5542925E-011  0.9118800E+02  0.7816164E-02  0.1184000E+00
        -11   -1    0    0    0    0  0.00000000000E+00  0.00000000000E+00  0.45593999997E+02  0.45594000000E+02  0.51100000000E-03 0. -1.
         11   -1    0    0    0    0 -0.00000000000E+00 -0.00000000000E+00 -0.45593999997E+02  0.45594000000E+02  0.51100000000E-03 0.  1.
         23    2    1    2    0    0  0.00000000000E+00  0.00000000000E+00  0.00000000000E+00  0.91188000000E+02  0.91188000000E+02 0.  0.
    9900012    2    3    3    0    0 -0.16106869688E+02  0.39342351272E+01 -0.40108772464E+02  0.47787273211E+02  0.20000009880E+02 0.  0.
         12    1    3    3    0    0  0.16106869688E+02 -0.39342351272E+01  0.40108772464E+02  0.43400726789E+02  0.00000000000E+00 0. -1.
         11    1    4    4    0    0 -0.12490760571E+02  0.26324340361E+01 -0.19093915955E+02  0.22967943646E+02  0.51100000000E-03 0. -1.
        -11    1    4    4    0    0 -0.28262016985E+01  0.13832260865E+01  0.58873665143E+00  0.32011469121E+01  0.51100000000E-03 0.  1.
        -12    1    4    4    0    0 -0.78990741933E+00 -0.81424995374E-01 -0.21603593161E+02  0.21618182653E+02  0.00000000000E+00 0.  1.
</event>
<event>
 8    1  0.5542925E-011  0.9118800E+02  0.7816164E-02  0.1184000E+00
        -11   -1    0    0    0    0  0.00000000000E+00  0.00000000000E+00  0.45593999997E+02  0.45594000000E+02  0.51100000000E-03 0. -1.
         11   -1    0    0    0    0 -0.00000000000E+00 -0.00000000000E+00 -0.45593999997E+02  0.45594000000E+02  0.51100000000E-03 0.  1.
         23    2    1    2    0    0 -0.17763568394E-14 -0.27755575616E-15  0.00000000000E+00  0.91188000000E+02  0.91188000000E+02 0.  0.
    9900012    2    3    3    0    0 -0.13175253573E+02  0.27612971290E+00  0.41351657138E+02  0.47787273020E+02  0.20000009007E+02 0.  0.
        -12    1    3    3    0    0  0.13175253573E+02 -0.27612971290E+00 -0.41351657138E+02  0.43400726980E+02  0.00000000000E+00 0.  1.
         11    1    4    4    0    0 -0.87951441464E+01 -0.63959981494E+01  0.94065778262E+01  0.14378701595E+02  0.51100000000E-03 0. -1.
        -11    1    4    4    0    0 -0.74148659092E+00  0.25119721173E+01  0.31914237982E+01  0.41285581506E+01  0.51100000000E-03 0.  1.
         12    1    4    4    0    0 -0.36386228354E+01  0.41601557451E+01  0.28753655514E+02  0.29280013275E+02  0.00000000000E+00 0. -1.
</event>
<event>
 8    1  0.5542925E-011  0.9118800E+02  0.7816164E-02  0.1184000E+00
        -11   -1    0    0    0    0  0.00000000000E+00  0.00000000000E+00  0.45593999997E+02  0.45594000000E+02  0.51100000000E-03 0. -1.
         11   -1    0    0    0    0 -0.00000000000E+00 -0.00000000000E+00 -0.45593999997E+02  0.45594000000E+02  0.51100000000E-03 0.  1.
         23    2    1    2    0    0  0.17763568394E-14  0.00000000000E+00  0.00000000000E+00  0.91188000000E+02  0.91188000000E+02 0.  0.
    9900012    2    3    3    0    0 -0.97942142688E+01 -0.16360866659E+02 -0.38987415906E+02  0.47787272011E+02  0.20000004406E+02 0.  0.
         12    1    3    3    0    0  0.97942142688E+01  0.16360866659E+02  0.38987415906E+02  0.43400727989E+02  0.00000000000E+00 0. -1.
         11    1    4    4    0    0  0.34484570119E+01  0.13110819523E+01 -0.37169768370E+01  0.52370515289E+01  0.51100000000E-03 0. -1.
        -11    1    4    4    0    0 -0.11945139488E+01  0.95559521727E+00 -0.32943091138E+01  0.36321479309E+01  0.51100000000E-03 0.  1.
        -12    1    4    4    0    0 -0.12048157332E+02 -0.18627543829E+02 -0.31976129955E+02  0.38918072551E+02  0.00000000000E+00 0.  1.
</event>
<event>
 8    1  0.6110085E-011  0.9118800E+02  0.7816164E-02  0.1184000E+00
        -11   -1    0    0    0    0  0.00000000000E+00  0.00000000000E+00  0.45593999997E+02  0.45594000000E+02  0.51100000000E-03 0. -1.
         11   -1    0    0    0    0 -0.00000000000E+00 -0.00000000000E+00 -0.45593999997E+02  0.45594000000E+02  0.51100000000E-03 0.  1.
         23    2    1    2    0    0  0.00000000000E+00  0.00000000000E+00  0.00000000000E+00  0.91188000000E+02  0.91188000000E+02 0.  0.
    9900012    2    3    3    0    0 -0.28360432589E+02 -0.10328306988E+02  0.31187093230E+02  0.47787275973E+02  0.20000022473E+02 0.  0.
        -12    1    3    3    0    0  0.28360432589E+02  0.10328306988E+02 -0.31187093230E+02  0.43400724027E+02  0.00000000000E+00 0.  1.
         11    1    4    4    0    0 -0.14039820018E+02 -0.65001917806E+01  0.10486685126E+02  0.18690628788E+02  0.51100000000E-03 0. -1.
        -11    1    4    4    0    0 -0.38509626319E+01 -0.69536052462E+01  0.34234121644E+01  0.86546109226E+01  0.51100000000E-03 0.  1.
         12    1    4    4    0    0 -0.10469649939E+02  0.31254900390E+01  0.17276995940E+02  0.20442036263E+02  0.00000000000E+00 0. -1.
</event>
<event>
 8    1  0.5542925E-011  0.9118800E+02  0.7816164E-02  0.1184000E+00
        -11   -1    0    0    0    0  0.00000000000E+00  0.00000000000E+00  0.45593999997E+02  0.45594000000E+02  0.51100000000E-03 0. -1.
         11   -1    0    0    0    0 -0.00000000000E+00 -0.00000000000E+00 -0.45593999997E+02  0.45594000000E+02  0.51100000000E-03 0.  1.
         23    2    1    2    0    0  0.00000000000E+00 -0.88817841970E-15 -0.71054273576E-14  0.91188000000E+02  0.91188000000E+02 0.  0.
    9900012    2    3    3    0    0  0.20180360289E+02  0.78115006006E+01  0.37621223648E+02  0.47787274755E+02  0.20000016919E+02 0.  0.
        -12    1    3    3    0    0 -0.20180360289E+02 -0.78115006006E+01 -0.37621223648E+02  0.43400725245E+02  0.00000000000E+00 0.  1.
         11    1    4    4    0    0  0.14885970657E+02  0.91891701713E+01  0.22197801540E+02  0.28262614251E+02  0.51100000000E-03 0. -1.
        -11    1    4    4    0    0  0.32430045219E+01  0.41378158289E+01  0.37685018686E+01  0.64684004791E+01  0.51100000000E-03 0.  1.
         12    1    4    4    0    0  0.20513851096E+01 -0.55154853995E+01  0.11654920239E+02  0.13056260025E+02  0.00000000000E+00 0. -1.
</event>
<event>
 8    1  0.5542925E-011  0.9118800E+02  0.7816164E-02  0.1184000E+00
        -11   -1    0    0    0    0  0.00000000000E+00  0.00000000000E+00  0.45593999997E+02  0.45594000000E+02  0.51100000000E-03 0. -1.
         11   -1    0    0    0    0 -0.00000000000E+00 -0.00000000000E+00 -0.45593999997E+02  0.45594000000E+02  0.51100000000E-03 0.  1.
         23    2    1    2    0    0  0.35527136788E-14  0.00000000000E+00  0.00000000000E+00  0.91188000000E+02  0.91188000000E+02 0.  0.
    9900012    2    3    3    0    0 -0.28337043232E+02  0.16359464607E+02 -0.28513217186E+02  0.47787266646E+02  0.19999979945E+02 0.  0.
         12    1    3    3    0    0  0.28337043232E+02 -0.16359464607E+02  0.28513217186E+02  0.43400733354E+02  0.00000000000E+00 0. -1.
         11    1    4    4    0    0  0.50510670987E+00  0.18433167519E+01 -0.38025131042E+01  0.42558260778E+01  0.51100000000E-03 0. -1.
        -11    1    4    4    0    0  0.71669579752E+00  0.28153619963E+01 -0.59415368293E+01  0.66137565869E+01  0.51100000000E-03 0.  1.
        -12    1    4    4    0    0 -0.29558845740E+02  0.11700785859E+02 -0.18769167253E+02  0.36917683981E+02  0.00000000000E+00 0.  1.
</event>
<event>
 8    1  0.5542925E-011  0.9118800E+02  0.7816164E-02  0.1184000E+00
        -11   -1    0    0    0    0  0.00000000000E+00  0.00000000000E+00  0.45593999997E+02  0.45594000000E+02  0.51100000000E-03 0. -1.
         11   -1    0    0    0    0 -0.00000000000E+00 -0.00000000000E+00 -0.45593999997E+02  0.45594000000E+02  0.51100000000E-03 0.  1.
         23    2    1    2    0    0  0.00000000000E+00  0.00000000000E+00  0.35527136788E-14  0.91188000000E+02  0.91188000000E+02 0.  0.
    9900012    2    3    3    0    0  0.25704369226E+02 -0.18953153038E+02  0.29388546746E+02  0.47787270891E+02  0.19999999298E+02 0.  0.
        -12    1    3    3    0    0 -0.25704369226E+02  0.18953153038E+02 -0.29388546746E+02  0.43400729109E+02  0.00000000000E+00 0.  1.
         11    1    4    4    0    0  0.52528464720E+01 -0.18278258943E+01  0.23009000504E+01  0.60189272184E+01  0.51100000000E-03 0.  1.
        -11    1    4    4    0    0  0.11192112566E+02 -0.14991733920E+02  0.26242721035E+02  0.32228805085E+02  0.51100000000E-03 0. -1.
         12    1    4    4    0    0  0.92594101882E+01 -0.21335932237E+01  0.84492566011E+00  0.95395385867E+01  0.00000000000E+00 0. -1.
</event>
<event>
 8    1  0.5542925E-011  0.9118800E+02  0.7816164E-02  0.1184000E+00
        -11   -1    0    0    0    0  0.00000000000E+00  0.00000000000E+00  0.45593999997E+02  0.45594000000E+02  0.51100000000E-03 0. -1.
         11   -1    0    0    0    0 -0.00000000000E+00 -0.00000000000E+00 -0.45593999997E+02  0.45594000000E+02  0.51100000000E-03 0.  1.
         23    2    1    2    0    0 -0.35527136788E-14 -0.17763568394E-14  0.00000000000E+00  0.91188000000E+02  0.91188000000E+02 0.  0.
    9900012    2    3    3    0    0  0.18126939179E+02  0.12605427203E+02 -0.37364948684E+02  0.47787284463E+02  0.20000061179E+02 0.  0.
         12    1    3    3    0    0 -0.18126939179E+02 -0.12605427203E+02  0.37364948684E+02  0.43400715537E+02  0.00000000000E+00 0. -1.
         11    1    4    4    0    0  0.14811209723E+01  0.93888318277E+00 -0.48438962563E+01  0.51515582272E+01  0.51100000000E-03 0. -1.
        -11    1    4    4    0    0  0.99919371833E+01  0.14602400087E+02 -0.30199987433E+02  0.35001544797E+02  0.51100000000E-03 0.  1.
        -12    1    4    4    0    0  0.66538810238E+01 -0.29358560664E+01 -0.23210649947E+01  0.76341814382E+01  0.00000000000E+00 0.  1.
</event>
<event>
 8    1  0.5542925E-011  0.9118800E+02  0.7816164E-02  0.1184000E+00
        -11   -1    0    0    0    0  0.00000000000E+00  0.00000000000E+00  0.45593999997E+02  0.45594000000E+02  0.51100000000E-03 0. -1.
         11   -1    0    0    0    0 -0.00000000000E+00 -0.00000000000E+00 -0.45593999997E+02  0.45594000000E+02  0.51100000000E-03 0.  1.
         23    2    1    2    0    0  0.00000000000E+00  0.00000000000E+00  0.00000000000E+00  0.91188000000E+02  0.91188000000E+02 0.  0.
    9900012    2    3    3    0    0  0.81774555603E+01 -0.27613658290E+02  0.32469037733E+02  0.47787270572E+02  0.19999997844E+02 0.  0.
        -12    1    3    3    0    0 -0.81774555603E+01  0.27613658290E+02 -0.32469037733E+02  0.43400729428E+02  0.00000000000E+00 0.  1.
         11    1    4    4    0    0 -0.32385079735E+01 -0.27546006855E+01  0.52099686655E+01  0.67245470172E+01  0.51100000000E-03 0. -1.
        -11    1    4    4    0    0  0.72820613324E+01 -0.30520773780E+01  0.11039630705E+02  0.13572657807E+02  0.51100000000E-03 0.  1.
         12    1    4    4    0    0  0.41339022014E+01 -0.21806980227E+02  0.16219438362E+02  0.27490065747E+02  0.00000000000E+00 0. -1.
</event>
<event>
 8    1  0.5542925E-011  0.9118800E+02  0.7816164E-02  0.1184000E+00
        -11   -1    0    0    0    0  0.00000000000E+00  0.00000000000E+00  0.45593999997E+02  0.45594000000E+02  0.51100000000E-03 0. -1.
         11   -1    0    0    0    0 -0.00000000000E+00 -0.00000000000E+00 -0.45593999997E+02  0.45594000000E+02  0.51100000000E-03 0.  1.
         23    2    1    2    0    0  0.00000000000E+00  0.00000000000E+00  0.00000000000E+00  0.91188000000E+02  0.91188000000E+02 0.  0.
    9900012    2    3    3    0    0  0.20042561752E+02 -0.22159622347E+02  0.31478087597E+02  0.47787272553E+02  0.20000006879E+02 0.  0.
        -12    1    3    3    0    0 -0.20042561752E+02  0.22159622347E+02 -0.31478087597E+02  0.43400727447E+02  0.00000000000E+00 0.  1.
         11    1    4    4    0    0  0.73969502271E+01  0.30675243700E+00  0.15859314630E+01  0.75712712662E+01  0.51100000000E-03 0. -1.
        -11    1    4    4    0    0 -0.71614879300E+00 -0.41528380541E+01  0.52541402702E+01  0.67353487837E+01  0.51100000000E-03 0.  1.
         12    1    4    4    0    0  0.13361760318E+02 -0.18313536730E+02  0.24638015864E+02  0.33480652503E+02  0.00000000000E+00 0. -1.
</event>
<event>
 8    1  0.5542925E-011  0.9118800E+02  0.7816164E-02  0.1184000E+00
        -11   -1    0    0    0    0  0.00000000000E+00  0.00000000000E+00  0.45593999997E+02  0.45594000000E+02  0.51100000000E-03 0. -1.
         11   -1    0    0    0    0 -0.00000000000E+00 -0.00000000000E+00 -0.45593999997E+02  0.45594000000E+02  0.51100000000E-03 0.  1.
         23    2    1    2    0    0  0.00000000000E+00  0.00000000000E+00 -0.17763568394E-14  0.91188000000E+02  0.91188000000E+02 0.  0.
    9900012    2    3    3    0    0  0.41314197935E+02 -0.42869472313E+01  0.12585008845E+02  0.47787270568E+02  0.19999997828E+02 0.  0.
        -12    1    3    3    0    0 -0.41314197935E+02  0.42869472313E+01 -0.12585008845E+02  0.43400729432E+02  0.00000000000E+00 0.  1.
         11    1    4    4    0    0  0.36781539173E+01  0.26952752914E+01  0.11801306077E+01  0.47102052660E+01  0.51100000000E-03 0. -1.
        -11    1    4    4    0    0  0.20358671964E+01 -0.25734659645E+01 -0.29757969200E+01  0.44297686036E+01  0.51100000000E-03 0.  1.
         12    1    4    4    0    0  0.35600176821E+02 -0.44087565582E+01  0.14380675158E+02  0.38647296698E+02  0.00000000000E+00 0. -1.
</event>
<event>
 8    1  0.5542925E-011  0.9118800E+02  0.7816164E-02  0.1184000E+00
        -11   -1    0    0    0    0  0.00000000000E+00  0.00000000000E+00  0.45593999997E+02  0.45594000000E+02  0.51100000000E-03 0. -1.
         11   -1    0    0    0    0 -0.00000000000E+00 -0.00000000000E+00 -0.45593999997E+02  0.45594000000E+02  0.51100000000E-03 0.  1.
         23    2    1    2    0    0  0.00000000000E+00  0.44408920985E-15  0.00000000000E+00  0.91188000000E+02  0.91188000000E+02 0.  0.
    9900012    2    3    3    0    0 -0.23352470067E+02 -0.17576569951E+01  0.36540335687E+02  0.47787270185E+02  0.19999996080E+02 0.  0.
        -12    1    3    3    0    0  0.23352470067E+02  0.17576569951E+01 -0.36540335687E+02  0.43400729815E+02  0.00000000000E+00 0.  1.
         11    1    4    4    0    0 -0.22804244038E+01 -0.14935395588E+01  0.10386242414E+02  0.10738017863E+02  0.51100000000E-03 0. -1.
        -11    1    4    4    0    0 -0.37154206540E+01  0.53238822925E+01  0.13111558364E+02  0.14630824867E+02  0.51100000000E-03 0.  1.
        -12    1    4    4    0    0 -0.17356625009E+02 -0.55879997289E+01  0.13042534909E+02  0.22418427455E+02  0.00000000000E+00 0.  1.
</event>
<event>
 8    1  0.5542925E-011  0.9118800E+02  0.7816164E-02  0.1184000E+00
        -11   -1    0    0    0    0  0.00000000000E+00  0.00000000000E+00  0.45593999997E+02  0.45594000000E+02  0.51100000000E-03 0. -1.
         11   -1    0    0    0    0 -0.00000000000E+00 -0.00000000000E+00 -0.45593999997E+02  0.45594000000E+02  0.51100000000E-03 0.  1.
         23    2    1    2    0    0  0.00000000000E+00  0.00000000000E+00  0.00000000000E+00  0.91188000000E+02  0.91188000000E+02 0.  0.
    9900012    2    3    3    0    0  0.19854541005E+02 -0.18647538347E+02  0.33788897671E+02  0.47787273154E+02  0.20000009618E+02 0.  0.
        -12    1    3    3    0    0 -0.19854541005E+02  0.18647538347E+02 -0.33788897671E+02  0.43400726846E+02  0.00000000000E+00 0.  1.
         11    1    4    4    0    0  0.51665524174E+01  0.16904459672E+01  0.84969306398E+01  0.10087056162E+02  0.51100000000E-03 0. -1.
        -11    1    4    4    0    0  0.10623653417E+01  0.17188306851E+01  0.15652577814E+01  0.25559795044E+01  0.51100000000E-03 0.  1.
        -12    1    4    4    0    0  0.13625623246E+02 -0.22056814999E+02  0.23726709250E+02  0.35144237488E+02  0.00000000000E+00 0.  1.
</event>
<event>
 8    1  0.5542925E-011  0.9118800E+02  0.7816164E-02  0.1184000E+00
        -11   -1    0    0    0    0  0.00000000000E+00  0.00000000000E+00  0.45593999997E+02  0.45594000000E+02  0.51100000000E-03 0. -1.
         11   -1    0    0    0    0 -0.00000000000E+00 -0.00000000000E+00 -0.45593999997E+02  0.45594000000E+02  0.51100000000E-03 0.  1.
         23    2    1    2    0    0  0.00000000000E+00  0.00000000000E+00  0.00000000000E+00  0.91188000000E+02  0.91188000000E+02 0.  0.
    9900012    2    3    3    0    0  0.16522269904E+02 -0.35785510774E+02 -0.18166862463E+02  0.47787273326E+02  0.20000010400E+02 0.  0.
         12    1    3    3    0    0 -0.16522269904E+02  0.35785510774E+02  0.18166862463E+02  0.43400726674E+02  0.00000000000E+00 0. -1.
         11    1    4    4    0    0 -0.28757912635E+01 -0.78559395607E+01 -0.27070079700E+01  0.87928297029E+01  0.51100000000E-03 0. -1.
        -11    1    4    4    0    0  0.52605246272E+01 -0.10102127390E+02  0.16905779061E+00  0.11390991088E+02  0.51100000000E-03 0.  1.
        -12    1    4    4    0    0  0.14137536540E+02 -0.17827443823E+02 -0.15628912284E+02  0.27603452535E+02  0.00000000000E+00 0.  1.
</event>
<event>
 8    1  0.5542925E-011  0.9118800E+02  0.7816164E-02  0.1184000E+00
        -11   -1    0    0    0    0  0.00000000000E+00  0.00000000000E+00  0.45593999997E+02  0.45594000000E+02  0.51100000000E-03 0.  1.
         11   -1    0    0    0    0 -0.00000000000E+00 -0.00000000000E+00 -0.45593999997E+02  0.45594000000E+02  0.51100000000E-03 0. -1.
         23    2    1    2    0    0  0.00000000000E+00  0.00000000000E+00 -0.17763568394E-14  0.91188000000E+02  0.91188000000E+02 0.  0.
    9900012    2    3    3    0    0 -0.81446578213E+01 -0.40120855045E+02  0.14408546632E+02  0.47787254884E+02  0.19999926318E+02 0.  0.
        -12    1    3    3    0    0  0.81446578213E+01  0.40120855045E+02 -0.14408546632E+02  0.43400745116E+02  0.00000000000E+00 0.  1.
         11    1    4    4    0    0 -0.79974649284E+01 -0.26786417292E+02  0.71991690043E+01  0.28866929717E+02  0.51100000000E-03 0. -1.
        -11    1    4    4    0    0 -0.28467968948E+01  0.86387239585E+00  0.63210084134E+00  0.30413943860E+01  0.51100000000E-03 0.  1.
        -12    1    4    4    0    0  0.26996040019E+01 -0.14198310148E+02  0.65772767866E+01  0.15878930782E+02  0.00000000000E+00 0.  1.
</event>
<event>
 8    1  0.5542925E-011  0.9118800E+02  0.7816164E-02  0.1184000E+00
        -11   -1    0    0    0    0  0.00000000000E+00  0.00000000000E+00  0.45593999997E+02  0.45594000000E+02  0.51100000000E-03 0.  1.
         11   -1    0    0    0    0 -0.00000000000E+00 -0.00000000000E+00 -0.45593999997E+02  0.45594000000E+02  0.51100000000E-03 0. -1.
         23    2    1    2    0    0  0.00000000000E+00  0.00000000000E+00 -0.17763568394E-14  0.91188000000E+02  0.91188000000E+02 0.  0.
    9900012    2    3    3    0    0 -0.41702191203E+02 -0.11625227240E+02  0.30667180899E+01  0.47787269368E+02  0.19999992359E+02 0.  0.
         12    1    3    3    0    0  0.41702191203E+02  0.11625227240E+02 -0.30667180899E+01  0.43400730632E+02  0.00000000000E+00 0. -1.
         11    1    4    4    0    0 -0.38421083968E+01 -0.52158491225E+01  0.24824083429E+01  0.69375233653E+01  0.51100000000E-03 0. -1.
        -11    1    4    4    0    0 -0.19507826290E+02 -0.63875582623E+01  0.65590258157E+01  0.21549408508E+02  0.51100000000E-03 0.  1.
         12    1    4    4    0    0 -0.18352256516E+02 -0.21819854786E-01 -0.59747160687E+01  0.19300337496E+02  0.00000000000E+00 0. -1.
</event>
<event>
 8    1  0.5542925E-011  0.9118800E+02  0.7816164E-02  0.1184000E+00
        -11   -1    0    0    0    0  0.00000000000E+00  0.00000000000E+00  0.45593999997E+02  0.45594000000E+02  0.51100000000E-03 0. -1.
         11   -1    0    0    0    0 -0.00000000000E+00 -0.00000000000E+00 -0.45593999997E+02  0.45594000000E+02  0.51100000000E-03 0.  1.
         23    2    1    2    0    0 -0.17763568394E-14 -0.88817841970E-15  0.00000000000E+00  0.91188000000E+02  0.91188000000E+02 0.  0.
    9900012    2    3    3    0    0  0.13452619269E+02 -0.74681960076E+01  0.40581721282E+02  0.47787273981E+02  0.20000013387E+02 0.  0.
        -12    1    3    3    0    0 -0.13452619269E+02  0.74681960076E+01 -0.40581721282E+02  0.43400726019E+02  0.00000000000E+00 0.  1.
         11    1    4    4    0    0  0.59213152174E+01 -0.63057856972E+01  0.78777434097E+01  0.11699732845E+02  0.51100000000E-03 0. -1.
        -11    1    4    4    0    0  0.40237215962E+01 -0.63750768359E+01  0.25184898839E+02  0.26288991421E+02  0.51100000000E-03 0.  1.
        -12    1    4    4    0    0  0.35075824551E+01  0.52126665256E+01  0.75190790331E+01  0.97985497137E+01  0.00000000000E+00 0.  1.
</event>
<event>
 8    1  0.5542925E-011  0.9118800E+02  0.7816164E-02  0.1184000E+00
        -11   -1    0    0    0    0  0.00000000000E+00  0.00000000000E+00  0.45593999997E+02  0.45594000000E+02  0.51100000000E-03 0. -1.
         11   -1    0    0    0    0 -0.00000000000E+00 -0.00000000000E+00 -0.45593999997E+02  0.45594000000E+02  0.51100000000E-03 0.  1.
         23    2    1    2    0    0 -0.71054273576E-14  0.35527136788E-14 -0.71054273576E-14  0.91188000000E+02  0.91188000000E+02 0.  0.
    9900012    2    3    3    0    0 -0.20139611765E+02  0.28684192345E+02 -0.25597583992E+02  0.47787272371E+02  0.20000006047E+02 0.  0.
         12    1    3    3    0    0  0.20139611765E+02 -0.28684192345E+02  0.25597583992E+02  0.43400727629E+02  0.00000000000E+00 0. -1.
         11    1    4    4    0    0 -0.90357042088E+01  0.46359267483E+01 -0.68837480003E+01  0.12268730748E+02  0.51100000000E-03 0. -1.
        -11    1    4    4    0    0 -0.11532525723E+02  0.21631103483E+02 -0.20913515188E+02  0.32222335502E+02  0.51100000000E-03 0.  1.
         12    1    4    4    0    0  0.42861816715E+00  0.24171621146E+01  0.21996791969E+01  0.32962061208E+01  0.00000000000E+00 0. -1.
</event>
<event>
 8    1  0.5542925E-011  0.9118800E+02  0.7816164E-02  0.1184000E+00
        -11   -1    0    0    0    0  0.00000000000E+00  0.00000000000E+00  0.45593999997E+02  0.45594000000E+02  0.51100000000E-03 0.  1.
         11   -1    0    0    0    0 -0.00000000000E+00 -0.00000000000E+00 -0.45593999997E+02  0.45594000000E+02  0.51100000000E-03 0. -1.
         23    2    1    2    0    0  0.00000000000E+00 -0.35527136788E-14  0.88817841970E-15  0.91188000000E+02  0.91188000000E+02 0.  0.
    9900012    2    3    3    0    0  0.38128281438E+02 -0.20046740943E+02  0.52899937617E+01  0.47787289155E+02  0.20000082572E+02 0.  0.
        -12    1    3    3    0    0 -0.38128281438E+02  0.20046740943E+02 -0.52899937617E+01  0.43400710845E+02  0.00000000000E+00 0.  1.
         11    1    4    4    0    0  0.18258730142E+02 -0.20318502249E+01 -0.16553580261E+01  0.18445862739E+02  0.51100000000E-03 0. -1.
        -11    1    4    4    0    0  0.16897217371E+02 -0.11557279503E+02  0.17694469760E+01  0.20547934379E+02  0.51100000000E-03 0.  1.
         12    1    4    4    0    0  0.29723339250E+01 -0.64576112156E+01  0.51759048118E+01  0.87934920364E+01  0.00000000000E+00 0. -1.
</event>
<event>
 8    1  0.5542925E-011  0.9118800E+02  0.7816164E-02  0.1184000E+00
        -11   -1    0    0    0    0  0.00000000000E+00  0.00000000000E+00  0.45593999997E+02  0.45594000000E+02  0.51100000000E-03 0. -1.
         11   -1    0    0    0    0 -0.00000000000E+00 -0.00000000000E+00 -0.45593999997E+02  0.45594000000E+02  0.51100000000E-03 0.  1.
         23    2    1    2    0    0  0.35527136788E-14  0.00000000000E+00  0.00000000000E+00  0.91188000000E+02  0.91188000000E+02 0.  0.
    9900012    2    3    3    0    0  0.17936694249E+02 -0.49724305823E+01 -0.39206817492E+02  0.47787255717E+02  0.19999930115E+02 0.  0.
         12    1    3    3    0    0 -0.17936694249E+02  0.49724305823E+01  0.39206817492E+02  0.43400744283E+02  0.00000000000E+00 0. -1.
         11    1    4    4    0    0  0.34679364688E+01 -0.15255620053E+01 -0.64335955448E+01  0.74662624303E+01  0.51100000000E-03 0. -1.
        -11    1    4    4    0    0 -0.28606406825E+01 -0.50447202352E+01 -0.11117020558E+02  0.12538764441E+02  0.51100000000E-03 0.  1.
         12    1    4    4    0    0  0.17329398462E+02  0.15978516582E+01 -0.21656201389E+02  0.27782228845E+02  0.00000000000E+00 0. -1.
</event>
<event>
 8    1  0.5542925E-011  0.9118800E+02  0.7816164E-02  0.1184000E+00
        -11   -1    0    0    0    0  0.00000000000E+00  0.00000000000E+00  0.45593999997E+02  0.45594000000E+02  0.51100000000E-03 0. -1.
         11   -1    0    0    0    0 -0.00000000000E+00 -0.00000000000E+00 -0.45593999997E+02  0.45594000000E+02  0.51100000000E-03 0.  1.
         23    2    1    2    0    0  0.00000000000E+00  0.00000000000E+00  0.00000000000E+00  0.91188000000E+02  0.91188000000E+02 0.  0.
    9900012    2    3    3    0    0 -0.27884566194E+01 -0.16332870337E+02 -0.40113407886E+02  0.47787266872E+02  0.19999980978E+02 0.  0.
         12    1    3    3    0    0  0.27884566194E+01  0.16332870337E+02  0.40113407886E+02  0.43400733128E+02  0.00000000000E+00 0. -1.
         11    1    4    4    0    0  0.48257184597E+01 -0.25622774089E+01 -0.19328333177E+02  0.20085748376E+02  0.51100000000E-03 0.  1.
        -11    1    4    4    0    0 -0.22765091184E+01 -0.12083037400E+02 -0.16848259638E+02  0.20857759699E+02  0.51100000000E-03 0. -1.
        -12    1    4    4    0    0 -0.53376659607E+01 -0.16875555287E+01 -0.39368150710E+01  0.68437587972E+01  0.00000000000E+00 0.  1.
</event>
<event>
 8    1  0.5542925E-011  0.9118800E+02  0.7816164E-02  0.1184000E+00
        -11   -1    0    0    0    0  0.00000000000E+00  0.00000000000E+00  0.45593999997E+02  0.45594000000E+02  0.51100000000E-03 0. -1.
         11   -1    0    0    0    0 -0.00000000000E+00 -0.00000000000E+00 -0.45593999997E+02  0.45594000000E+02  0.51100000000E-03 0.  1.
         23    2    1    2    0    0  0.00000000000E+00  0.44408920985E-15  0.00000000000E+00  0.91188000000E+02  0.91188000000E+02 0.  0.
    9900012    2    3    3    0    0 -0.36298285088E+02 -0.23506765714E+01  0.23675555721E+02  0.47787272824E+02  0.20000008114E+02 0.  0.
        -12    1    3    3    0    0  0.36298285088E+02  0.23506765714E+01 -0.23675555721E+02  0.43400727176E+02  0.00000000000E+00 0.  1.
         11    1    4    4    0    0 -0.58629968999E+01 -0.29349320945E+01  0.11516824939E+02  0.13252389067E+02  0.51100000000E-03 0. -1.
        -11    1    4    4    0    0 -0.15552634447E+02 -0.50541770725E+01  0.71732730612E+01  0.17857351169E+02  0.51100000000E-03 0.  1.
         12    1    4    4    0    0 -0.14882653742E+02  0.56384325956E+01  0.49854577211E+01  0.16677532588E+02  0.00000000000E+00 0. -1.
</event>
<event>
 8    1  0.5542925E-011  0.9118800E+02  0.7816164E-02  0.1184000E+00
        -11   -1    0    0    0    0  0.00000000000E+00  0.00000000000E+00  0.45593999997E+02  0.45594000000E+02  0.51100000000E-03 0. -1.
         11   -1    0    0    0    0 -0.00000000000E+00 -0.00000000000E+00 -0.45593999997E+02  0.45594000000E+02  0.51100000000E-03 0.  1.
         23    2    1    2    0    0 -0.35527136788E-14  0.00000000000E+00  0.00000000000E+00  0.91188000000E+02  0.91188000000E+02 0.  0.
    9900012    2    3    3    0    0  0.18981287285E+02 -0.23429237680E+02  0.31215434853E+02  0.47787287813E+02  0.20000076457E+02 0.  0.
        -12    1    3    3    0    0 -0.18981287285E+02  0.23429237680E+02 -0.31215434853E+02  0.43400712187E+02  0.00000000000E+00 0.  1.
         11    1    4    4    0    0  0.14245118499E+02 -0.19638058418E+02  0.33016513502E+02  0.40971537726E+02  0.51100000000E-03 0. -1.
        -11    1    4    4    0    0  0.12115682458E+01 -0.22963102767E+01 -0.27720311112E-01  0.25964797665E+01  0.51100000000E-03 0.  1.
         12    1    4    4    0    0  0.35246005397E+01 -0.14948689851E+01 -0.17733583385E+01  0.42192703213E+01  0.00000000000E+00 0. -1.
</event>
<event>
 8    1  0.5542925E-011  0.9118800E+02  0.7816164E-02  0.1184000E+00
        -11   -1    0    0    0    0  0.00000000000E+00  0.00000000000E+00  0.45593999997E+02  0.45594000000E+02  0.51100000000E-03 0. -1.
         11   -1    0    0    0    0 -0.00000000000E+00 -0.00000000000E+00 -0.45593999997E+02  0.45594000000E+02  0.51100000000E-03 0.  1.
         23    2    1    2    0    0  0.17763568394E-14  0.00000000000E+00  0.00000000000E+00  0.91188000000E+02  0.91188000000E+02 0.  0.
    9900012    2    3    3    0    0 -0.14479255084E+02 -0.32553367792E+02 -0.24784104578E+02  0.47787280858E+02  0.20000044743E+02 0.  0.
         12    1    3    3    0    0  0.14479255084E+02  0.32553367792E+02  0.24784104578E+02  0.43400719142E+02  0.00000000000E+00 0. -1.
         11    1    4    4    0    0 -0.34646580563E+01 -0.98139310983E+01 -0.13380748211E+01  0.10493214166E+02  0.51100000000E-03 0. -1.
        -11    1    4    4    0    0 -0.12516605479E+02 -0.19558829671E+02 -0.13765902435E+02  0.26994690236E+02  0.51100000000E-03 0.  1.
         12    1    4    4    0    0  0.15020084515E+01 -0.31806070220E+01 -0.96801273216E+01  0.10299376456E+02  0.00000000000E+00 0. -1.
</event>
<event>
 8    1  0.5542925E-011  0.9118800E+02  0.7816164E-02  0.1184000E+00
        -11   -1    0    0    0    0  0.00000000000E+00  0.00000000000E+00  0.45593999997E+02  0.45594000000E+02  0.51100000000E-03 0. -1.
         11   -1    0    0    0    0 -0.00000000000E+00 -0.00000000000E+00 -0.45593999997E+02  0.45594000000E+02  0.51100000000E-03 0.  1.
         23    2    1    2    0    0  0.17763568394E-14  0.00000000000E+00  0.00000000000E+00  0.91188000000E+02  0.91188000000E+02 0.  0.
    9900012    2    3    3    0    0  0.94551103741E+01 -0.32269649125E+02  0.27438890307E+02  0.47787284936E+02  0.20000063335E+02 0.  0.
        -12    1    3    3    0    0 -0.94551103741E+01  0.32269649125E+02 -0.27438890307E+02  0.43400715064E+02  0.00000000000E+00 0.  1.
         11    1    4    4    0    0 -0.86866939641E+00  0.85827217687E+00  0.10455396892E+01  0.16075979449E+01  0.51100000000E-03 0. -1.
        -11    1    4    4    0    0 -0.14163214087E+01 -0.17964903556E+02  0.83965419514E+01  0.19880785777E+02  0.51100000000E-03 0.  1.
         12    1    4    4    0    0  0.11740101179E+02 -0.15163017745E+02  0.17996808667E+02  0.26298901213E+02  0.00000000000E+00 0. -1.
</event>
<event>
 8    1  0.5542925E-011  0.9118800E+02  0.7816164E-02  0.1184000E+00
        -11   -1    0    0    0    0  0.00000000000E+00  0.00000000000E+00  0.45593999997E+02  0.45594000000E+02  0.51100000000E-03 0. -1.
         11   -1    0    0    0    0 -0.00000000000E+00 -0.00000000000E+00 -0.45593999997E+02  0.45594000000E+02  0.51100000000E-03 0.  1.
         23    2    1    2    0    0  0.17763568394E-14 -0.35527136788E-14  0.71054273576E-14  0.91188000000E+02  0.91188000000E+02 0.  0.
    9900012    2    3    3    0    0  0.82925919666E+01 -0.18095386117E+02  0.38566998201E+02  0.47787269240E+02  0.19999991773E+02 0.  0.
        -12    1    3    3    0    0 -0.82925919666E+01  0.18095386117E+02 -0.38566998201E+02  0.43400730760E+02  0.00000000000E+00 0.  1.
         11    1    4    4    0    0  0.12899364978E+02 -0.84321150000E+01  0.17261225076E+02  0.23139664466E+02  0.51100000000E-03 0. -1.
        -11    1    4    4    0    0 -0.34760069869E+00  0.53245053412E-01  0.60805022020E+01  0.60906624082E+01  0.51100000000E-03 0.  1.
         12    1    4    4    0    0 -0.42591723128E+01 -0.97165161705E+01  0.15225270923E+02  0.18556942365E+02  0.00000000000E+00 0. -1.
</event>
<event>
 8    1  0.5542925E-011  0.9118800E+02  0.7816164E-02  0.1184000E+00
        -11   -1    0    0    0    0  0.00000000000E+00  0.00000000000E+00  0.45593999997E+02  0.45594000000E+02  0.51100000000E-03 0. -1.
         11   -1    0    0    0    0 -0.00000000000E+00 -0.00000000000E+00 -0.45593999997E+02  0.45594000000E+02  0.51100000000E-03 0.  1.
         23    2    1    2    0    0  0.00000000000E+00 -0.17763568394E-14 -0.88817841970E-15  0.91188000000E+02  0.91188000000E+02 0.  0.
    9900012    2    3    3    0    0 -0.40444924046E+02 -0.15169935224E+02 -0.42076763599E+01  0.47787270097E+02  0.19999995679E+02 0.  0.
         12    1    3    3    0    0  0.40444924046E+02  0.15169935224E+02  0.42076763599E+01  0.43400729903E+02  0.00000000000E+00 0. -1.
         11    1    4    4    0    0 -0.14631545676E+02 -0.88149169633E+01  0.80932154441E+00  0.17100874000E+02  0.51100000000E-03 0.  1.
        -11    1    4    4    0    0 -0.13370555636E+02 -0.82355921313E+01  0.26865713866E+01  0.15931553655E+02  0.51100000000E-03 0. -1.
         12    1    4    4    0    0 -0.12442822734E+02  0.18805738706E+01 -0.77035692909E+01  0.14754842442E+02  0.00000000000E+00 0. -1.
</event>
<event>
 8    1  0.5802483E-011  0.9118800E+02  0.7816164E-02  0.1184000E+00
        -11   -1    0    0    0    0  0.00000000000E+00  0.00000000000E+00  0.45593999997E+02  0.45594000000E+02  0.51100000000E-03 0. -1.
         11   -1    0    0    0    0 -0.00000000000E+00 -0.00000000000E+00 -0.45593999997E+02  0.45594000000E+02  0.51100000000E-03 0.  1.
         23    2    1    2    0    0  0.00000000000E+00  0.88817841970E-15  0.00000000000E+00  0.91188000000E+02  0.91188000000E+02 0.  0.
    9900012    2    3    3    0    0  0.10688424779E+02  0.17169245730E+01  0.42028951936E+02  0.47787273565E+02  0.20000011493E+02 0.  0.
        -12    1    3    3    0    0 -0.10688424779E+02 -0.17169245730E+01 -0.42028951936E+02  0.43400726435E+02  0.00000000000E+00 0.  1.
         11    1    4    4    0    0  0.14400649687E+02  0.51285953853E+01  0.28678709182E+02  0.32498454773E+02  0.51100000000E-03 0. -1.
        -11    1    4    4    0    0 -0.14658965923E+01  0.13198622741E+01  0.55776258151E+01  0.59161473305E+01  0.51100000000E-03 0.  1.
         12    1    4    4    0    0 -0.22463283156E+01 -0.47315330865E+01  0.77726169391E+01  0.93726714619E+01  0.00000000000E+00 0. -1.
</event>
<event>
 8    1  0.5542925E-011  0.9118800E+02  0.7816164E-02  0.1184000E+00
        -11   -1    0    0    0    0  0.00000000000E+00  0.00000000000E+00  0.45593999997E+02  0.45594000000E+02  0.51100000000E-03 0. -1.
         11   -1    0    0    0    0 -0.00000000000E+00 -0.00000000000E+00 -0.45593999997E+02  0.45594000000E+02  0.51100000000E-03 0.  1.
         23    2    1    2    0    0  0.00000000000E+00 -0.35527136788E-14  0.00000000000E+00  0.91188000000E+02  0.91188000000E+02 0.  0.
    9900012    2    3    3    0    0 -0.26643401868E+02 -0.26899544091E+02  0.21217139193E+02  0.47787270387E+02  0.19999997004E+02 0.  0.
        -12    1    3    3    0    0  0.26643401868E+02  0.26899544091E+02 -0.21217139193E+02  0.43400729613E+02  0.00000000000E+00 0.  1.
         11    1    4    4    0    0 -0.43849359873E+01 -0.98926396151E+01  0.32754083216E+01  0.11305763225E+02  0.51100000000E-03 0. -1.
        -11    1    4    4    0    0 -0.13284006370E+02 -0.10010696349E+02  0.17982861182E+01  0.16730591736E+02  0.51100000000E-03 0.  1.
        -12    1    4    4    0    0 -0.89744595111E+01 -0.69962081262E+01  0.16143444753E+02  0.19750915426E+02  0.00000000000E+00 0.  1.
</event>
<event>
 8    1  0.5542925E-011  0.9118800E+02  0.7816164E-02  0.1184000E+00
        -11   -1    0    0    0    0  0.00000000000E+00  0.00000000000E+00  0.45593999997E+02  0.45594000000E+02  0.51100000000E-03 0. -1.
         11   -1    0    0    0    0 -0.00000000000E+00 -0.00000000000E+00 -0.45593999997E+02  0.45594000000E+02  0.51100000000E-03 0.  1.
         23    2    1    2    0    0 -0.88817841970E-15  0.17763568394E-14  0.71054273576E-14  0.91188000000E+02  0.91188000000E+02 0.  0.
    9900012    2    3    3    0    0  0.51596390064E+01 -0.14990674490E+02 -0.40401491486E+02  0.47787277533E+02  0.20000029585E+02 0.  0.
         12    1    3    3    0    0 -0.51596390064E+01  0.14990674490E+02  0.40401491486E+02  0.43400722467E+02  0.00000000000E+00 0. -1.
         11    1    4    4    0    0  0.23861919207E+01  0.27907974344E+00 -0.80539897142E+01  0.84046741735E+01  0.51100000000E-03 0. -1.
        -11    1    4    4    0    0 -0.10047219445E+01 -0.16453399982E+02 -0.17604637416E+02  0.24117360883E+02  0.51100000000E-03 0.  1.
        -12    1    4    4    0    0  0.37781690302E+01  0.11836457477E+01 -0.14742864356E+02  0.15265242477E+02  0.00000000000E+00 0.  1.
</event>
<event>
 8    1  0.7493764E-011  0.9118800E+02  0.7816164E-02  0.1184000E+00
        -11   -1    0    0    0    0  0.00000000000E+00  0.00000000000E+00  0.45593999997E+02  0.45594000000E+02  0.51100000000E-03 0. -1.
         11   -1    0    0    0    0 -0.00000000000E+00 -0.00000000000E+00 -0.45593999997E+02  0.45594000000E+02  0.51100000000E-03 0.  1.
         23    2    1    2    0    0  0.00000000000E+00  0.16653345369E-15  0.00000000000E+00  0.91188000000E+02  0.91188000000E+02 0.  0.
    9900012    2    3    3    0    0  0.38975266129E+02  0.34919556443E+00  0.19090044875E+02  0.47787272809E+02  0.20000008046E+02 0.  0.
        -12    1    3    3    0    0 -0.38975266129E+02 -0.34919556443E+00 -0.19090044875E+02  0.43400727191E+02  0.00000000000E+00 0.  1.
         11    1    4    4    0    0  0.63463953588E+01  0.10563273952E+01 -0.11646317780E+01  0.65382665176E+01  0.51100000000E-03 0. -1.
        -11    1    4    4    0    0  0.27953484288E+01 -0.36587777659E+01 -0.72075361358E+00  0.46604842679E+01  0.51100000000E-03 0.  1.
         12    1    4    4    0    0  0.29833522341E+02  0.29516459352E+01  0.20975430266E+02  0.36588522024E+02  0.00000000000E+00 0. -1.
</event>
<event>
 8    1  0.5542925E-011  0.9118800E+02  0.7816164E-02  0.1184000E+00
        -11   -1    0    0    0    0  0.00000000000E+00  0.00000000000E+00  0.45593999997E+02  0.45594000000E+02  0.51100000000E-03 0. -1.
         11   -1    0    0    0    0 -0.00000000000E+00 -0.00000000000E+00 -0.45593999997E+02  0.45594000000E+02  0.51100000000E-03 0.  1.
         23    2    1    2    0    0  0.00000000000E+00  0.00000000000E+00  0.00000000000E+00  0.91188000000E+02  0.91188000000E+02 0.  0.
    9900012    2    3    3    0    0 -0.38171197067E+02 -0.34070889653E+01 -0.20370927670E+02  0.47787271494E+02  0.20000002049E+02 0.  0.
         12    1    3    3    0    0  0.38171197067E+02  0.34070889653E+01  0.20370927670E+02  0.43400728506E+02  0.00000000000E+00 0. -1.
         11    1    4    4    0    0 -0.28885329324E+01 -0.75084141114E+00  0.32664463293E+01  0.44245968415E+01  0.51100000000E-03 0. -1.
        -11    1    4    4    0    0 -0.10581663519E+01  0.13998740475E+01 -0.40983970374E+00  0.18020355771E+01  0.51100000000E-03 0.  1.
        -12    1    4    4    0    0 -0.34224497782E+02 -0.40561216017E+01 -0.23227534296E+02  0.41560639075E+02  0.00000000000E+00 0.  1.
</event>
<event>
 8    1  0.5542925E-011  0.9118800E+02  0.7816164E-02  0.1184000E+00
        -11   -1    0    0    0    0  0.00000000000E+00  0.00000000000E+00  0.45593999997E+02  0.45594000000E+02  0.51100000000E-03 0. -1.
         11   -1    0    0    0    0 -0.00000000000E+00 -0.00000000000E+00 -0.45593999997E+02  0.45594000000E+02  0.51100000000E-03 0.  1.
         23    2    1    2    0    0  0.35527136788E-14  0.44408920985E-15  0.00000000000E+00  0.91188000000E+02  0.91188000000E+02 0.  0.
    9900012    2    3    3    0    0 -0.25691123219E+02  0.27445575621E+01  0.34872028460E+02  0.47787253723E+02  0.19999921026E+02 0.  0.
        -12    1    3    3    0    0  0.25691123219E+02 -0.27445575621E+01 -0.34872028460E+02  0.43400746277E+02  0.00000000000E+00 0.  1.
         11    1    4    4    0    0 -0.22926347304E+02 -0.73001560774E+00  0.30866836889E+02  0.38456624180E+02  0.51100000000E-03 0. -1.
        -11    1    4    4    0    0 -0.23578038509E+01 -0.17934073134E+01  0.23879810373E+01  0.38049970416E+01  0.51100000000E-03 0.  1.
        -12    1    4    4    0    0 -0.40697206349E+00  0.52679804833E+01  0.16172105335E+01  0.55256325016E+01  0.00000000000E+00 0.  1.
</event>
<event>
 8    1  0.5542925E-011  0.9118800E+02  0.7816164E-02  0.1184000E+00
        -11   -1    0    0    0    0  0.00000000000E+00  0.00000000000E+00  0.45593999997E+02  0.45594000000E+02  0.51100000000E-03 0.  1.
         11   -1    0    0    0    0 -0.00000000000E+00 -0.00000000000E+00 -0.45593999997E+02  0.45594000000E+02  0.51100000000E-03 0. -1.
         23    2    1    2    0    0  0.35527136788E-14  0.00000000000E+00  0.00000000000E+00  0.91188000000E+02  0.91188000000E+02 0.  0.
    9900012    2    3    3    0    0 -0.27749756353E+02 -0.31888492994E+02  0.98335333823E+01  0.47787270261E+02  0.19999996428E+02 0.  0.
        -12    1    3    3    0    0  0.27749756353E+02  0.31888492994E+02 -0.98335333823E+01  0.43400729739E+02  0.00000000000E+00 0.  1.
         11    1    4    4    0    0 -0.23305565520E+02 -0.14913980527E+02  0.65882370473E+01  0.28442592481E+02  0.51100000000E-03 0. -1.
        -11    1    4    4    0    0 -0.28743563943E+01 -0.28691101860E+01  0.31700587717E+01  0.51519890157E+01  0.51100000000E-03 0.  1.
        -12    1    4    4    0    0 -0.15698344385E+01 -0.14105402281E+02  0.75237563309E-01  0.14192688764E+02  0.00000000000E+00 0.  1.
</event>
<event>
 8    1  0.5542925E-011  0.9118800E+02  0.7816164E-02  0.1184000E+00
        -11   -1    0    0    0    0  0.00000000000E+00  0.00000000000E+00  0.45593999997E+02  0.45594000000E+02  0.51100000000E-03 0. -1.
         11   -1    0    0    0    0 -0.00000000000E+00 -0.00000000000E+00 -0.45593999997E+02  0.45594000000E+02  0.51100000000E-03 0.  1.
         23    2    1    2    0    0  0.00000000000E+00  0.00000000000E+00  0.00000000000E+00  0.91188000000E+02  0.91188000000E+02 0.  0.
    9900012    2    3    3    0    0 -0.67610109829E+01  0.20184281840E+02  0.37822040323E+02  0.47787271468E+02  0.20000001930E+02 0.  0.
        -12    1    3    3    0    0  0.67610109829E+01 -0.20184281840E+02 -0.37822040323E+02  0.43400728532E+02  0.00000000000E+00 0.  1.
         11    1    4    4    0    0 -0.33789578329E+01  0.14837745693E+02  0.23913887185E+02  0.28345194545E+02  0.51100000000E-03 0. -1.
        -11    1    4    4    0    0  0.30181523071E+01  0.53660460629E+01  0.31292597763E+01  0.69062262276E+01  0.51100000000E-03 0.  1.
        -12    1    4    4    0    0 -0.64002054571E+01 -0.19509915093E-01  0.10778893362E+02  0.12535850695E+02  0.00000000000E+00 0.  1.
</event>
<event>
 8    1  0.5542925E-011  0.9118800E+02  0.7816164E-02  0.1184000E+00
        -11   -1    0    0    0    0  0.00000000000E+00  0.00000000000E+00  0.45593999997E+02  0.45594000000E+02  0.51100000000E-03 0. -1.
         11   -1    0    0    0    0 -0.00000000000E+00 -0.00000000000E+00 -0.45593999997E+02  0.45594000000E+02  0.51100000000E-03 0.  1.
         23    2    1    2    0    0  0.00000000000E+00  0.00000000000E+00 -0.35527136788E-14  0.91188000000E+02  0.91188000000E+02 0.  0.
    9900012    2    3    3    0    0  0.34869697404E+02  0.13465203753E+02  0.22054833696E+02  0.47787271913E+02  0.20000003960E+02 0.  0.
        -12    1    3    3    0    0 -0.34869697404E+02 -0.13465203753E+02 -0.22054833696E+02  0.43400728087E+02  0.00000000000E+00 0.  1.
         11    1    4    4    0    0  0.12474578597E+02  0.34978024920E+01  0.99831518052E+01  0.16355826291E+02  0.51100000000E-03 0.  1.
        -11    1    4    4    0    0  0.21629045500E+02  0.12583380523E+02  0.13415368890E+02  0.28392414433E+02  0.51100000000E-03 0. -1.
        -12    1    4    4    0    0  0.76607330695E+00 -0.26159792622E+01 -0.13436869996E+01  0.30390311885E+01  0.00000000000E+00 0.  1.
</event>
<event>
 8    1  0.5542925E-011  0.9118800E+02  0.7816164E-02  0.1184000E+00
        -11   -1    0    0    0    0  0.00000000000E+00  0.00000000000E+00  0.45593999997E+02  0.45594000000E+02  0.51100000000E-03 0. -1.
         11   -1    0    0    0    0 -0.00000000000E+00 -0.00000000000E+00 -0.45593999997E+02  0.45594000000E+02  0.51100000000E-03 0.  1.
         23    2    1    2    0    0  0.00000000000E+00  0.00000000000E+00  0.00000000000E+00  0.91188000000E+02  0.91188000000E+02 0.  0.
    9900012    2    3    3    0    0  0.19442600104E+02  0.28991983159E+02 -0.25789018849E+02  0.47787270980E+02  0.19999999706E+02 0.  0.
         12    1    3    3    0    0 -0.19442600104E+02 -0.28991983159E+02  0.25789018849E+02  0.43400729020E+02  0.00000000000E+00 0. -1.
         11    1    4    4    0    0  0.98207535842E+00 -0.95869954903E+00  0.11327926303E+00  0.13771017709E+01  0.51100000000E-03 0. -1.
        -11    1    4    4    0    0  0.79350588018E+01  0.18019370825E+02 -0.22932072413E+02  0.30224871026E+02  0.51100000000E-03 0.  1.
        -12    1    4    4    0    0  0.10525465944E+02  0.11931311882E+02 -0.29702256991E+01  0.16185298183E+02  0.00000000000E+00 0.  1.
</event>
<event>
 8    1  0.5542925E-011  0.9118800E+02  0.7816164E-02  0.1184000E+00
        -11   -1    0    0    0    0  0.00000000000E+00  0.00000000000E+00  0.45593999997E+02  0.45594000000E+02  0.51100000000E-03 0. -1.
         11   -1    0    0    0    0 -0.00000000000E+00 -0.00000000000E+00 -0.45593999997E+02  0.45594000000E+02  0.51100000000E-03 0.  1.
         23    2    1    2    0    0  0.00000000000E+00  0.00000000000E+00  0.00000000000E+00  0.91188000000E+02  0.91188000000E+02 0.  0.
    9900012    2    3    3    0    0 -0.73642358373E+01  0.21743990784E+02 -0.36831893872E+02  0.47787291355E+02  0.20000092605E+02 0.  0.
         12    1    3    3    0    0  0.73642358373E+01 -0.21743990784E+02  0.36831893872E+02  0.43400708645E+02  0.00000000000E+00 0. -1.
         11    1    4    4    0    0  0.16580428515E+01  0.14967776920E+00 -0.28358730700E+00  0.16887662816E+01  0.51100000000E-03 0. -1.
        -11    1    4    4    0    0 -0.10916604981E+02  0.77534515157E+01 -0.23142154389E+02  0.26736633759E+02  0.51100000000E-03 0.  1.
        -12    1    4    4    0    0  0.18943262923E+01  0.13840861499E+02 -0.13406152175E+02  0.19361891315E+02  0.00000000000E+00 0.  1.
</event>
<event>
 8    1  0.5542925E-011  0.9118800E+02  0.7816164E-02  0.1184000E+00
        -11   -1    0    0    0    0  0.00000000000E+00  0.00000000000E+00  0.45593999997E+02  0.45594000000E+02  0.51100000000E-03 0. -1.
         11   -1    0    0    0    0 -0.00000000000E+00 -0.00000000000E+00 -0.45593999997E+02  0.45594000000E+02  0.51100000000E-03 0.  1.
         23    2    1    2    0    0  0.88817841970E-15  0.00000000000E+00  0.00000000000E+00  0.91188000000E+02  0.91188000000E+02 0.  0.
    9900012    2    3    3    0    0 -0.76658183591E+01 -0.23361590505E+02 -0.35764428982E+02  0.47787273480E+02  0.20000011105E+02 0.  0.
         12    1    3    3    0    0  0.76658183591E+01  0.23361590505E+02  0.35764428982E+02  0.43400726520E+02  0.00000000000E+00 0. -1.
         11    1    4    4    0    0 -0.11343897479E+01 -0.70103697822E+01 -0.28354300644E+01  0.76466848042E+01  0.51100000000E-03 0. -1.
        -11    1    4    4    0    0 -0.57991468414E+01 -0.61046988059E+00 -0.36182169327E+01  0.68625266190E+01  0.51100000000E-03 0.  1.
        -12    1    4    4    0    0 -0.73228176973E+00 -0.15740750842E+02 -0.29310781985E+02  0.33278062057E+02  0.00000000000E+00 0.  1.
</event>
<event>
 8    1  0.5542925E-011  0.9118800E+02  0.7816164E-02  0.1184000E+00
        -11   -1    0    0    0    0  0.00000000000E+00  0.00000000000E+00  0.45593999997E+02  0.45594000000E+02  0.51100000000E-03 0. -1.
         11   -1    0    0    0    0 -0.00000000000E+00 -0.00000000000E+00 -0.45593999997E+02  0.45594000000E+02  0.51100000000E-03 0.  1.
         23    2    1    2    0    0  0.35527136788E-14 -0.35527136788E-14  0.00000000000E+00  0.91188000000E+02  0.91188000000E+02 0.  0.
    9900012    2    3    3    0    0  0.19417795741E+02 -0.16764333904E+02 -0.35007562860E+02  0.47787272586E+02  0.20000007027E+02 0.  0.
         12    1    3    3    0    0 -0.19417795741E+02  0.16764333904E+02  0.35007562860E+02  0.43400727414E+02  0.00000000000E+00 0. -1.
         11    1    4    4    0    0  0.84048191966E+01 -0.14263265171E+02 -0.21077302593E+02  0.26801761210E+02  0.51100000000E-03 0. -1.
        -11    1    4    4    0    0  0.56936876512E+01 -0.22365889592E+01 -0.14393565468E+02  0.15639537602E+02  0.51100000000E-03 0.  1.
         12    1    4    4    0    0  0.53192888935E+01 -0.26447977413E+00  0.46330520205E+00  0.53459737741E+01  0.00000000000E+00 0. -1.
</event>
<event>
 8    1  0.5542925E-011  0.9118800E+02  0.7816164E-02  0.1184000E+00
        -11   -1    0    0    0    0  0.00000000000E+00  0.00000000000E+00  0.45593999997E+02  0.45594000000E+02  0.51100000000E-03 0. -1.
         11   -1    0    0    0    0 -0.00000000000E+00 -0.00000000000E+00 -0.45593999997E+02  0.45594000000E+02  0.51100000000E-03 0.  1.
         23    2    1    2    0    0 -0.66613381478E-15  0.35527136788E-14  0.00000000000E+00  0.91188000000E+02  0.91188000000E+02 0.  0.
    9900012    2    3    3    0    0 -0.11257763300E+01  0.17954589591E+02 -0.39496689119E+02  0.47787272920E+02  0.20000008549E+02 0.  0.
         12    1    3    3    0    0  0.11257763300E+01 -0.17954589591E+02  0.39496689119E+02  0.43400727080E+02  0.00000000000E+00 0. -1.
         11    1    4    4    0    0  0.20101035178E+01  0.60332393286E+01 -0.92873077537E+01  0.11255868626E+02  0.51100000000E-03 0. -1.
        -11    1    4    4    0    0  0.57335858183E+01  0.85202444241E+01 -0.20607402135E+02  0.23024630168E+02  0.51100000000E-03 0.  1.
         12    1    4    4    0    0 -0.88694656661E+01  0.34011058383E+01 -0.96019792310E+01  0.13506774126E+02  0.00000000000E+00 0. -1.
</event>
<event>
 8    1  0.5542925E-011  0.9118800E+02  0.7816164E-02  0.1184000E+00
        -11   -1    0    0    0    0  0.00000000000E+00  0.00000000000E+00  0.45593999997E+02  0.45594000000E+02  0.51100000000E-03 0. -1.
         11   -1    0    0    0    0 -0.00000000000E+00 -0.00000000000E+00 -0.45593999997E+02  0.45594000000E+02  0.51100000000E-03 0.  1.
         23    2    1    2    0    0  0.22204460493E-15 -0.71054273576E-14  0.35527136788E-14  0.91188000000E+02  0.91188000000E+02 0.  0.
    9900012    2    3    3    0    0 -0.14881761571E+01  0.36207595679E+02 -0.23883435169E+02  0.47787272718E+02  0.20000007633E+02 0.  0.
         12    1    3    3    0    0  0.14881761571E+01 -0.36207595679E+02  0.23883435169E+02  0.43400727282E+02  0.00000000000E+00 0. -1.
         11    1    4    4    0    0 -0.36963428473E+01  0.16502750339E+02 -0.54067182175E+01  0.17754895700E+02  0.51100000000E-03 0. -1.
        -11    1    4    4    0    0  0.18415057454E+01  0.21574124392E+02 -0.16077339571E+02  0.26968775179E+02  0.51100000000E-03 0.  1.
         12    1    4    4    0    0  0.36666094480E+00 -0.18692790515E+01 -0.23993773800E+01  0.30636018397E+01  0.00000000000E+00 0. -1.
</event>
<event>
 8    1  0.5542925E-011  0.9118800E+02  0.7816164E-02  0.1184000E+00
        -11   -1    0    0    0    0  0.00000000000E+00  0.00000000000E+00  0.45593999997E+02  0.45594000000E+02  0.51100000000E-03 0. -1.
         11   -1    0    0    0    0 -0.00000000000E+00 -0.00000000000E+00 -0.45593999997E+02  0.45594000000E+02  0.51100000000E-03 0.  1.
         23    2    1    2    0    0  0.00000000000E+00  0.00000000000E+00 -0.35527136788E-14  0.91188000000E+02  0.91188000000E+02 0.  0.
    9900012    2    3    3    0    0  0.79249914932E+01 -0.28613654463E+02 -0.31655598524E+02  0.47787266944E+02  0.19999981304E+02 0.  0.
         12    1    3    3    0    0 -0.79249914932E+01  0.28613654463E+02  0.31655598524E+02  0.43400733056E+02  0.00000000000E+00 0. -1.
         11    1    4    4    0    0  0.58466626316E+01 -0.19284998856E+01 -0.62292995206E+01  0.87582388935E+01  0.51100000000E-03 0. -1.
        -11    1    4    4    0    0  0.49860419219E+01 -0.66469076951E+01 -0.30494222206E+01  0.88510435596E+01  0.51100000000E-03 0.  1.
        -12    1    4    4    0    0 -0.29077130604E+01 -0.20038246882E+02 -0.22376876783E+02  0.30177984491E+02  0.00000000000E+00 0.  1.
</event>
<event>
 8    1  0.5542925E-011  0.9118800E+02  0.7816164E-02  0.1184000E+00
        -11   -1    0    0    0    0  0.00000000000E+00  0.00000000000E+00  0.45593999997E+02  0.45594000000E+02  0.51100000000E-03 0. -1.
         11   -1    0    0    0    0 -0.00000000000E+00 -0.00000000000E+00 -0.45593999997E+02  0.45594000000E+02  0.51100000000E-03 0.  1.
         23    2    1    2    0    0  0.00000000000E+00  0.44408920985E-15  0.35527136788E-14  0.91188000000E+02  0.91188000000E+02 0.  0.
    9900012    2    3    3    0    0  0.34667675341E+02 -0.33337813621E+01  0.25897133814E+02  0.47787270150E+02  0.19999995922E+02 0.  0.
        -12    1    3    3    0    0 -0.34667675341E+02  0.33337813621E+01 -0.25897133814E+02  0.43400729850E+02  0.00000000000E+00 0.  1.
         11    1    4    4    0    0  0.32799524318E+02  0.16247226560E+01  0.24398797146E+02  0.40911487649E+02  0.51100000000E-03 0. -1.
        -11    1    4    4    0    0 -0.24169353897E+00  0.11117802686E+00  0.13569432378E+01  0.13827767471E+01  0.51100000000E-03 0.  1.
         12    1    4    4    0    0  0.21098445620E+01 -0.50696820450E+01  0.14139343035E+00  0.54930057541E+01  0.00000000000E+00 0. -1.
</event>
<event>
 8    1  0.5542925E-011  0.9118800E+02  0.7816164E-02  0.1184000E+00
        -11   -1    0    0    0    0  0.00000000000E+00  0.00000000000E+00  0.45593999997E+02  0.45594000000E+02  0.51100000000E-03 0.  1.
         11   -1    0    0    0    0 -0.00000000000E+00 -0.00000000000E+00 -0.45593999997E+02  0.45594000000E+02  0.51100000000E-03 0. -1.
         23    2    1    2    0    0  0.88817841970E-15  0.00000000000E+00 -0.26367796835E-15  0.91188000000E+02  0.91188000000E+02 0.  0.
    9900012    2    3    3    0    0  0.67406420907E+01  0.42874058066E+02 -0.46077082963E-01  0.47787271505E+02  0.20000002100E+02 0.  0.
         12    1    3    3    0    0 -0.67406420907E+01 -0.42874058066E+02  0.46077082963E-01  0.43400728495E+02  0.00000000000E+00 0. -1.
         11    1    4    4    0    0  0.32692167671E+01  0.96522995313E+01  0.38533289569E+01  0.10895081864E+02  0.51100000000E-03 0. -1.
        -11    1    4    4    0    0 -0.58369644805E+00  0.12429970679E+02 -0.86850378366E+01  0.15174806592E+02  0.51100000000E-03 0.  1.
        -12    1    4    4    0    0  0.40551217717E+01  0.20791787855E+02  0.47856317967E+01  0.21717383049E+02  0.00000000000E+00 0.  1.
</event>
<event>
 8    1  0.5542925E-011  0.9118800E+02  0.7816164E-02  0.1184000E+00
        -11   -1    0    0    0    0  0.00000000000E+00  0.00000000000E+00  0.45593999997E+02  0.45594000000E+02  0.51100000000E-03 0. -1.
         11   -1    0    0    0    0 -0.00000000000E+00 -0.00000000000E+00 -0.45593999997E+02  0.45594000000E+02  0.51100000000E-03 0.  1.
         23    2    1    2    0    0  0.00000000000E+00  0.88817841970E-15 -0.35527136788E-14  0.91188000000E+02  0.91188000000E+02 0.  0.
    9900012    2    3    3    0    0  0.29030305368E+02  0.49162650564E+01  0.31885646337E+02  0.47787277262E+02  0.20000028350E+02 0.  0.
        -12    1    3    3    0    0 -0.29030305368E+02 -0.49162650564E+01 -0.31885646337E+02  0.43400722738E+02  0.00000000000E+00 0.  1.
         11    1    4    4    0    0  0.42214129078E+01  0.61744649834E+01  0.11280573779E+02  0.13534980230E+02  0.51100000000E-03 0. -1.
        -11    1    4    4    0    0 -0.25080135245E-01 -0.21107556331E+01  0.23982559457E+00  0.21244846276E+01  0.51100000000E-03 0.  1.
        -12    1    4    4    0    0  0.24833972595E+02  0.85255570617E+00  0.20365246963E+02  0.32127812405E+02  0.00000000000E+00 0.  1.
</event>
<event>
 8    1  0.5542925E-011  0.9118800E+02  0.7816164E-02  0.1184000E+00
        -11   -1    0    0    0    0  0.00000000000E+00  0.00000000000E+00  0.45593999997E+02  0.45594000000E+02  0.51100000000E-03 0. -1.
         11   -1    0    0    0    0 -0.00000000000E+00 -0.00000000000E+00 -0.45593999997E+02  0.45594000000E+02  0.51100000000E-03 0.  1.
         23    2    1    2    0    0  0.00000000000E+00  0.11102230246E-14  0.00000000000E+00  0.91188000000E+02  0.91188000000E+02 0.  0.
    9900012    2    3    3    0    0 -0.10918038459E+02  0.15069367871E+01 -0.41977928784E+02  0.47787298079E+02  0.20000123262E+02 0.  0.
         12    1    3    3    0    0  0.10918038459E+02 -0.15069367871E+01  0.41977928784E+02  0.43400701921E+02  0.00000000000E+00 0. -1.
         11    1    4    4    0    0 -0.46862653042E+01  0.86902799626E+00 -0.27913935490E+01  0.55234201692E+01  0.51100000000E-03 0. -1.
        -11    1    4    4    0    0 -0.29069051056E+01  0.57972987836E+01 -0.71848649193E+01  0.96788973881E+01  0.51100000000E-03 0.  1.
        -12    1    4    4    0    0 -0.33248680488E+01 -0.51593899928E+01 -0.32001670315E+02  0.32584980522E+02  0.00000000000E+00 0.  1.
</event>
<event>
 8    1  0.5542925E-011  0.9118800E+02  0.7816164E-02  0.1184000E+00
        -11   -1    0    0    0    0  0.00000000000E+00  0.00000000000E+00  0.45593999997E+02  0.45594000000E+02  0.51100000000E-03 0. -1.
         11   -1    0    0    0    0 -0.00000000000E+00 -0.00000000000E+00 -0.45593999997E+02  0.45594000000E+02  0.51100000000E-03 0.  1.
         23    2    1    2    0    0  0.00000000000E+00  0.35527136788E-14 -0.35527136788E-14  0.91188000000E+02  0.91188000000E+02 0.  0.
    9900012    2    3    3    0    0  0.32622751090E+02 -0.22608751551E+02 -0.17556303475E+02  0.47787270432E+02  0.19999997206E+02 0.  0.
         12    1    3    3    0    0 -0.32622751090E+02  0.22608751551E+02  0.17556303475E+02  0.43400729568E+02  0.00000000000E+00 0. -1.
         11    1    4    4    0    0  0.10140558729E+02 -0.64468227375E+01  0.95227440559E-02  0.12016344939E+02  0.51100000000E-03 0. -1.
        -11    1    4    4    0    0  0.22606603759E+02 -0.14789124953E+02 -0.11177336126E+02  0.29235416766E+02  0.51100000000E-03 0.  1.
         12    1    4    4    0    0 -0.12441139841E+00 -0.13728038607E+01 -0.63884900936E+01  0.65355087264E+01  0.00000000000E+00 0. -1.
</event>
<event>
 8    1  0.5542925E-011  0.9118800E+02  0.7816164E-02  0.1184000E+00
        -11   -1    0    0    0    0  0.00000000000E+00  0.00000000000E+00  0.45593999997E+02  0.45594000000E+02  0.51100000000E-03 0. -1.
         11   -1    0    0    0    0 -0.00000000000E+00 -0.00000000000E+00 -0.45593999997E+02  0.45594000000E+02  0.51100000000E-03 0.  1.
         23    2    1    2    0    0  0.00000000000E+00  0.00000000000E+00  0.00000000000E+00  0.91188000000E+02  0.91188000000E+02 0.  0.
    9900012    2    3    3    0    0  0.11510521230E+02  0.40809713260E+02  0.92573426763E+01  0.47787272025E+02  0.20000004472E+02 0.  0.
        -12    1    3    3    0    0 -0.11510521230E+02 -0.40809713260E+02 -0.92573426763E+01  0.43400727975E+02  0.00000000000E+00 0.  1.
         11    1    4    4    0    0  0.92891956578E+00 -0.26235416531E+00  0.11004785689E+01  0.14638219187E+01  0.51100000000E-03 0. -1.
        -11    1    4    4    0    0  0.81557739931E+01  0.56594364642E+01  0.11234750990E+00  0.99276630051E+01  0.51100000000E-03 0.  1.
         12    1    4    4    0    0  0.24258276710E+01  0.35412630961E+02  0.80445165974E+01  0.36395787101E+02  0.00000000000E+00 0. -1.
</event>
<event>
 8    1  0.5542925E-011  0.9118800E+02  0.7816164E-02  0.1184000E+00
        -11   -1    0    0    0    0  0.00000000000E+00  0.00000000000E+00  0.45593999997E+02  0.45594000000E+02  0.51100000000E-03 0. -1.
         11   -1    0    0    0    0 -0.00000000000E+00 -0.00000000000E+00 -0.45593999997E+02  0.45594000000E+02  0.51100000000E-03 0.  1.
         23    2    1    2    0    0  0.00000000000E+00 -0.88817841970E-15 -0.71054273576E-14  0.91188000000E+02  0.91188000000E+02 0.  0.
    9900012    2    3    3    0    0  0.45881057842E+01  0.60923698616E+01  0.42725359294E+02  0.47787262540E+02  0.19999961227E+02 0.  0.
        -12    1    3    3    0    0 -0.45881057842E+01 -0.60923698616E+01 -0.42725359294E+02  0.43400737460E+02  0.00000000000E+00 0.  1.
         11    1    4    4    0    0 -0.13314230540E+01 -0.13399700372E+01  0.10398043177E+02  0.10568231130E+02  0.51100000000E-03 0.  1.
        -11    1    4    4    0    0  0.35050608861E+01  0.14098077871E+01  0.30133933230E+02  0.30369836055E+02  0.51100000000E-03 0. -1.
         12    1    4    4    0    0  0.24144679522E+01  0.60225321117E+01  0.21933828872E+01  0.68491953555E+01  0.00000000000E+00 0. -1.
</event>
<event>
 8    1  0.5542925E-011  0.9118800E+02  0.7816164E-02  0.1184000E+00
        -11   -1    0    0    0    0  0.00000000000E+00  0.00000000000E+00  0.45593999997E+02  0.45594000000E+02  0.51100000000E-03 0.  1.
         11   -1    0    0    0    0 -0.00000000000E+00 -0.00000000000E+00 -0.45593999997E+02  0.45594000000E+02  0.51100000000E-03 0. -1.
         23    2    1    2    0    0  0.22204460493E-15  0.71054273576E-14 -0.17763568394E-14  0.91188000000E+02  0.91188000000E+02 0.  0.
    9900012    2    3    3    0    0 -0.11876094075E+01  0.40954913790E+02 -0.14314593970E+02  0.47787274428E+02  0.20000015427E+02 0.  0.
         12    1    3    3    0    0  0.11876094075E+01 -0.40954913790E+02  0.14314593970E+02  0.43400725572E+02  0.00000000000E+00 0. -1.
         11    1    4    4    0    0  0.49523356437E+00  0.29086756358E+02 -0.13436705959E+02  0.32044183856E+02  0.51100000000E-03 0. -1.
        -11    1    4    4    0    0 -0.49970817182E+01  0.11056343722E+02 -0.16493535470E+01  0.12244751103E+02  0.51100000000E-03 0.  1.
         12    1    4    4    0    0  0.33142387463E+01  0.81181371030E+00  0.77146553594E+00  0.34983394690E+01  0.00000000000E+00 0. -1.
</event>
<event>
 8    1  0.5542925E-011  0.9118800E+02  0.7816164E-02  0.1184000E+00
        -11   -1    0    0    0    0  0.00000000000E+00  0.00000000000E+00  0.45593999997E+02  0.45594000000E+02  0.51100000000E-03 0.  1.
         11   -1    0    0    0    0 -0.00000000000E+00 -0.00000000000E+00 -0.45593999997E+02  0.45594000000E+02  0.51100000000E-03 0. -1.
         23    2    1    2    0    0  0.00000000000E+00  0.00000000000E+00  0.00000000000E+00  0.91188000000E+02  0.91188000000E+02 0.  0.
    9900012    2    3    3    0    0 -0.37064668237E+02  0.14512717219E+02  0.17297831683E+02  0.47787267592E+02  0.19999984259E+02 0.  0.
         12    1    3    3    0    0  0.37064668237E+02 -0.14512717219E+02 -0.17297831683E+02  0.43400732408E+02  0.00000000000E+00 0. -1.
         11    1    4    4    0    0 -0.16424122522E+02  0.38664846220E+01  0.70263990313E+01  0.18277630797E+02  0.51100000000E-03 0. -1.
        -11    1    4    4    0    0 -0.66072357925E+01 -0.20063445551E+01  0.78584435726E+01  0.10461171968E+02  0.51100000000E-03 0.  1.
         12    1    4    4    0    0 -0.14033309923E+02  0.12652577152E+02  0.24129890787E+01  0.19048464827E+02  0.00000000000E+00 0. -1.
</event>
<event>
 8    1  0.5542925E-011  0.9118800E+02  0.7816164E-02  0.1184000E+00
        -11   -1    0    0    0    0  0.00000000000E+00  0.00000000000E+00  0.45593999997E+02  0.45594000000E+02  0.51100000000E-03 0. -1.
         11   -1    0    0    0    0 -0.00000000000E+00 -0.00000000000E+00 -0.45593999997E+02  0.45594000000E+02  0.51100000000E-03 0.  1.
         23    2    1    2    0    0  0.00000000000E+00 -0.35527136788E-14  0.00000000000E+00  0.91188000000E+02  0.91188000000E+02 0.  0.
    9900012    2    3    3    0    0 -0.37100535366E+02 -0.17328527831E+02  0.14383874998E+02  0.47787268886E+02  0.19999990160E+02 0.  0.
        -12    1    3    3    0    0  0.37100535366E+02  0.17328527831E+02 -0.14383874998E+02  0.43400731114E+02  0.00000000000E+00 0.  1.
         11    1    4    4    0    0 -0.14137550361E+02 -0.74949958813E+01  0.31337577423E+01  0.16305389640E+02  0.51100000000E-03 0. -1.
        -11    1    4    4    0    0 -0.35737817157E+01 -0.44672938821E+01 -0.33451452467E+01  0.66271130489E+01  0.51100000000E-03 0.  1.
         12    1    4    4    0    0 -0.19389203289E+02 -0.53662380675E+01  0.14595262503E+02  0.24854766197E+02  0.00000000000E+00 0. -1.
</event>
<event>
 8    1  0.5542925E-011  0.9118800E+02  0.7816164E-02  0.1184000E+00
        -11   -1    0    0    0    0  0.00000000000E+00  0.00000000000E+00  0.45593999997E+02  0.45594000000E+02  0.51100000000E-03 0.  1.
         11   -1    0    0    0    0 -0.00000000000E+00 -0.00000000000E+00 -0.45593999997E+02  0.45594000000E+02  0.51100000000E-03 0. -1.
         23    2    1    2    0    0 -0.44408920985E-15  0.00000000000E+00  0.35527136788E-14  0.91188000000E+02  0.91188000000E+02 0.  0.
    9900012    2    3    3    0    0 -0.24967468443E+01  0.39272445400E+02  0.18304767081E+02  0.47787271776E+02  0.20000003333E+02 0.  0.
         12    1    3    3    0    0  0.24967468443E+01 -0.39272445400E+02 -0.18304767081E+02  0.43400728224E+02  0.00000000000E+00 0. -1.
         11    1    4    4    0    0  0.52564564490E-01  0.68998645467E+00 -0.15994511018E+01  0.17427244273E+01  0.51100000000E-03 0. -1.
        -11    1    4    4    0    0 -0.22562822406E+01  0.21321435908E+02  0.25933665478E+01  0.21596758763E+02  0.51100000000E-03 0.  1.
        -12    1    4    4    0    0 -0.29302916821E+00  0.17261023037E+02  0.17310851635E+02  0.24447788585E+02  0.00000000000E+00 0.  1.
</event>
<event>
 8    1  0.5542925E-011  0.9118800E+02  0.7816164E-02  0.1184000E+00
        -11   -1    0    0    0    0  0.00000000000E+00  0.00000000000E+00  0.45593999997E+02  0.45594000000E+02  0.51100000000E-03 0. -1.
         11   -1    0    0    0    0 -0.00000000000E+00 -0.00000000000E+00 -0.45593999997E+02  0.45594000000E+02  0.51100000000E-03 0.  1.
         23    2    1    2    0    0  0.00000000000E+00 -0.35527136788E-14  0.00000000000E+00  0.91188000000E+02  0.91188000000E+02 0.  0.
    9900012    2    3    3    0    0  0.23678836944E+02 -0.13790873328E+02  0.33656313948E+02  0.47787274491E+02  0.20000015714E+02 0.  0.
        -12    1    3    3    0    0 -0.23678836944E+02  0.13790873328E+02 -0.33656313948E+02  0.43400725509E+02  0.00000000000E+00 0.  1.
         11    1    4    4    0    0  0.81459968629E+00 -0.29625779965E+01  0.72365028517E+01  0.78617691913E+01  0.51100000000E-03 0. -1.
        -11    1    4    4    0    0  0.22647012848E+02 -0.13597633732E+02  0.26090658098E+02  0.37128227459E+02  0.51100000000E-03 0.  1.
        -12    1    4    4    0    0  0.21722440970E+00  0.27693384001E+01  0.32915299808E+00  0.27972778401E+01  0.00000000000E+00 0.  1.
</event>
<event>
 8    1  0.5542925E-011  0.9118800E+02  0.7816164E-02  0.1184000E+00
        -11   -1    0    0    0    0  0.00000000000E+00  0.00000000000E+00  0.45593999997E+02  0.45594000000E+02  0.51100000000E-03 0. -1.
         11   -1    0    0    0    0 -0.00000000000E+00 -0.00000000000E+00 -0.45593999997E+02  0.45594000000E+02  0.51100000000E-03 0.  1.
         23    2    1    2    0    0  0.00000000000E+00  0.88817841970E-15  0.00000000000E+00  0.91188000000E+02  0.91188000000E+02 0.  0.
    9900012    2    3    3    0    0 -0.36557296420E+02 -0.51490881971E+01  0.22818288406E+02  0.47787270553E+02  0.19999997757E+02 0.  0.
        -12    1    3    3    0    0  0.36557296420E+02  0.51490881971E+01 -0.22818288406E+02  0.43400729447E+02  0.00000000000E+00 0.  1.
         11    1    4    4    0    0 -0.10391221986E+02 -0.14828774937E+01  0.21756244271E+01  0.10719597098E+02  0.51100000000E-03 0. -1.
        -11    1    4    4    0    0 -0.16828404026E+02  0.54100524404E+01  0.13271570036E+02  0.22104262507E+02  0.51100000000E-03 0.  1.
         12    1    4    4    0    0 -0.93376704076E+01 -0.90762631438E+01  0.73710939429E+01  0.14963410948E+02  0.00000000000E+00 0. -1.
</event>
<event>
 8    1  0.5542925E-011  0.9118800E+02  0.7816164E-02  0.1184000E+00
        -11   -1    0    0    0    0  0.00000000000E+00  0.00000000000E+00  0.45593999997E+02  0.45594000000E+02  0.51100000000E-03 0. -1.
         11   -1    0    0    0    0 -0.00000000000E+00 -0.00000000000E+00 -0.45593999997E+02  0.45594000000E+02  0.51100000000E-03 0.  1.
         23    2    1    2    0    0  0.00000000000E+00  0.00000000000E+00  0.71054273576E-14  0.91188000000E+02  0.91188000000E+02 0.  0.
    9900012    2    3    3    0    0  0.83581219668E+01 -0.16122091778E+02  0.39418809141E+02  0.47787279267E+02  0.20000037488E+02 0.  0.
        -12    1    3    3    0    0 -0.83581219668E+01  0.16122091778E+02 -0.39418809141E+02  0.43400720733E+02  0.00000000000E+00 0.  1.
         11    1    4    4    0    0  0.38250388557E+01 -0.91699640880E+00  0.27086877916E+02  0.27370983909E+02  0.51100000000E-03 0. -1.
        -11    1    4    4    0    0  0.87845454654E+00 -0.19084200470E+01  0.31340092484E+00  0.21241397946E+01  0.51100000000E-03 0.  1.
         12    1    4    4    0    0  0.36546285646E+01 -0.13296675322E+02  0.12018530300E+02  0.18292155563E+02  0.00000000000E+00 0. -1.
</event>
<event>
 8    1  0.5542925E-011  0.9118800E+02  0.7816164E-02  0.1184000E+00
        -11   -1    0    0    0    0  0.00000000000E+00  0.00000000000E+00  0.45593999997E+02  0.45594000000E+02  0.51100000000E-03 0. -1.
         11   -1    0    0    0    0 -0.00000000000E+00 -0.00000000000E+00 -0.45593999997E+02  0.45594000000E+02  0.51100000000E-03 0.  1.
         23    2    1    2    0    0  0.88817841970E-15  0.00000000000E+00  0.00000000000E+00  0.91188000000E+02  0.91188000000E+02 0.  0.
    9900012    2    3    3    0    0 -0.26374258853E+01  0.42564323430E+02  0.80588742201E+01  0.47787273070E+02  0.20000009237E+02 0.  0.
        -12    1    3    3    0    0  0.26374258853E+01 -0.42564323430E+02 -0.80588742201E+01  0.43400726930E+02  0.00000000000E+00 0.  1.
         11    1    4    4    0    0  0.12372473813E+01  0.83064826442E+01 -0.16031490615E+01  0.85497673755E+01  0.51100000000E-03 0. -1.
        -11    1    4    4    0    0 -0.90436338437E+01  0.22590264530E+02  0.21468724673E+01  0.24427779807E+02  0.51100000000E-03 0.  1.
         12    1    4    4    0    0  0.51689605771E+01  0.11667576255E+02  0.75151508142E+01  0.14809725888E+02  0.00000000000E+00 0. -1.
</event>
<event>
 8    1  0.5542925E-011  0.9118800E+02  0.7816164E-02  0.1184000E+00
        -11   -1    0    0    0    0  0.00000000000E+00  0.00000000000E+00  0.45593999997E+02  0.45594000000E+02  0.51100000000E-03 0. -1.
         11   -1    0    0    0    0 -0.00000000000E+00 -0.00000000000E+00 -0.45593999997E+02  0.45594000000E+02  0.51100000000E-03 0.  1.
         23    2    1    2    0    0 -0.71054273576E-14  0.00000000000E+00  0.00000000000E+00  0.91188000000E+02  0.91188000000E+02 0.  0.
    9900012    2    3    3    0    0 -0.41523892164E+02 -0.97104025713E+01  0.80683606982E+01  0.47787262876E+02  0.19999962755E+02 0.  0.
        -12    1    3    3    0    0  0.41523892164E+02  0.97104025713E+01 -0.80683606982E+01  0.43400737124E+02  0.00000000000E+00 0.  1.
         11    1    4    4    0    0 -0.14548648149E+02 -0.86544954967E+01  0.60981722258E+01  0.17993086451E+02  0.51100000000E-03 0. -1.
        -11    1    4    4    0    0  0.10243231528E+01  0.97819536024E+00 -0.72608776263E+00  0.15916368255E+01  0.51100000000E-03 0.  1.
        -12    1    4    4    0    0 -0.27999567168E+02 -0.20341024349E+01  0.26962762350E+01  0.28202539600E+02  0.00000000000E+00 0.  1.
</event>
<event>
 8    1  0.5542925E-011  0.9118800E+02  0.7816164E-02  0.1184000E+00
        -11   -1    0    0    0    0  0.00000000000E+00  0.00000000000E+00  0.45593999997E+02  0.45594000000E+02  0.51100000000E-03 0. -1.
         11   -1    0    0    0    0 -0.00000000000E+00 -0.00000000000E+00 -0.45593999997E+02  0.45594000000E+02  0.51100000000E-03 0.  1.
         23    2    1    2    0    0  0.88817841970E-15  0.00000000000E+00  0.00000000000E+00  0.91188000000E+02  0.91188000000E+02 0.  0.
    9900012    2    3    3    0    0 -0.50502216315E+01  0.22031962300E+02  0.37050127723E+02  0.47787261923E+02  0.19999958412E+02 0.  0.
        -12    1    3    3    0    0  0.50502216315E+01 -0.22031962300E+02 -0.37050127723E+02  0.43400738077E+02  0.00000000000E+00 0.  1.
         11    1    4    4    0    0 -0.75364466191E+01  0.51143893063E+01  0.15029583546E+02  0.17573940578E+02  0.51100000000E-03 0. -1.
        -11    1    4    4    0    0 -0.13144433478E+00  0.10657479848E+02  0.20725514654E+02  0.23305495323E+02  0.51100000000E-03 0.  1.
        -12    1    4    4    0    0  0.26176693224E+01  0.62600931466E+01  0.12950295230E+01  0.69078260221E+01  0.00000000000E+00 0.  1.
</event>
<event>
 8    1  0.5542925E-011  0.9118800E+02  0.7816164E-02  0.1184000E+00
        -11   -1    0    0    0    0  0.00000000000E+00  0.00000000000E+00  0.45593999997E+02  0.45594000000E+02  0.51100000000E-03 0. -1.
         11   -1    0    0    0    0 -0.00000000000E+00 -0.00000000000E+00 -0.45593999997E+02  0.45594000000E+02  0.51100000000E-03 0.  1.
         23    2    1    2    0    0  0.00000000000E+00  0.17763568394E-14  0.71054273576E-14  0.91188000000E+02  0.91188000000E+02 0.  0.
    9900012    2    3    3    0    0  0.12373131785E+02  0.10655145694E+02  0.40211885601E+02  0.47787282684E+02  0.20000053070E+02 0.  0.
        -12    1    3    3    0    0 -0.12373131785E+02 -0.10655145694E+02 -0.40211885601E+02  0.43400717316E+02  0.00000000000E+00 0.  1.
         11    1    4    4    0    0  0.44903886471E+01  0.39104534855E+01  0.20945223515E+02  0.21775160734E+02  0.51100000000E-03 0. -1.
        -11    1    4    4    0    0  0.70923760952E+01  0.80067814570E+01  0.52475774080E+01  0.11914168745E+02  0.51100000000E-03 0.  1.
        -12    1    4    4    0    0  0.79036704272E+00 -0.12620892482E+01  0.14019084678E+02  0.14097953204E+02  0.00000000000E+00 0.  1.
</event>
<event>
 8    1  0.5542925E-011  0.9118800E+02  0.7816164E-02  0.1184000E+00
        -11   -1    0    0    0    0  0.00000000000E+00  0.00000000000E+00  0.45593999997E+02  0.45594000000E+02  0.51100000000E-03 0. -1.
         11   -1    0    0    0    0 -0.00000000000E+00 -0.00000000000E+00 -0.45593999997E+02  0.45594000000E+02  0.51100000000E-03 0.  1.
         23    2    1    2    0    0  0.00000000000E+00  0.88817841970E-15  0.00000000000E+00  0.91188000000E+02  0.91188000000E+02 0.  0.
    9900012    2    3    3    0    0 -0.35336933990E+02 -0.63341995224E+01  0.24388577555E+02  0.47787266106E+02  0.19999977484E+02 0.  0.
        -12    1    3    3    0    0  0.35336933990E+02  0.63341995224E+01 -0.24388577555E+02  0.43400733894E+02  0.00000000000E+00 0.  1.
         11    1    4    4    0    0 -0.89770405716E+01 -0.48863242138E+01  0.49953475976E+01  0.11376155749E+02  0.51100000000E-03 0. -1.
        -11    1    4    4    0    0 -0.10846746884E+02 -0.65914370098E+01  0.25582531648E+01  0.12947726415E+02  0.51100000000E-03 0.  1.
         12    1    4    4    0    0 -0.15513146535E+02  0.51435617013E+01  0.16834976793E+02  0.23463383941E+02  0.00000000000E+00 0. -1.
</event>
<event>
 8    1  0.5542925E-011  0.9118800E+02  0.7816164E-02  0.1184000E+00
        -11   -1    0    0    0    0  0.00000000000E+00  0.00000000000E+00  0.45593999997E+02  0.45594000000E+02  0.51100000000E-03 0. -1.
         11   -1    0    0    0    0 -0.00000000000E+00 -0.00000000000E+00 -0.45593999997E+02  0.45594000000E+02  0.51100000000E-03 0.  1.
         23    2    1    2    0    0 -0.35527136788E-14 -0.35527136788E-14  0.00000000000E+00  0.91188000000E+02  0.91188000000E+02 0.  0.
    9900012    2    3    3    0    0  0.21332071103E+02  0.24527215090E+02 -0.28757285027E+02  0.47787274433E+02  0.20000015451E+02 0.  0.
         12    1    3    3    0    0 -0.21332071103E+02 -0.24527215090E+02  0.28757285027E+02  0.43400725567E+02  0.00000000000E+00 0. -1.
         11    1    4    4    0    0 -0.98630424150E-01  0.11237670698E+02 -0.14605725361E+02  0.18428841099E+02  0.51100000000E-03 0. -1.
        -11    1    4    4    0    0 -0.15007830652E+00  0.73202711200E+00 -0.30020290529E+00  0.80530071169E+00  0.51100000000E-03 0.  1.
        -12    1    4    4    0    0  0.21580779833E+02  0.12557517281E+02 -0.13851356761E+02  0.28553132623E+02  0.00000000000E+00 0.  1.
</event>
<event>
 8    1  0.5542925E-011  0.9118800E+02  0.7816164E-02  0.1184000E+00
        -11   -1    0    0    0    0  0.00000000000E+00  0.00000000000E+00  0.45593999997E+02  0.45594000000E+02  0.51100000000E-03 0.  1.
         11   -1    0    0    0    0 -0.00000000000E+00 -0.00000000000E+00 -0.45593999997E+02  0.45594000000E+02  0.51100000000E-03 0. -1.
         23    2    1    2    0    0  0.35527136788E-14 -0.35527136788E-14  0.71054273576E-14  0.91188000000E+02  0.91188000000E+02 0.  0.
    9900012    2    3    3    0    0 -0.18907281928E+02 -0.16226963326E+02  0.35536223268E+02  0.47787276356E+02  0.20000024217E+02 0.  0.
        -12    1    3    3    0    0  0.18907281928E+02  0.16226963326E+02 -0.35536223268E+02  0.43400723644E+02  0.00000000000E+00 0.  1.
         11    1    4    4    0    0 -0.71067534897E+01 -0.60432279733E+01  0.13302332060E+02  0.16247417887E+02  0.51100000000E-03 0. -1.
        -11    1    4    4    0    0 -0.78969471874E+01 -0.11514555125E+01  0.88106480609E+00  0.80289414079E+01  0.51100000000E-03 0.  1.
        -12    1    4    4    0    0 -0.39035812504E+01 -0.90322798398E+01  0.21352826402E+02  0.23510917061E+02  0.00000000000E+00 0.  1.
</event>
<event>
 8    1  0.5542925E-011  0.9118800E+02  0.7816164E-02  0.1184000E+00
        -11   -1    0    0    0    0  0.00000000000E+00  0.00000000000E+00  0.45593999997E+02  0.45594000000E+02  0.51100000000E-03 0.  1.
         11   -1    0    0    0    0 -0.00000000000E+00 -0.00000000000E+00 -0.45593999997E+02  0.45594000000E+02  0.51100000000E-03 0. -1.
         23    2    1    2    0    0  0.17763568394E-14  0.00000000000E+00  0.00000000000E+00  0.91188000000E+02  0.91188000000E+02 0.  0.
    9900012    2    3    3    0    0 -0.14719364813E+02 -0.26157642560E+02  0.31348702088E+02  0.47787273193E+02  0.20000009798E+02 0.  0.
        -12    1    3    3    0    0  0.14719364813E+02  0.26157642560E+02 -0.31348702088E+02  0.43400726807E+02  0.00000000000E+00 0.  1.
         11    1    4    4    0    0 -0.45412199455E+01 -0.58661832713E+01 -0.16235808877E+01  0.75941293066E+01  0.51100000000E-03 0. -1.
        -11    1    4    4    0    0 -0.29646032855E+01 -0.98639480955E+01  0.14327160181E+02  0.17645222124E+02  0.51100000000E-03 0.  1.
        -12    1    4    4    0    0 -0.72135415815E+01 -0.10427511193E+02  0.18645122794E+02  0.22547921763E+02  0.00000000000E+00 0.  1.
</event>
<event>
 8    1  0.5542925E-011  0.9118800E+02  0.7816164E-02  0.1184000E+00
        -11   -1    0    0    0    0  0.00000000000E+00  0.00000000000E+00  0.45593999997E+02  0.45594000000E+02  0.51100000000E-03 0. -1.
         11   -1    0    0    0    0 -0.00000000000E+00 -0.00000000000E+00 -0.45593999997E+02  0.45594000000E+02  0.51100000000E-03 0.  1.
         23    2    1    2    0    0 -0.35527136788E-14  0.17763568394E-14  0.71054273576E-14  0.91188000000E+02  0.91188000000E+02 0.  0.
    9900012    2    3    3    0    0 -0.20792030602E+02  0.14005913300E+02  0.35428078300E+02  0.47787275629E+02  0.20000020904E+02 0.  0.
        -12    1    3    3    0    0  0.20792030602E+02 -0.14005913300E+02 -0.35428078300E+02  0.43400724371E+02  0.00000000000E+00 0.  1.
         11    1    4    4    0    0 -0.50222986895E+01 -0.36865087728E+00  0.11039174868E+02  0.12133539040E+02  0.51100000000E-03 0. -1.
        -11    1    4    4    0    0 -0.16492748297E+02  0.61936736834E+01  0.18509712252E+02  0.25553508331E+02  0.51100000000E-03 0.  1.
         12    1    4    4    0    0  0.72301638456E+00  0.81808904935E+01  0.58791911792E+01  0.10100228259E+02  0.00000000000E+00 0. -1.
</event>
<event>
 8    1  0.5542925E-011  0.9118800E+02  0.7816164E-02  0.1184000E+00
        -11   -1    0    0    0    0  0.00000000000E+00  0.00000000000E+00  0.45593999997E+02  0.45594000000E+02  0.51100000000E-03 0. -1.
         11   -1    0    0    0    0 -0.00000000000E+00 -0.00000000000E+00 -0.45593999997E+02  0.45594000000E+02  0.51100000000E-03 0.  1.
         23    2    1    2    0    0  0.17763568394E-14 -0.88817841970E-15  0.00000000000E+00  0.91188000000E+02  0.91188000000E+02 0.  0.
    9900012    2    3    3    0    0  0.13785759086E+02 -0.25403931180E+01 -0.41074595925E+02  0.47787272112E+02  0.20000004869E+02 0.  0.
         12    1    3    3    0    0 -0.13785759086E+02  0.25403931180E+01  0.41074595925E+02  0.43400727888E+02  0.00000000000E+00 0. -1.
         11    1    4    4    0    0  0.30079964609E+00  0.57620391588E+01 -0.12591803546E+02  0.13850815589E+02  0.51100000000E-03 0. -1.
        -11    1    4    4    0    0  0.37130180904E+01  0.14188977711E+01 -0.30560615297E+01  0.50139093090E+01  0.51100000000E-03 0.  1.
        -12    1    4    4    0    0  0.97719413495E+01 -0.97213300479E+01 -0.25426730850E+02  0.28922547214E+02  0.00000000000E+00 0.  1.
</event>
<event>
 8    1  0.5542925E-011  0.9118800E+02  0.7816164E-02  0.1184000E+00
        -11   -1    0    0    0    0  0.00000000000E+00  0.00000000000E+00  0.45593999997E+02  0.45594000000E+02  0.51100000000E-03 0. -1.
         11   -1    0    0    0    0 -0.00000000000E+00 -0.00000000000E+00 -0.45593999997E+02  0.45594000000E+02  0.51100000000E-03 0.  1.
         23    2    1    2    0    0 -0.77715611724E-15  0.00000000000E+00  0.00000000000E+00  0.91188000000E+02  0.91188000000E+02 0.  0.
    9900012    2    3    3    0    0 -0.10617747682E+00  0.41302612325E+02  0.13330649810E+02  0.47787270940E+02  0.19999999526E+02 0.  0.
         12    1    3    3    0    0  0.10617747682E+00 -0.41302612325E+02 -0.13330649810E+02  0.43400729060E+02  0.00000000000E+00 0. -1.
         11    1    4    4    0    0  0.65763464526E-02  0.20486278175E+02  0.11427056119E+02  0.23457733235E+02  0.51100000000E-03 0. -1.
        -11    1    4    4    0    0  0.41376890999E+01  0.15431696534E+02  0.50866308787E+01  0.16766977753E+02  0.51100000000E-03 0.  1.
        -12    1    4    4    0    0 -0.42504429231E+01  0.53846376161E+01 -0.31830371877E+01  0.75625599527E+01  0.00000000000E+00 0.  1.
</event>
<event>
 8    1  0.5542925E-011  0.9118800E+02  0.7816164E-02  0.1184000E+00
        -11   -1    0    0    0    0  0.00000000000E+00  0.00000000000E+00  0.45593999997E+02  0.45594000000E+02  0.51100000000E-03 0. -1.
         11   -1    0    0    0    0 -0.00000000000E+00 -0.00000000000E+00 -0.45593999997E+02  0.45594000000E+02  0.51100000000E-03 0.  1.
         23    2    1    2    0    0  0.17763568394E-14  0.22204460493E-15  0.00000000000E+00  0.91188000000E+02  0.91188000000E+02 0.  0.
    9900012    2    3    3    0    0  0.14926159830E+02 -0.16917407973E+01  0.40718193319E+02  0.47787268424E+02  0.19999988050E+02 0.  0.
        -12    1    3    3    0    0 -0.14926159830E+02  0.16917407973E+01 -0.40718193319E+02  0.43400731576E+02  0.00000000000E+00 0.  1.
         11    1    4    4    0    0  0.55897717575E+01  0.18783487761E+01  0.62159314464E+01  0.85680538300E+01  0.51100000000E-03 0. -1.
        -11    1    4    4    0    0  0.59360772801E+01 -0.15329244849E+01  0.19600947702E+01  0.64365241179E+01  0.51100000000E-03 0.  1.
        -12    1    4    4    0    0  0.34003107920E+01 -0.20371650885E+01  0.32542167103E+02  0.32782690476E+02  0.00000000000E+00 0.  1.
</event>
<event>
 8    1  0.5542925E-011  0.9118800E+02  0.7816164E-02  0.1184000E+00
        -11   -1    0    0    0    0  0.00000000000E+00  0.00000000000E+00  0.45593999997E+02  0.45594000000E+02  0.51100000000E-03 0. -1.
         11   -1    0    0    0    0 -0.00000000000E+00 -0.00000000000E+00 -0.45593999997E+02  0.45594000000E+02  0.51100000000E-03 0.  1.
         23    2    1    2    0    0  0.00000000000E+00  0.00000000000E+00  0.44408920985E-15  0.91188000000E+02  0.91188000000E+02 0.  0.
    9900012    2    3    3    0    0 -0.37601160340E+02  0.21626656807E+02  0.14363687908E+01  0.47787277669E+02  0.20000030203E+02 0.  0.
         12    1    3    3    0    0  0.37601160340E+02 -0.21626656807E+02 -0.14363687908E+01  0.43400722331E+02  0.00000000000E+00 0. -1.
         11    1    4    4    0    0 -0.25057902929E+02  0.12493768357E+02 -0.23224459015E+00  0.28000833644E+02  0.51100000000E-03 0.  1.
        -11    1    4    4    0    0 -0.97608741005E+01  0.10239441998E+02  0.52759858153E+01  0.15098240368E+02  0.51100000000E-03 0. -1.
        -12    1    4    4    0    0 -0.27823833112E+01 -0.11065535485E+01 -0.36073724344E+01  0.46882036567E+01  0.00000000000E+00 0.  1.
</event>
<event>
 8    1  0.5542925E-011  0.9118800E+02  0.7816164E-02  0.1184000E+00
        -11   -1    0    0    0    0  0.00000000000E+00  0.00000000000E+00  0.45593999997E+02  0.45594000000E+02  0.51100000000E-03 0. -1.
         11   -1    0    0    0    0 -0.00000000000E+00 -0.00000000000E+00 -0.45593999997E+02  0.45594000000E+02  0.51100000000E-03 0.  1.
         23    2    1    2    0    0  0.35527136788E-14  0.00000000000E+00  0.71054273576E-14  0.91188000000E+02  0.91188000000E+02 0.  0.
    9900012    2    3    3    0    0  0.29733294123E+02 -0.17355121512E+02  0.26426484933E+02  0.47787215122E+02  0.19999745027E+02 0.  0.
        -12    1    3    3    0    0 -0.29733294123E+02  0.17355121512E+02 -0.26426484933E+02  0.43400784878E+02  0.00000000000E+00 0.  1.
         11    1    4    4    0    0  0.14592125253E+02 -0.12320116946E+02  0.79392377870E+01  0.20682042885E+02  0.51100000000E-03 0. -1.
        -11    1    4    4    0    0  0.13336526372E+02 -0.85513950872E+01  0.15345949695E+02  0.22056460865E+02  0.51100000000E-03 0.  1.
        -12    1    4    4    0    0  0.18046424980E+01  0.35163905217E+01  0.31412974511E+01  0.50487113725E+01  0.00000000000E+00 0.  1.
</event>
<event>
 8    1  0.5542925E-011  0.9118800E+02  0.7816164E-02  0.1184000E+00
        -11   -1    0    0    0    0  0.00000000000E+00  0.00000000000E+00  0.45593999997E+02  0.45594000000E+02  0.51100000000E-03 0. -1.
         11   -1    0    0    0    0 -0.00000000000E+00 -0.00000000000E+00 -0.45593999997E+02  0.45594000000E+02  0.51100000000E-03 0.  1.
         23    2    1    2    0    0 -0.16653345369E-15 -0.71054273576E-14  0.35527136788E-14  0.91188000000E+02  0.91188000000E+02 0.  0.
    9900012    2    3    3    0    0 -0.34906191638E+00 -0.34238586132E+02  0.26668752670E+02  0.47787251233E+02  0.19999909673E+02 0.  0.
        -12    1    3    3    0    0  0.34906191638E+00  0.34238586132E+02 -0.26668752670E+02  0.43400748767E+02  0.00000000000E+00 0.  1.
         11    1    4    4    0    0 -0.10504910612E+01 -0.13465308791E+01  0.60029405707E+01  0.62411515472E+01  0.51100000000E-03 0. -1.
        -11    1    4    4    0    0  0.34587937449E+01 -0.47004532673E+00  0.16898483417E+01  0.38781160966E+01  0.51100000000E-03 0.  1.
         12    1    4    4    0    0 -0.27573646001E+01 -0.32422009926E+02  0.18975963757E+02  0.37667983590E+02  0.00000000000E+00 0. -1.
</event>
<event>
 8    1  0.5542925E-011  0.9118800E+02  0.7816164E-02  0.1184000E+00
        -11   -1    0    0    0    0  0.00000000000E+00  0.00000000000E+00  0.45593999997E+02  0.45594000000E+02  0.51100000000E-03 0. -1.
         11   -1    0    0    0    0 -0.00000000000E+00 -0.00000000000E+00 -0.45593999997E+02  0.45594000000E+02  0.51100000000E-03 0.  1.
         23    2    1    2    0    0 -0.44408920985E-15  0.00000000000E+00  0.00000000000E+00  0.91188000000E+02  0.91188000000E+02 0.  0.
    9900012    2    3    3    0    0 -0.39805989466E+01 -0.30003943514E+02  0.31105321854E+02  0.47787276020E+02  0.20000022684E+02 0.  0.
        -12    1    3    3    0    0  0.39805989466E+01  0.30003943514E+02 -0.31105321854E+02  0.43400723980E+02  0.00000000000E+00 0.  1.
         11    1    4    4    0    0 -0.51007296280E+01 -0.11359981813E+02  0.70104256232E+01  0.14290300809E+02  0.51100000000E-03 0. -1.
        -11    1    4    4    0    0  0.42214039183E+01 -0.67291361673E+01  0.19812244021E+01  0.81869881515E+01  0.51100000000E-03 0.  1.
         12    1    4    4    0    0 -0.31012732369E+01 -0.11914825534E+02  0.22113671829E+02  0.25309987059E+02  0.00000000000E+00 0. -1.
</event>
<event>
 8    1  0.5542925E-011  0.9118800E+02  0.7816164E-02  0.1184000E+00
        -11   -1    0    0    0    0  0.00000000000E+00  0.00000000000E+00  0.45593999997E+02  0.45594000000E+02  0.51100000000E-03 0. -1.
         11   -1    0    0    0    0 -0.00000000000E+00 -0.00000000000E+00 -0.45593999997E+02  0.45594000000E+02  0.51100000000E-03 0.  1.
         23    2    1    2    0    0  0.00000000000E+00 -0.88817841970E-15  0.00000000000E+00  0.91188000000E+02  0.91188000000E+02 0.  0.
    9900012    2    3    3    0    0 -0.39250738332E+02  0.53408057307E+01 -0.17733460156E+02  0.47787305598E+02  0.20000157543E+02 0.  0.
         12    1    3    3    0    0  0.39250738332E+02 -0.53408057307E+01  0.17733460156E+02  0.43400694402E+02  0.00000000000E+00 0. -1.
         11    1    4    4    0    0  0.12012651148E+01  0.43831361080E+00 -0.30024742997E+01  0.32634351348E+01  0.51100000000E-03 0. -1.
        -11    1    4    4    0    0 -0.10981669087E+02  0.57368586027E+01 -0.26952459441E+01  0.12679627500E+02  0.51100000000E-03 0.  1.
         12    1    4    4    0    0 -0.29470334360E+02 -0.83436648284E+00 -0.12035739912E+02  0.31844242964E+02  0.00000000000E+00 0. -1.
</event>
<event>
 8    1  0.5542925E-011  0.9118800E+02  0.7816164E-02  0.1184000E+00
        -11   -1    0    0    0    0  0.00000000000E+00  0.00000000000E+00  0.45593999997E+02  0.45594000000E+02  0.51100000000E-03 0. -1.
         11   -1    0    0    0    0 -0.00000000000E+00 -0.00000000000E+00 -0.45593999997E+02  0.45594000000E+02  0.51100000000E-03 0.  1.
         23    2    1    2    0    0 -0.35527136788E-14  0.00000000000E+00 -0.17763568394E-14  0.91188000000E+02  0.91188000000E+02 0.  0.
    9900012    2    3    3    0    0  0.26350028510E+02  0.34087396357E+02  0.52296193944E+01  0.47787268302E+02  0.19999987498E+02 0.  0.
        -12    1    3    3    0    0 -0.26350028510E+02 -0.34087396357E+02 -0.52296193944E+01  0.43400731698E+02  0.00000000000E+00 0.  1.
         11    1    4    4    0    0  0.90875588383E+01  0.11509737593E+02  0.70834815609E+01  0.16285990801E+02  0.51100000000E-03 0. -1.
        -11    1    4    4    0    0 -0.55092507592E+00  0.71373654802E+01  0.23932148112E+01  0.75480449012E+01  0.51100000000E-03 0.  1.
         12    1    4    4    0    0  0.17813394747E+02  0.15440293284E+02 -0.42470769777E+01  0.23953232600E+02  0.00000000000E+00 0. -1.
</event>
<event>
 8    1  0.5542925E-011  0.9118800E+02  0.7816164E-02  0.1184000E+00
        -11   -1    0    0    0    0  0.00000000000E+00  0.00000000000E+00  0.45593999997E+02  0.45594000000E+02  0.51100000000E-03 0. -1.
         11   -1    0    0    0    0 -0.00000000000E+00 -0.00000000000E+00 -0.45593999997E+02  0.45594000000E+02  0.51100000000E-03 0.  1.
         23    2    1    2    0    0  0.00000000000E+00 -0.35527136788E-14  0.00000000000E+00  0.91188000000E+02  0.91188000000E+02 0.  0.
    9900012    2    3    3    0    0 -0.38379904612E+02  0.20142912298E+02  0.22066836616E+01  0.47787269054E+02  0.19999990923E+02 0.  0.
        -12    1    3    3    0    0  0.38379904612E+02 -0.20142912298E+02 -0.22066836616E+01  0.43400730946E+02  0.00000000000E+00 0.  1.
         11    1    4    4    0    0 -0.24059712719E+02  0.10002545469E+02  0.63272526739E+01  0.26813332852E+02  0.51100000000E-03 0. -1.
        -11    1    4    4    0    0 -0.90493101588E+01 -0.87005439773E-01 -0.21349208410E+01  0.92981434467E+01  0.51100000000E-03 0.  1.
         12    1    4    4    0    0 -0.52708817349E+01  0.10227372269E+02 -0.19856481713E+01  0.11675792755E+02  0.00000000000E+00 0. -1.
</event>
<event>
 8    1  0.5542925E-011  0.9118800E+02  0.7816164E-02  0.1184000E+00
        -11   -1    0    0    0    0  0.00000000000E+00  0.00000000000E+00  0.45593999997E+02  0.45594000000E+02  0.51100000000E-03 0. -1.
         11   -1    0    0    0    0 -0.00000000000E+00 -0.00000000000E+00 -0.45593999997E+02  0.45594000000E+02  0.51100000000E-03 0.  1.
         23    2    1    2    0    0  0.00000000000E+00  0.71054273576E-14 -0.35527136788E-14  0.91188000000E+02  0.91188000000E+02 0.  0.
    9900012    2    3    3    0    0 -0.20756033533E+02 -0.34128981278E+02  0.16971238373E+02  0.47787271630E+02  0.20000002670E+02 0.  0.
        -12    1    3    3    0    0  0.20756033533E+02  0.34128981278E+02 -0.16971238373E+02  0.43400728370E+02  0.00000000000E+00 0.  1.
         11    1    4    4    0    0 -0.19267121502E+02 -0.15731711002E+02  0.12395079074E+02  0.27791126057E+02  0.51100000000E-03 0. -1.
        -11    1    4    4    0    0 -0.15659017975E+01 -0.86271660192E+01  0.52203687338E+01  0.10204523112E+02  0.51100000000E-03 0.  1.
        -12    1    4    4    0    0  0.76989766313E-01 -0.97701042571E+01 -0.64420943472E+00  0.97916224608E+01  0.00000000000E+00 0.  1.
</event>
<event>
 8    1  0.5542925E-011  0.9118800E+02  0.7816164E-02  0.1184000E+00
        -11   -1    0    0    0    0  0.00000000000E+00  0.00000000000E+00  0.45593999997E+02  0.45594000000E+02  0.51100000000E-03 0. -1.
         11   -1    0    0    0    0 -0.00000000000E+00 -0.00000000000E+00 -0.45593999997E+02  0.45594000000E+02  0.51100000000E-03 0.  1.
         23    2    1    2    0    0  0.88817841970E-15  0.35527136788E-14  0.00000000000E+00  0.91188000000E+02  0.91188000000E+02 0.  0.
    9900012    2    3    3    0    0 -0.66903595362E+01  0.10538354342E+02 -0.41566876538E+02  0.47787273645E+02  0.20000011858E+02 0.  0.
         12    1    3    3    0    0  0.66903595362E+01 -0.10538354342E+02  0.41566876538E+02  0.43400726355E+02  0.00000000000E+00 0. -1.
         11    1    4    4    0    0 -0.54520922410E+01  0.20685337845E+01 -0.19551907979E+02  0.20402971541E+02  0.51100000000E-03 0.  1.
        -11    1    4    4    0    0 -0.29649349724E+01  0.10495416878E+02 -0.22181252862E+02  0.24717455242E+02  0.51100000000E-03 0. -1.
         12    1    4    4    0    0  0.17266676772E+01 -0.20255963201E+01  0.16628430282E+00  0.26668468626E+01  0.00000000000E+00 0. -1.
</event>
<event>
 8    1  0.5542925E-011  0.9118800E+02  0.7816164E-02  0.1184000E+00
        -11   -1    0    0    0    0  0.00000000000E+00  0.00000000000E+00  0.45593999997E+02  0.45594000000E+02  0.51100000000E-03 0. -1.
         11   -1    0    0    0    0 -0.00000000000E+00 -0.00000000000E+00 -0.45593999997E+02  0.45594000000E+02  0.51100000000E-03 0.  1.
         23    2    1    2    0    0  0.00000000000E+00  0.35527136788E-14  0.00000000000E+00  0.91188000000E+02  0.91188000000E+02 0.  0.
    9900012    2    3    3    0    0  0.16525367262E+02 -0.20500362248E+02 -0.34500299584E+02  0.47787270895E+02  0.19999999318E+02 0.  0.
         12    1    3    3    0    0 -0.16525367262E+02  0.20500362248E+02  0.34500299584E+02  0.43400729105E+02  0.00000000000E+00 0. -1.
         11    1    4    4    0    0  0.27629893659E+01 -0.52730626427E+01 -0.23395046959E+02  0.24140578335E+02  0.51100000000E-03 0.  1.
        -11    1    4    4    0    0  0.43840444280E-01 -0.12457628463E+01 -0.32437063481E+00  0.12880464369E+01  0.51100000000E-03 0. -1.
        -12    1    4    4    0    0  0.13718537452E+02 -0.13981536759E+02 -0.10780881991E+02  0.22358646123E+02  0.00000000000E+00 0.  1.
</event>
<event>
 8    1  0.5542925E-011  0.9118800E+02  0.7816164E-02  0.1184000E+00
        -11   -1    0    0    0    0  0.00000000000E+00  0.00000000000E+00  0.45593999997E+02  0.45594000000E+02  0.51100000000E-03 0. -1.
         11   -1    0    0    0    0 -0.00000000000E+00 -0.00000000000E+00 -0.45593999997E+02  0.45594000000E+02  0.51100000000E-03 0.  1.
         23    2    1    2    0    0  0.23592239273E-15  0.00000000000E+00  0.00000000000E+00  0.91188000000E+02  0.91188000000E+02 0.  0.
    9900012    2    3    3    0    0 -0.53031821180E-01  0.13017111214E+02 -0.41402601545E+02  0.47787269460E+02  0.19999992777E+02 0.  0.
         12    1    3    3    0    0  0.53031821180E-01 -0.13017111214E+02  0.41402601545E+02  0.43400730540E+02  0.00000000000E+00 0. -1.
         11    1    4    4    0    0  0.10390916442E+01 -0.81223004031E-01  0.11119765131E+00  0.10481764166E+01  0.51100000000E-03 0. -1.
        -11    1    4    4    0    0  0.65172034996E+01  0.11303767804E+02 -0.31025496584E+02  0.33657548137E+02  0.51100000000E-03 0.  1.
         12    1    4    4    0    0 -0.76093269650E+01  0.17945664136E+01 -0.10488302611E+02  0.13081544906E+02  0.00000000000E+00 0. -1.
</event>
<event>
 8    1  0.5542925E-011  0.9118800E+02  0.7816164E-02  0.1184000E+00
        -11   -1    0    0    0    0  0.00000000000E+00  0.00000000000E+00  0.45593999997E+02  0.45594000000E+02  0.51100000000E-03 0. -1.
         11   -1    0    0    0    0 -0.00000000000E+00 -0.00000000000E+00 -0.45593999997E+02  0.45594000000E+02  0.51100000000E-03 0.  1.
         23    2    1    2    0    0  0.00000000000E+00 -0.36082248300E-15  0.00000000000E+00  0.91188000000E+02  0.91188000000E+02 0.  0.
    9900012    2    3    3    0    0 -0.15675752503E+02 -0.15489110425E+00  0.40470581978E+02  0.47787294782E+02  0.20000108229E+02 0.  0.
        -12    1    3    3    0    0  0.15675752503E+02  0.15489110425E+00 -0.40470581978E+02  0.43400705218E+02  0.00000000000E+00 0.  1.
         11    1    4    4    0    0 -0.44041928171E+01  0.29627991474E+01  0.40946769665E+01  0.67038401592E+01  0.51100000000E-03 0. -1.
        -11    1    4    4    0    0 -0.86944421619E+01  0.48979313308E+01  0.25099104883E+02  0.27010148500E+02  0.51100000000E-03 0.  1.
        -12    1    4    4    0    0 -0.25771175238E+01 -0.80156215824E+01  0.11276800129E+02  0.14073306123E+02  0.00000000000E+00 0.  1.
</event>
<event>
 8    1  0.5542925E-011  0.9118800E+02  0.7816164E-02  0.1184000E+00
        -11   -1    0    0    0    0  0.00000000000E+00  0.00000000000E+00  0.45593999997E+02  0.45594000000E+02  0.51100000000E-03 0. -1.
         11   -1    0    0    0    0 -0.00000000000E+00 -0.00000000000E+00 -0.45593999997E+02  0.45594000000E+02  0.51100000000E-03 0.  1.
         23    2    1    2    0    0  0.00000000000E+00  0.00000000000E+00  0.00000000000E+00  0.91188000000E+02  0.91188000000E+02 0.  0.
    9900012    2    3    3    0    0  0.27408280081E+02  0.54317490619E+01 -0.33210016759E+02  0.47787275029E+02  0.20000018166E+02 0.  0.
         12    1    3    3    0    0 -0.27408280081E+02 -0.54317490619E+01  0.33210016759E+02  0.43400724971E+02  0.00000000000E+00 0. -1.
         11    1    4    4    0    0  0.27717196831E+01  0.59783519224E+01 -0.87906256561E+01  0.10986274227E+02  0.51100000000E-03 0.  1.
        -11    1    4    4    0    0  0.14590673082E+02 -0.58433666573E+01 -0.10811513079E+02  0.19076726402E+02  0.51100000000E-03 0. -1.
         12    1    4    4    0    0  0.10045887316E+02  0.52967637967E+01 -0.13607878024E+02  0.17724274400E+02  0.00000000000E+00 0. -1.
</event>
<event>
 8    1  0.5542925E-011  0.9118800E+02  0.7816164E-02  0.1184000E+00
        -11   -1    0    0    0    0  0.00000000000E+00  0.00000000000E+00  0.45593999997E+02  0.45594000000E+02  0.51100000000E-03 0. -1.
         11   -1    0    0    0    0 -0.00000000000E+00 -0.00000000000E+00 -0.45593999997E+02  0.45594000000E+02  0.51100000000E-03 0.  1.
         23    2    1    2    0    0  0.88817841970E-15  0.00000000000E+00  0.00000000000E+00  0.91188000000E+02  0.91188000000E+02 0.  0.
    9900012    2    3    3    0    0 -0.51911816525E+01  0.19520287529E+02 -0.38413974259E+02  0.47787269470E+02  0.19999992823E+02 0.  0.
         12    1    3    3    0    0  0.51911816525E+01 -0.19520287529E+02  0.38413974259E+02  0.43400730530E+02  0.00000000000E+00 0. -1.
         11    1    4    4    0    0  0.12256852233E+00  0.13533265922E+02 -0.16079286671E+02  0.21016844902E+02  0.51100000000E-03 0. -1.
        -11    1    4    4    0    0 -0.30426291219E+01  0.94096963695E+01 -0.11411363328E+02  0.15100304335E+02  0.51100000000E-03 0.  1.
        -12    1    4    4    0    0 -0.22711210530E+01 -0.34226747620E+01 -0.10923324260E+02  0.11670120233E+02  0.00000000000E+00 0.  1.
</event>
<event>
 8    1  0.5542925E-011  0.9118800E+02  0.7816164E-02  0.1184000E+00
        -11   -1    0    0    0    0  0.00000000000E+00  0.00000000000E+00  0.45593999997E+02  0.45594000000E+02  0.51100000000E-03 0. -1.
         11   -1    0    0    0    0 -0.00000000000E+00 -0.00000000000E+00 -0.45593999997E+02  0.45594000000E+02  0.51100000000E-03 0.  1.
         23    2    1    2    0    0  0.00000000000E+00  0.00000000000E+00 -0.31918911958E-15  0.91188000000E+02  0.91188000000E+02 0.  0.
    9900012    2    3    3    0    0 -0.19709086895E+02  0.38667472150E+02  0.42899221372E-01  0.47787270179E+02  0.19999996054E+02 0.  0.
         12    1    3    3    0    0  0.19709086895E+02 -0.38667472150E+02 -0.42899221372E-01  0.43400729821E+02  0.00000000000E+00 0. -1.
         11    1    4    4    0    0  0.97120566462E+00 -0.80527690454E+00  0.29394101880E+00  0.12954199781E+01  0.51100000000E-03 0. -1.
        -11    1    4    4    0    0 -0.78033902727E+01  0.69364757881E+01 -0.42495556571E+01  0.11272369744E+02  0.51100000000E-03 0.  1.
         12    1    4    4    0    0 -0.12876902286E+02  0.32536273266E+02  0.39985138597E+01  0.35219480457E+02  0.00000000000E+00 0. -1.
</event>
<event>
 8    1  0.5542925E-011  0.9118800E+02  0.7816164E-02  0.1184000E+00
        -11   -1    0    0    0    0  0.00000000000E+00  0.00000000000E+00  0.45593999997E+02  0.45594000000E+02  0.51100000000E-03 0. -1.
         11   -1    0    0    0    0 -0.00000000000E+00 -0.00000000000E+00 -0.45593999997E+02  0.45594000000E+02  0.51100000000E-03 0.  1.
         23    2    1    2    0    0  0.13322676296E-14 -0.88817841970E-15  0.00000000000E+00  0.91188000000E+02  0.91188000000E+02 0.  0.
    9900012    2    3    3    0    0 -0.39545945559E+01  0.69668779859E+01  0.42654978747E+02  0.47787269374E+02  0.19999992382E+02 0.  0.
        -12    1    3    3    0    0  0.39545945559E+01 -0.69668779859E+01 -0.42654978747E+02  0.43400730626E+02  0.00000000000E+00 0.  1.
         11    1    4    4    0    0 -0.13542019730E+01  0.28504460088E+00  0.13060390605E+02  0.13133503585E+02  0.51100000000E-03 0. -1.
        -11    1    4    4    0    0 -0.79356415488E+01 -0.12778901286E+01  0.99033919287E+01  0.12754786628E+02  0.51100000000E-03 0.  1.
         12    1    4    4    0    0  0.53352489659E+01  0.79597235136E+01  0.19691196214E+02  0.21898979161E+02  0.00000000000E+00 0. -1.
</event>
<event>
 8    1  0.5542925E-011  0.9118800E+02  0.7816164E-02  0.1184000E+00
        -11   -1    0    0    0    0  0.00000000000E+00  0.00000000000E+00  0.45593999997E+02  0.45594000000E+02  0.51100000000E-03 0. -1.
         11   -1    0    0    0    0 -0.00000000000E+00 -0.00000000000E+00 -0.45593999997E+02  0.45594000000E+02  0.51100000000E-03 0.  1.
         23    2    1    2    0    0  0.00000000000E+00  0.00000000000E+00  0.35527136788E-14  0.91188000000E+02  0.91188000000E+02 0.  0.
    9900012    2    3    3    0    0  0.26159210562E+02 -0.23196901814E+02  0.25714250597E+02  0.47787271496E+02  0.20000002057E+02 0.  0.
        -12    1    3    3    0    0 -0.26159210562E+02  0.23196901814E+02 -0.25714250597E+02  0.43400728504E+02  0.00000000000E+00 0.  1.
         11    1    4    4    0    0  0.44357062406E+01 -0.84687032647E+01  0.14297402978E+02  0.17199132450E+02  0.51100000000E-03 0. -1.
        -11    1    4    4    0    0  0.19745635434E+01 -0.64028335111E+01  0.44853024608E+01  0.80630711632E+01  0.51100000000E-03 0.  1.
         12    1    4    4    0    0  0.19748940777E+02 -0.83253650378E+01  0.69315451577E+01  0.22525067883E+02  0.00000000000E+00 0. -1.
</event>
<event>
 8    1  0.5542925E-011  0.9118800E+02  0.7816164E-02  0.1184000E+00
        -11   -1    0    0    0    0  0.00000000000E+00  0.00000000000E+00  0.45593999997E+02  0.45594000000E+02  0.51100000000E-03 0. -1.
         11   -1    0    0    0    0 -0.00000000000E+00 -0.00000000000E+00 -0.45593999997E+02  0.45594000000E+02  0.51100000000E-03 0.  1.
         23    2    1    2    0    0 -0.88817841970E-15 -0.44408920985E-15  0.00000000000E+00  0.91188000000E+02  0.91188000000E+02 0.  0.
    9900012    2    3    3    0    0 -0.66659549437E+01 -0.35644810930E+01  0.42737363907E+02  0.47787277028E+02  0.20000027283E+02 0.  0.
        -12    1    3    3    0    0  0.66659549437E+01  0.35644810930E+01 -0.42737363907E+02  0.43400722972E+02  0.00000000000E+00 0.  1.
         11    1    4    4    0    0  0.16519760836E+01 -0.51030741307E+01  0.20387511168E+02  0.21081295084E+02  0.51100000000E-03 0. -1.
        -11    1    4    4    0    0  0.12893710340E+01 -0.77578020569E+00  0.13048546675E+02  0.13135025054E+02  0.51100000000E-03 0.  1.
        -12    1    4    4    0    0 -0.96073020612E+01  0.23143732435E+01  0.93013060643E+01  0.13570956890E+02  0.00000000000E+00 0.  1.
</event>
<event>
 8    1  0.5542925E-011  0.9118800E+02  0.7816164E-02  0.1184000E+00
        -11   -1    0    0    0    0  0.00000000000E+00  0.00000000000E+00  0.45593999997E+02  0.45594000000E+02  0.51100000000E-03 0. -1.
         11   -1    0    0    0    0 -0.00000000000E+00 -0.00000000000E+00 -0.45593999997E+02  0.45594000000E+02  0.51100000000E-03 0.  1.
         23    2    1    2    0    0  0.88817841970E-15  0.00000000000E+00  0.00000000000E+00  0.91188000000E+02  0.91188000000E+02 0.  0.
    9900012    2    3    3    0    0 -0.39440646740E+01 -0.34876553474E+02  0.25528298448E+02  0.47787266711E+02  0.19999980242E+02 0.  0.
        -12    1    3    3    0    0  0.39440646740E+01  0.34876553474E+02 -0.25528298448E+02  0.43400733289E+02  0.00000000000E+00 0.  1.
         11    1    4    4    0    0  0.28186820640E+01 -0.40708347702E+01  0.70052387204E+01  0.85784633878E+01  0.51100000000E-03 0. -1.
        -11    1    4    4    0    0  0.23814910609E+01 -0.15020309334E+02  0.13377383195E+02  0.20254272971E+02  0.51100000000E-03 0.  1.
         12    1    4    4    0    0 -0.91442377989E+01 -0.15785409370E+02  0.51456765319E+01  0.18954530352E+02  0.00000000000E+00 0. -1.
</event>
<event>
 8    1  0.5542925E-011  0.9118800E+02  0.7816164E-02  0.1184000E+00
        -11   -1    0    0    0    0  0.00000000000E+00  0.00000000000E+00  0.45593999997E+02  0.45594000000E+02  0.51100000000E-03 0. -1.
         11   -1    0    0    0    0 -0.00000000000E+00 -0.00000000000E+00 -0.45593999997E+02  0.45594000000E+02  0.51100000000E-03 0.  1.
         23    2    1    2    0    0 -0.26645352591E-14  0.00000000000E+00  0.00000000000E+00  0.91188000000E+02  0.91188000000E+02 0.  0.
    9900012    2    3    3    0    0  0.41695786274E+01  0.19658596202E+02  0.38467879038E+02  0.47787268345E+02  0.19999987690E+02 0.  0.
        -12    1    3    3    0    0 -0.41695786274E+01 -0.19658596202E+02 -0.38467879038E+02  0.43400731655E+02  0.00000000000E+00 0.  1.
         11    1    4    4    0    0  0.96797135377E+01  0.62877163838E+01  0.18522214575E+02  0.21824405250E+02  0.51100000000E-03 0. -1.
        -11    1    4    4    0    0  0.21787938628E+01  0.31258966869E+01  0.44631084466E+01  0.58683651949E+01  0.51100000000E-03 0.  1.
        -12    1    4    4    0    0 -0.76889287731E+01  0.10244983132E+02  0.15482556016E+02  0.20094497900E+02  0.00000000000E+00 0.  1.
</event>
<event>
 8    1  0.5542925E-011  0.9118800E+02  0.7816164E-02  0.1184000E+00
        -11   -1    0    0    0    0  0.00000000000E+00  0.00000000000E+00  0.45593999997E+02  0.45594000000E+02  0.51100000000E-03 0. -1.
         11   -1    0    0    0    0 -0.00000000000E+00 -0.00000000000E+00 -0.45593999997E+02  0.45594000000E+02  0.51100000000E-03 0.  1.
         23    2    1    2    0    0  0.00000000000E+00  0.00000000000E+00  0.00000000000E+00  0.91188000000E+02  0.91188000000E+02 0.  0.
    9900012    2    3    3    0    0  0.31884382157E+02  0.41427071175E+01  0.29152121269E+02  0.47787285463E+02  0.20000065742E+02 0.  0.
        -12    1    3    3    0    0 -0.31884382157E+02 -0.41427071175E+01 -0.29152121269E+02  0.43400714537E+02  0.00000000000E+00 0.  1.
         11    1    4    4    0    0  0.22821781093E+02  0.87880412064E+01  0.18342041654E+02  0.30569492191E+02  0.51100000000E-03 0. -1.
        -11    1    4    4    0    0  0.35368382352E+01  0.22836846561E+01  0.53516373840E+01  0.68091455603E+01  0.51100000000E-03 0.  1.
        -12    1    4    4    0    0  0.55257628294E+01 -0.69290187451E+01  0.54584422306E+01  0.10408647712E+02  0.00000000000E+00 0.  1.
</event>
<event>
 8    1  0.5542925E-011  0.9118800E+02  0.7816164E-02  0.1184000E+00
        -11   -1    0    0    0    0  0.00000000000E+00  0.00000000000E+00  0.45593999997E+02  0.45594000000E+02  0.51100000000E-03 0. -1.
         11   -1    0    0    0    0 -0.00000000000E+00 -0.00000000000E+00 -0.45593999997E+02  0.45594000000E+02  0.51100000000E-03 0.  1.
         23    2    1    2    0    0 -0.71054273576E-14  0.88817841970E-15  0.00000000000E+00  0.91188000000E+02  0.91188000000E+02 0.  0.
    9900012    2    3    3    0    0 -0.32114097582E+02 -0.43004374431E+01 -0.28875842140E+02  0.47787270916E+02  0.19999999415E+02 0.  0.
         12    1    3    3    0    0  0.32114097582E+02  0.43004374431E+01  0.28875842140E+02  0.43400729084E+02  0.00000000000E+00 0. -1.
         11    1    4    4    0    0  0.77929499881E+00 -0.19455613218E+01 -0.41173116354E+00  0.21358914683E+01  0.51100000000E-03 0. -1.
        -11    1    4    4    0    0 -0.11190938203E+02 -0.63303633645E+01 -0.60838824497E+01  0.14224071995E+02  0.51100000000E-03 0.  1.
        -12    1    4    4    0    0 -0.21702454377E+02  0.39754872432E+01 -0.22380228527E+02  0.31427307453E+02  0.00000000000E+00 0.  1.
</event>
<event>
 8    1  0.5542925E-011  0.9118800E+02  0.7816164E-02  0.1184000E+00
        -11   -1    0    0    0    0  0.00000000000E+00  0.00000000000E+00  0.45593999997E+02  0.45594000000E+02  0.51100000000E-03 0. -1.
         11   -1    0    0    0    0 -0.00000000000E+00 -0.00000000000E+00 -0.45593999997E+02  0.45594000000E+02  0.51100000000E-03 0.  1.
         23    2    1    2    0    0  0.00000000000E+00  0.22204460493E-15  0.00000000000E+00  0.91188000000E+02  0.91188000000E+02 0.  0.
    9900012    2    3    3    0    0 -0.31026215626E+01  0.10274890601E+01  0.43277489748E+02  0.47787272895E+02  0.20000008438E+02 0.  0.
        -12    1    3    3    0    0  0.31026215626E+01 -0.10274890601E+01 -0.43277489748E+02  0.43400727105E+02  0.00000000000E+00 0.  1.
         11    1    4    4    0    0  0.29448965826E+00 -0.31458298788E+01  0.17524452015E+02  0.17807003916E+02  0.51100000000E-03 0. -1.
        -11    1    4    4    0    0 -0.75598122346E+01 -0.16172708224E+01  0.17105635147E+02  0.18771496477E+02  0.51100000000E-03 0.  1.
         12    1    4    4    0    0  0.41627010137E+01  0.57905897613E+01  0.86474025861E+01  0.11208772502E+02  0.00000000000E+00 0. -1.
</event>
<event>
 8    1  0.5542925E-011  0.9118800E+02  0.7816164E-02  0.1184000E+00
        -11   -1    0    0    0    0  0.00000000000E+00  0.00000000000E+00  0.45593999997E+02  0.45594000000E+02  0.51100000000E-03 0. -1.
         11   -1    0    0    0    0 -0.00000000000E+00 -0.00000000000E+00 -0.45593999997E+02  0.45594000000E+02  0.51100000000E-03 0.  1.
         23    2    1    2    0    0  0.00000000000E+00 -0.44408920985E-15  0.00000000000E+00  0.91188000000E+02  0.91188000000E+02 0.  0.
    9900012    2    3    3    0    0 -0.22903651439E+02  0.22453911811E+01 -0.36796808376E+02  0.47787261096E+02  0.19999954640E+02 0.  0.
         12    1    3    3    0    0  0.22903651439E+02 -0.22453911811E+01  0.36796808376E+02  0.43400738904E+02  0.00000000000E+00 0. -1.
         11    1    4    4    0    0 -0.13591827572E+02 -0.47705787234E+01 -0.11554451134E+02  0.18466226993E+02  0.51100000000E-03 0. -1.
        -11    1    4    4    0    0 -0.89780827762E+01  0.20930683816E+01 -0.11621187832E+02  0.14833708656E+02  0.51100000000E-03 0.  1.
        -12    1    4    4    0    0 -0.33374109104E+00  0.49229015228E+01 -0.13621169410E+02  0.14487325447E+02  0.00000000000E+00 0.  1.
</event>
<event>
 8    1  0.5542925E-011  0.9118800E+02  0.7816164E-02  0.1184000E+00
        -11   -1    0    0    0    0  0.00000000000E+00  0.00000000000E+00  0.45593999997E+02  0.45594000000E+02  0.51100000000E-03 0. -1.
         11   -1    0    0    0    0 -0.00000000000E+00 -0.00000000000E+00 -0.45593999997E+02  0.45594000000E+02  0.51100000000E-03 0.  1.
         23    2    1    2    0    0  0.00000000000E+00 -0.17763568394E-14  0.00000000000E+00  0.91188000000E+02  0.91188000000E+02 0.  0.
    9900012    2    3    3    0    0  0.25401787103E+02  0.40378803655E+01  0.34958096880E+02  0.47787264944E+02  0.19999972187E+02 0.  0.
        -12    1    3    3    0    0 -0.25401787103E+02 -0.40378803655E+01 -0.34958096880E+02  0.43400735056E+02  0.00000000000E+00 0.  1.
         11    1    4    4    0    0  0.12066047518E+02 -0.39635899186E+01  0.17209971096E+02  0.21388844128E+02  0.51100000000E-03 0. -1.
        -11    1    4    4    0    0  0.92408751672E+01 -0.16287351008E+00  0.13411031346E+02  0.16287297617E+02  0.51100000000E-03 0.  1.
        -12    1    4    4    0    0  0.40948644179E+01  0.81643437941E+01  0.43370944391E+01  0.10111123200E+02  0.00000000000E+00 0.  1.
</event>
<event>
 8    1  0.5542925E-011  0.9118800E+02  0.7816164E-02  0.1184000E+00
        -11   -1    0    0    0    0  0.00000000000E+00  0.00000000000E+00  0.45593999997E+02  0.45594000000E+02  0.51100000000E-03 0. -1.
         11   -1    0    0    0    0 -0.00000000000E+00 -0.00000000000E+00 -0.45593999997E+02  0.45594000000E+02  0.51100000000E-03 0.  1.
         23    2    1    2    0    0  0.00000000000E+00  0.35527136788E-14  0.71054273576E-14  0.91188000000E+02  0.91188000000E+02 0.  0.
    9900012    2    3    3    0    0  0.12058604672E+02 -0.21564929700E+02 -0.35681468414E+02  0.47787270423E+02  0.19999997169E+02 0.  0.
         12    1    3    3    0    0 -0.12058604672E+02  0.21564929700E+02  0.35681468414E+02  0.43400729577E+02  0.00000000000E+00 0. -1.
         11    1    4    4    0    0 -0.41005894988E+00 -0.14368880217E+02 -0.19429853173E+02  0.24169237919E+02  0.51100000000E-03 0. -1.
        -11    1    4    4    0    0  0.78227676659E+01 -0.89002299190E+01 -0.13473995201E+02  0.17943197416E+02  0.51100000000E-03 0.  1.
         12    1    4    4    0    0  0.46458959557E+01  0.17041804362E+01 -0.27776200407E+01  0.56748350884E+01  0.00000000000E+00 0. -1.
</event>
<event>
 8    1  0.5542925E-011  0.9118800E+02  0.7816164E-02  0.1184000E+00
        -11   -1    0    0    0    0  0.00000000000E+00  0.00000000000E+00  0.45593999997E+02  0.45594000000E+02  0.51100000000E-03 0. -1.
         11   -1    0    0    0    0 -0.00000000000E+00 -0.00000000000E+00 -0.45593999997E+02  0.45594000000E+02  0.51100000000E-03 0.  1.
         23    2    1    2    0    0  0.00000000000E+00  0.00000000000E+00  0.00000000000E+00  0.91188000000E+02  0.91188000000E+02 0.  0.
    9900012    2    3    3    0    0  0.40833411266E+02 -0.72327594036E+01  0.12804002195E+02  0.47787277006E+02  0.20000027182E+02 0.  0.
        -12    1    3    3    0    0 -0.40833411266E+02  0.72327594036E+01 -0.12804002195E+02  0.43400722994E+02  0.00000000000E+00 0.  1.
         11    1    4    4    0    0  0.53939666996E+00  0.38464143573E+00  0.35893171980E+01  0.36499446586E+01  0.51100000000E-03 0. -1.
        -11    1    4    4    0    0 -0.10839702784E+01 -0.26294888715E+00  0.13985226492E-01  0.11154951947E+01  0.51100000000E-03 0.  1.
         12    1    4    4    0    0  0.41377984874E+02 -0.73544519522E+01  0.92006997701E+01  0.43021837153E+02  0.00000000000E+00 0. -1.
</event>
<event>
 8    1  0.5542925E-011  0.9118800E+02  0.7816164E-02  0.1184000E+00
        -11   -1    0    0    0    0  0.00000000000E+00  0.00000000000E+00  0.45593999997E+02  0.45594000000E+02  0.51100000000E-03 0. -1.
         11   -1    0    0    0    0 -0.00000000000E+00 -0.00000000000E+00 -0.45593999997E+02  0.45594000000E+02  0.51100000000E-03 0.  1.
         23    2    1    2    0    0 -0.35527136788E-14 -0.13322676296E-14  0.71054273576E-14  0.91188000000E+02  0.91188000000E+02 0.  0.
    9900012    2    3    3    0    0  0.28856882278E+02  0.34938586765E+01  0.32228820689E+02  0.47787267446E+02  0.19999983593E+02 0.  0.
        -12    1    3    3    0    0 -0.28856882278E+02 -0.34938586765E+01 -0.32228820689E+02  0.43400732554E+02  0.00000000000E+00 0.  1.
         11    1    4    4    0    0  0.13881021115E+02 -0.34527869309E+01  0.87278346069E+01  0.16756478806E+02  0.51100000000E-03 0. -1.
        -11    1    4    4    0    0  0.15575958984E+01 -0.29801397117E+01  0.24238291596E+01  0.41451520768E+01  0.51100000000E-03 0.  1.
         12    1    4    4    0    0  0.13418265265E+02  0.99267853192E+01  0.21077156922E+02  0.26885636563E+02  0.00000000000E+00 0. -1.
</event>
<event>
 8    1  0.5542925E-011  0.9118800E+02  0.7816164E-02  0.1184000E+00
        -11   -1    0    0    0    0  0.00000000000E+00  0.00000000000E+00  0.45593999997E+02  0.45594000000E+02  0.51100000000E-03 0. -1.
         11   -1    0    0    0    0 -0.00000000000E+00 -0.00000000000E+00 -0.45593999997E+02  0.45594000000E+02  0.51100000000E-03 0.  1.
         23    2    1    2    0    0  0.00000000000E+00  0.00000000000E+00 -0.35527136788E-14  0.91188000000E+02  0.91188000000E+02 0.  0.
    9900012    2    3    3    0    0  0.32819495958E+02 -0.11340003812E+02  0.26036674929E+02  0.47787269099E+02  0.19999991129E+02 0.  0.
        -12    1    3    3    0    0 -0.32819495958E+02  0.11340003812E+02 -0.26036674929E+02  0.43400730901E+02  0.00000000000E+00 0.  1.
         11    1    4    4    0    0  0.18562336819E+02 -0.52878180850E+01  0.17208827210E+02  0.25858559560E+02  0.51100000000E-03 0. -1.
        -11    1    4    4    0    0  0.15106776409E+02 -0.79462742805E+01  0.53671466699E+01  0.17893133656E+02  0.51100000000E-03 0.  1.
        -12    1    4    4    0    0 -0.84961727028E+00  0.18940885536E+01  0.34607010489E+01  0.40355758827E+01  0.00000000000E+00 0.  1.
</event>
<event>
 8    1  0.5542925E-011  0.9118800E+02  0.7816164E-02  0.1184000E+00
        -11   -1    0    0    0    0  0.00000000000E+00  0.00000000000E+00  0.45593999997E+02  0.45594000000E+02  0.51100000000E-03 0.  1.
         11   -1    0    0    0    0 -0.00000000000E+00 -0.00000000000E+00 -0.45593999997E+02  0.45594000000E+02  0.51100000000E-03 0. -1.
         23    2    1    2    0    0  0.00000000000E+00 -0.35527136788E-14  0.00000000000E+00  0.91188000000E+02  0.91188000000E+02 0.  0.
    9900012    2    3    3    0    0 -0.39814465386E+02  0.15555788649E+02  0.75132431908E+01  0.47787273765E+02  0.20000012405E+02 0.  0.
         12    1    3    3    0    0  0.39814465386E+02 -0.15555788649E+02 -0.75132431908E+01  0.43400726235E+02  0.00000000000E+00 0. -1.
         11    1    4    4    0    0 -0.19676537295E+01  0.55221676512E+01  0.63381619228E+00  0.58964158599E+01  0.51100000000E-03 0. -1.
        -11    1    4    4    0    0 -0.16531120886E+02  0.10513101280E+02  0.35597299483E+00  0.19594131094E+02  0.51100000000E-03 0.  1.
         12    1    4    4    0    0 -0.21315690771E+02 -0.47948028295E+00  0.65234540037E+01  0.22296726812E+02  0.00000000000E+00 0. -1.
</event>
<event>
 8    1  0.5542925E-011  0.9118800E+02  0.7816164E-02  0.1184000E+00
        -11   -1    0    0    0    0  0.00000000000E+00  0.00000000000E+00  0.45593999997E+02  0.45594000000E+02  0.51100000000E-03 0. -1.
         11   -1    0    0    0    0 -0.00000000000E+00 -0.00000000000E+00 -0.45593999997E+02  0.45594000000E+02  0.51100000000E-03 0.  1.
         23    2    1    2    0    0  0.71054273576E-14 -0.17763568394E-14 -0.17763568394E-14  0.91188000000E+02  0.91188000000E+02 0.  0.
    9900012    2    3    3    0    0  0.41041637716E+02 -0.96209784620E+01 -0.10326873838E+02  0.47787267561E+02  0.19999984120E+02 0.  0.
         12    1    3    3    0    0 -0.41041637716E+02  0.96209784620E+01  0.10326873838E+02  0.43400732439E+02  0.00000000000E+00 0. -1.
         11    1    4    4    0    0  0.33491984834E+01 -0.32842022847E+01 -0.36769040511E+01  0.59600955353E+01  0.51100000000E-03 0. -1.
        -11    1    4    4    0    0  0.31836027214E+02 -0.98957930521E+01 -0.17158830467E+01  0.33382684191E+02  0.51100000000E-03 0.  1.
         12    1    4    4    0    0  0.58564120181E+01  0.35590168748E+01 -0.49340867397E+01  0.84444878350E+01  0.00000000000E+00 0. -1.
</event>
<event>
 8    1  0.5542925E-011  0.9118800E+02  0.7816164E-02  0.1184000E+00
        -11   -1    0    0    0    0  0.00000000000E+00  0.00000000000E+00  0.45593999997E+02  0.45594000000E+02  0.51100000000E-03 0.  1.
         11   -1    0    0    0    0 -0.00000000000E+00 -0.00000000000E+00 -0.45593999997E+02  0.45594000000E+02  0.51100000000E-03 0. -1.
         23    2    1    2    0    0  0.00000000000E+00  0.00000000000E+00  0.00000000000E+00  0.91188000000E+02  0.91188000000E+02 0.  0.
    9900012    2    3    3    0    0 -0.28837903338E+02 -0.28536537012E+02 -0.15416282150E+02  0.47787304511E+02  0.20000152588E+02 0.  0.
         12    1    3    3    0    0  0.28837903338E+02  0.28536537012E+02  0.15416282150E+02  0.43400695489E+02  0.00000000000E+00 0. -1.
         11    1    4    4    0    0 -0.12807345678E+02 -0.79015432768E+01 -0.22275828684E+01  0.15212646554E+02  0.51100000000E-03 0.  1.
        -11    1    4    4    0    0 -0.15766180492E+02 -0.10313442664E+02 -0.52708894954E+01  0.19563277415E+02  0.51100000000E-03 0. -1.
         12    1    4    4    0    0 -0.26437716762E+00 -0.10321551071E+02 -0.79178097862E+01  0.13011380542E+02  0.00000000000E+00 0. -1.
</event>
<event>
 8    1  0.5542925E-011  0.9118800E+02  0.7816164E-02  0.1184000E+00
        -11   -1    0    0    0    0  0.00000000000E+00  0.00000000000E+00  0.45593999997E+02  0.45594000000E+02  0.51100000000E-03 0. -1.
         11   -1    0    0    0    0 -0.00000000000E+00 -0.00000000000E+00 -0.45593999997E+02  0.45594000000E+02  0.51100000000E-03 0.  1.
         23    2    1    2    0    0 -0.35527136788E-14  0.44408920985E-15  0.00000000000E+00  0.91188000000E+02  0.91188000000E+02 0.  0.
    9900012    2    3    3    0    0 -0.27431764481E+02 -0.11785291158E+01 -0.33611502860E+02  0.47787265468E+02  0.19999974576E+02 0.  0.
         12    1    3    3    0    0  0.27431764481E+02  0.11785291158E+01  0.33611502860E+02  0.43400734532E+02  0.00000000000E+00 0. -1.
         11    1    4    4    0    0 -0.84096048424E+01  0.40491570097E+01 -0.32874472100E+01  0.98956776177E+01  0.51100000000E-03 0. -1.
        -11    1    4    4    0    0 -0.13552320315E+02 -0.30397205904E+01 -0.11083518672E+02  0.17769346460E+02  0.51100000000E-03 0.  1.
         12    1    4    4    0    0 -0.54698393233E+01 -0.21879655351E+01 -0.19240536977E+02  0.20122241391E+02  0.00000000000E+00 0. -1.
</event>
<event>
 8    1  0.5542925E-011  0.9118800E+02  0.7816164E-02  0.1184000E+00
        -11   -1    0    0    0    0  0.00000000000E+00  0.00000000000E+00  0.45593999997E+02  0.45594000000E+02  0.51100000000E-03 0. -1.
         11   -1    0    0    0    0 -0.00000000000E+00 -0.00000000000E+00 -0.45593999997E+02  0.45594000000E+02  0.51100000000E-03 0.  1.
         23    2    1    2    0    0  0.00000000000E+00  0.17763568394E-14  0.71054273576E-14  0.91188000000E+02  0.91188000000E+02 0.  0.
    9900012    2    3    3    0    0  0.10254984482E+02  0.12653328177E+02  0.40228746728E+02  0.47787268624E+02  0.19999988962E+02 0.  0.
        -12    1    3    3    0    0 -0.10254984482E+02 -0.12653328177E+02 -0.40228746728E+02  0.43400731376E+02  0.00000000000E+00 0.  1.
         11    1    4    4    0    0 -0.28542480089E+00  0.14276825502E+00  0.13982447716E+02  0.13986089321E+02  0.51100000000E-03 0. -1.
        -11    1    4    4    0    0 -0.14966931661E+01 -0.19537460024E+01  0.25834744538E+01  0.35681303774E+01  0.51100000000E-03 0.  1.
        -12    1    4    4    0    0  0.12037102449E+02  0.14464305924E+02  0.23662824558E+02  0.30233048925E+02  0.00000000000E+00 0.  1.
</event>
<event>
 8    1  0.5542925E-011  0.9118800E+02  0.7816164E-02  0.1184000E+00
        -11   -1    0    0    0    0  0.00000000000E+00  0.00000000000E+00  0.45593999997E+02  0.45594000000E+02  0.51100000000E-03 0.  1.
         11   -1    0    0    0    0 -0.00000000000E+00 -0.00000000000E+00 -0.45593999997E+02  0.45594000000E+02  0.51100000000E-03 0. -1.
         23    2    1    2    0    0  0.00000000000E+00  0.00000000000E+00 -0.17763568394E-14  0.91188000000E+02  0.91188000000E+02 0.  0.
    9900012    2    3    3    0    0 -0.42820495950E+02 -0.21727167448E+01 -0.67311223625E+01  0.47787267521E+02  0.19999983935E+02 0.  0.
         12    1    3    3    0    0  0.42820495950E+02  0.21727167448E+01  0.67311223625E+01  0.43400732479E+02  0.00000000000E+00 0. -1.
         11    1    4    4    0    0 -0.28167824960E+01  0.20179021633E+01 -0.27915384845E+01  0.44495932558E+01  0.51100000000E-03 0. -1.
        -11    1    4    4    0    0 -0.11692294278E+02 -0.19506634671E+01  0.59522506486E+01  0.13264392993E+02  0.51100000000E-03 0.  1.
         12    1    4    4    0    0 -0.28311419176E+02 -0.22399554410E+01 -0.98918345266E+01  0.30073281272E+02  0.00000000000E+00 0. -1.
</event>
<event>
 8    1  0.5542925E-011  0.9118800E+02  0.7816164E-02  0.1184000E+00
        -11   -1    0    0    0    0  0.00000000000E+00  0.00000000000E+00  0.45593999997E+02  0.45594000000E+02  0.51100000000E-03 0. -1.
         11   -1    0    0    0    0 -0.00000000000E+00 -0.00000000000E+00 -0.45593999997E+02  0.45594000000E+02  0.51100000000E-03 0.  1.
         23    2    1    2    0    0  0.88817841970E-15  0.00000000000E+00  0.00000000000E+00  0.91188000000E+02  0.91188000000E+02 0.  0.
    9900012    2    3    3    0    0 -0.32414346276E+01 -0.84940750834E+01 -0.42437809001E+02  0.47787264490E+02  0.19999970118E+02 0.  0.
         12    1    3    3    0    0  0.32414346276E+01  0.84940750834E+01  0.42437809001E+02  0.43400735510E+02  0.00000000000E+00 0. -1.
         11    1    4    4    0    0  0.30224810472E+00  0.18155659297E+01 -0.63912329183E+00  0.19483614667E+01  0.51100000000E-03 0. -1.
        -11    1    4    4    0    0  0.33917608392E+01 -0.10097186137E+01 -0.13970948539E+01  0.38046612938E+01  0.51100000000E-03 0.  1.
        -12    1    4    4    0    0 -0.69354435715E+01 -0.92999223993E+01 -0.40401590855E+02  0.42034241730E+02  0.00000000000E+00 0.  1.
</event>
<event>
 8    1  0.5542925E-011  0.9118800E+02  0.7816164E-02  0.1184000E+00
        -11   -1    0    0    0    0  0.00000000000E+00  0.00000000000E+00  0.45593999997E+02  0.45594000000E+02  0.51100000000E-03 0. -1.
         11   -1    0    0    0    0 -0.00000000000E+00 -0.00000000000E+00 -0.45593999997E+02  0.45594000000E+02  0.51100000000E-03 0.  1.
         23    2    1    2    0    0  0.35527136788E-14  0.00000000000E+00 -0.35527136788E-14  0.91188000000E+02  0.91188000000E+02 0.  0.
    9900012    2    3    3    0    0  0.20760963964E+02  0.29040265459E+02 -0.24683364447E+02  0.47787272782E+02  0.20000007922E+02 0.  0.
         12    1    3    3    0    0 -0.20760963964E+02 -0.29040265459E+02  0.24683364447E+02  0.43400727218E+02  0.00000000000E+00 0. -1.
         11    1    4    4    0    0  0.15878391454E+01  0.11685706222E+02 -0.31380447839E+01  0.12203453953E+02  0.51100000000E-03 0. -1.
        -11    1    4    4    0    0  0.68059789727E+01  0.12791303390E+02 -0.15039588080E+02  0.20883677887E+02  0.51100000000E-03 0.  1.
         12    1    4    4    0    0  0.12367145846E+02  0.45632558467E+01 -0.65057315833E+01  0.14700140942E+02  0.00000000000E+00 0. -1.
</event>
<event>
 8    1  0.5542925E-011  0.9118800E+02  0.7816164E-02  0.1184000E+00
        -11   -1    0    0    0    0  0.00000000000E+00  0.00000000000E+00  0.45593999997E+02  0.45594000000E+02  0.51100000000E-03 0. -1.
         11   -1    0    0    0    0 -0.00000000000E+00 -0.00000000000E+00 -0.45593999997E+02  0.45594000000E+02  0.51100000000E-03 0.  1.
         23    2    1    2    0    0  0.00000000000E+00  0.00000000000E+00  0.00000000000E+00  0.91188000000E+02  0.91188000000E+02 0.  0.
    9900012    2    3    3    0    0 -0.19000809879E+02  0.89715595748E+01  0.37975038772E+02  0.47787271585E+02  0.20000002463E+02 0.  0.
        -12    1    3    3    0    0  0.19000809879E+02 -0.89715595748E+01 -0.37975038772E+02  0.43400728415E+02  0.00000000000E+00 0.  1.
         11    1    4    4    0    0  0.24549677472E+01  0.42263420587E+01  0.12645723578E+02  0.13557402366E+02  0.51100000000E-03 0. -1.
        -11    1    4    4    0    0 -0.48352898233E+01 -0.95659808565E+00  0.28351077625E+01  0.56862064559E+01  0.51100000000E-03 0.  1.
         12    1    4    4    0    0 -0.16620487802E+02  0.57018156018E+01  0.22494207431E+02  0.28543662763E+02  0.00000000000E+00 0. -1.
</event>
<event>
 8    1  0.5542925E-011  0.9118800E+02  0.7816164E-02  0.1184000E+00
        -11   -1    0    0    0    0  0.00000000000E+00  0.00000000000E+00  0.45593999997E+02  0.45594000000E+02  0.51100000000E-03 0. -1.
         11   -1    0    0    0    0 -0.00000000000E+00 -0.00000000000E+00 -0.45593999997E+02  0.45594000000E+02  0.51100000000E-03 0.  1.
         23    2    1    2    0    0  0.35527136788E-14 -0.17763568394E-14  0.00000000000E+00  0.91188000000E+02  0.91188000000E+02 0.  0.
    9900012    2    3    3    0    0  0.30925606723E+02 -0.15831173237E+02 -0.26011614266E+02  0.47787271043E+02  0.19999999993E+02 0.  0.
         12    1    3    3    0    0 -0.30925606723E+02  0.15831173237E+02  0.26011614266E+02  0.43400728957E+02  0.00000000000E+00 0. -1.
         11    1    4    4    0    0 -0.10124715588E+01  0.14164089092E+01 -0.28993812014E+01  0.33819705007E+01  0.51100000000E-03 0. -1.
        -11    1    4    4    0    0  0.72452506707E+01  0.85685550243E+00 -0.46260231102E+01  0.86387469410E+01  0.51100000000E-03 0.  1.
        -12    1    4    4    0    0  0.24692827612E+02 -0.18104437649E+02 -0.18486209955E+02  0.35766553601E+02  0.00000000000E+00 0.  1.
</event>
<event>
 8    1  0.5542925E-011  0.9118800E+02  0.7816164E-02  0.1184000E+00
        -11   -1    0    0    0    0  0.00000000000E+00  0.00000000000E+00  0.45593999997E+02  0.45594000000E+02  0.51100000000E-03 0. -1.
         11   -1    0    0    0    0 -0.00000000000E+00 -0.00000000000E+00 -0.45593999997E+02  0.45594000000E+02  0.51100000000E-03 0.  1.
         23    2    1    2    0    0  0.00000000000E+00 -0.35527136788E-14 -0.17763568394E-14  0.91188000000E+02  0.91188000000E+02 0.  0.
    9900012    2    3    3    0    0 -0.31239265925E+02  0.26196194699E+02  0.14882585269E+02  0.47787266176E+02  0.19999977801E+02 0.  0.
        -12    1    3    3    0    0  0.31239265925E+02 -0.26196194699E+02 -0.14882585269E+02  0.43400733824E+02  0.00000000000E+00 0.  1.
         11    1    4    4    0    0 -0.20153053590E+02  0.21648182867E+02  0.10969359004E+02  0.31545462870E+02  0.51100000000E-03 0. -1.
        -11    1    4    4    0    0 -0.64477632457E+01  0.26063903177E+01  0.73750239210E+01  0.10136957110E+02  0.51100000000E-03 0.  1.
         12    1    4    4    0    0 -0.46384490892E+01  0.19416215137E+01 -0.34617976562E+01  0.61048461952E+01  0.00000000000E+00 0. -1.
</event>
<event>
 8    1  0.5542925E-011  0.9118800E+02  0.7816164E-02  0.1184000E+00
        -11   -1    0    0    0    0  0.00000000000E+00  0.00000000000E+00  0.45593999997E+02  0.45594000000E+02  0.51100000000E-03 0. -1.
         11   -1    0    0    0    0 -0.00000000000E+00 -0.00000000000E+00 -0.45593999997E+02  0.45594000000E+02  0.51100000000E-03 0.  1.
         23    2    1    2    0    0 -0.88817841970E-15  0.17763568394E-14  0.00000000000E+00  0.91188000000E+02  0.91188000000E+02 0.  0.
    9900012    2    3    3    0    0 -0.50406192588E+01  0.98674627459E+01 -0.41962465154E+02  0.47787272525E+02  0.20000006750E+02 0.  0.
         12    1    3    3    0    0  0.50406192588E+01 -0.98674627459E+01  0.41962465154E+02  0.43400727475E+02  0.00000000000E+00 0. -1.
         11    1    4    4    0    0  0.25866835331E+00 -0.28524221129E+01 -0.16710777073E+01  0.33159798238E+01  0.51100000000E-03 0. -1.
        -11    1    4    4    0    0  0.91096759914E+00 -0.20581839523E+01 -0.22134528486E+01  0.31567953564E+01  0.51100000000E-03 0.  1.
        -12    1    4    4    0    0 -0.62102552113E+01  0.14778068811E+02 -0.38077934598E+02  0.41314497345E+02  0.00000000000E+00 0.  1.
</event>
<event>
 8    1  0.5542925E-011  0.9118800E+02  0.7816164E-02  0.1184000E+00
        -11   -1    0    0    0    0  0.00000000000E+00  0.00000000000E+00  0.45593999997E+02  0.45594000000E+02  0.51100000000E-03 0. -1.
         11   -1    0    0    0    0 -0.00000000000E+00 -0.00000000000E+00 -0.45593999997E+02  0.45594000000E+02  0.51100000000E-03 0.  1.
         23    2    1    2    0    0  0.88817841970E-15  0.00000000000E+00  0.00000000000E+00  0.91188000000E+02  0.91188000000E+02 0.  0.
    9900012    2    3    3    0    0  0.54727062409E+01  0.19108032477E+02 -0.38581800089E+02  0.47787277462E+02  0.20000029259E+02 0.  0.
         12    1    3    3    0    0 -0.54727062409E+01 -0.19108032477E+02  0.38581800089E+02  0.43400722538E+02  0.00000000000E+00 0. -1.
         11    1    4    4    0    0  0.42156293414E+01  0.35949819700E+01 -0.11308997519E+02  0.12593206552E+02  0.51100000000E-03 0. -1.
        -11    1    4    4    0    0 -0.18618206521E+01 -0.25126318295E+01 -0.12127433958E+01  0.33541678039E+01  0.51100000000E-03 0.  1.
        -12    1    4    4    0    0  0.31188975516E+01  0.18025682337E+02 -0.26060059174E+02  0.31839903106E+02  0.00000000000E+00 0.  1.
</event>
<event>
 8    1  0.5542925E-011  0.9118800E+02  0.7816164E-02  0.1184000E+00
        -11   -1    0    0    0    0  0.00000000000E+00  0.00000000000E+00  0.45593999997E+02  0.45594000000E+02  0.51100000000E-03 0. -1.
         11   -1    0    0    0    0 -0.00000000000E+00 -0.00000000000E+00 -0.45593999997E+02  0.45594000000E+02  0.51100000000E-03 0.  1.
         23    2    1    2    0    0  0.00000000000E+00 -0.44408920985E-15  0.00000000000E+00  0.91188000000E+02  0.91188000000E+02 0.  0.
    9900012    2    3    3    0    0  0.70705377125E+01 -0.18415893285E+01 -0.42781299031E+02  0.47787268421E+02  0.19999988038E+02 0.  0.
         12    1    3    3    0    0 -0.70705377125E+01  0.18415893285E+01  0.42781299031E+02  0.43400731579E+02  0.00000000000E+00 0. -1.
         11    1    4    4    0    0 -0.39521764775E+01 -0.36533547551E+01 -0.48447280595E+01  0.72414149244E+01  0.51100000000E-03 0. -1.
        -11    1    4    4    0    0  0.28529075839E+01 -0.25262842515E+01 -0.47249440578E+01  0.60701145304E+01  0.51100000000E-03 0.  1.
        -12    1    4    4    0    0  0.81698066060E+01  0.43380496781E+01 -0.33211626914E+02  0.34475738966E+02  0.00000000000E+00 0.  1.
</event>
<event>
 8    1  0.5542925E-011  0.9118800E+02  0.7816164E-02  0.1184000E+00
        -11   -1    0    0    0    0  0.00000000000E+00  0.00000000000E+00  0.45593999997E+02  0.45594000000E+02  0.51100000000E-03 0. -1.
         11   -1    0    0    0    0 -0.00000000000E+00 -0.00000000000E+00 -0.45593999997E+02  0.45594000000E+02  0.51100000000E-03 0.  1.
         23    2    1    2    0    0  0.71054273576E-14  0.00000000000E+00  0.35527136788E-14  0.91188000000E+02  0.91188000000E+02 0.  0.
    9900012    2    3    3    0    0 -0.32156978040E+02  0.65172020592E+01 -0.28409122044E+02  0.47787269883E+02  0.19999994705E+02 0.  0.
         12    1    3    3    0    0  0.32156978040E+02 -0.65172020592E+01  0.28409122044E+02  0.43400730117E+02  0.00000000000E+00 0. -1.
         11    1    4    4    0    0 -0.32439774388E+01 -0.31194032812E+01 -0.52505740877E+01  0.69153882729E+01  0.51100000000E-03 0. -1.
        -11    1    4    4    0    0 -0.11353925183E+02  0.18668061431E+01 -0.17336199641E+02  0.20807219912E+02  0.51100000000E-03 0.  1.
         12    1    4    4    0    0 -0.17559075419E+02  0.77697991973E+01 -0.58223483153E+01  0.20064661698E+02  0.00000000000E+00 0. -1.
</event>
<event>
 8    1  0.5542925E-011  0.9118800E+02  0.7816164E-02  0.1184000E+00
        -11   -1    0    0    0    0  0.00000000000E+00  0.00000000000E+00  0.45593999997E+02  0.45594000000E+02  0.51100000000E-03 0.  1.
         11   -1    0    0    0    0 -0.00000000000E+00 -0.00000000000E+00 -0.45593999997E+02  0.45594000000E+02  0.51100000000E-03 0. -1.
         23    2    1    2    0    0  0.00000000000E+00  0.00000000000E+00  0.00000000000E+00  0.91188000000E+02  0.91188000000E+02 0.  0.
    9900012    2    3    3    0    0 -0.34155521478E+02  0.16430989951E+02 -0.21143469063E+02  0.47787270027E+02  0.19999995360E+02 0.  0.
         12    1    3    3    0    0  0.34155521478E+02 -0.16430989951E+02  0.21143469063E+02  0.43400729973E+02  0.00000000000E+00 0. -1.
         11    1    4    4    0    0 -0.54851107410E+01  0.39169441359E+01 -0.19401084533E+00  0.67428874879E+01  0.51100000000E-03 0. -1.
        -11    1    4    4    0    0 -0.24384075850E+01  0.80742721653E+01 -0.30067279182E+01  0.89543350163E+01  0.51100000000E-03 0.  1.
         12    1    4    4    0    0 -0.26232003151E+02  0.44397736501E+01 -0.17942730300E+02  0.32090047523E+02  0.00000000000E+00 0. -1.
</event>
<event>
 8    1  0.5542925E-011  0.9118800E+02  0.7816164E-02  0.1184000E+00
        -11   -1    0    0    0    0  0.00000000000E+00  0.00000000000E+00  0.45593999997E+02  0.45594000000E+02  0.51100000000E-03 0. -1.
         11   -1    0    0    0    0 -0.00000000000E+00 -0.00000000000E+00 -0.45593999997E+02  0.45594000000E+02  0.51100000000E-03 0.  1.
         23    2    1    2    0    0 -0.17763568394E-14 -0.35527136788E-14 -0.71054273576E-14  0.91188000000E+02  0.91188000000E+02 0.  0.
    9900012    2    3    3    0    0  0.13831950271E+02  0.18002912960E+02  0.36989156928E+02  0.47787245933E+02  0.19999885506E+02 0.  0.
        -12    1    3    3    0    0 -0.13831950271E+02 -0.18002912960E+02 -0.36989156928E+02  0.43400754067E+02  0.00000000000E+00 0.  1.
         11    1    4    4    0    0  0.30407869636E+00  0.97646132896E+01  0.12484549725E+02  0.15852574512E+02  0.51100000000E-03 0. -1.
        -11    1    4    4    0    0  0.61596887843E+01  0.66428764830E+01  0.36635226180E+01  0.97719482255E+01  0.51100000000E-03 0.  1.
        -12    1    4    4    0    0  0.73681827902E+01  0.15954231872E+01  0.20841084585E+02  0.22162723195E+02  0.00000000000E+00 0.  1.
</event>
<event>
 8    1  0.5542925E-011  0.9118800E+02  0.7816164E-02  0.1184000E+00
        -11   -1    0    0    0    0  0.00000000000E+00  0.00000000000E+00  0.45593999997E+02  0.45594000000E+02  0.51100000000E-03 0. -1.
         11   -1    0    0    0    0 -0.00000000000E+00 -0.00000000000E+00 -0.45593999997E+02  0.45594000000E+02  0.51100000000E-03 0.  1.
         23    2    1    2    0    0  0.00000000000E+00  0.00000000000E+00  0.71054273576E-14  0.91188000000E+02  0.91188000000E+02 0.  0.
    9900012    2    3    3    0    0  0.78967921127E+01 -0.23063605949E+02  0.35907300135E+02  0.47787269038E+02  0.19999990852E+02 0.  0.
        -12    1    3    3    0    0 -0.78967921127E+01  0.23063605949E+02 -0.35907300135E+02  0.43400730962E+02  0.00000000000E+00 0.  1.
         11    1    4    4    0    0 -0.32116158014E+01 -0.50495338329E+01  0.94574766699E+01  0.11191788651E+02  0.51100000000E-03 0. -1.
        -11    1    4    4    0    0  0.33336902395E+01 -0.14641763164E+02  0.22950955820E+02  0.27427013918E+02  0.51100000000E-03 0.  1.
        -12    1    4    4    0    0  0.77747176746E+01 -0.33723089515E+01  0.34988676456E+01  0.91684664686E+01  0.00000000000E+00 0.  1.
</event>
<event>
 8    1  0.5542925E-011  0.9118800E+02  0.7816164E-02  0.1184000E+00
        -11   -1    0    0    0    0  0.00000000000E+00  0.00000000000E+00  0.45593999997E+02  0.45594000000E+02  0.51100000000E-03 0. -1.
         11   -1    0    0    0    0 -0.00000000000E+00 -0.00000000000E+00 -0.45593999997E+02  0.45594000000E+02  0.51100000000E-03 0.  1.
         23    2    1    2    0    0  0.00000000000E+00  0.88817841970E-15 -0.35527136788E-14  0.91188000000E+02  0.91188000000E+02 0.  0.
    9900012    2    3    3    0    0 -0.39068622504E+02 -0.56824600586E+01  0.18027067257E+02  0.47787276843E+02  0.20000026439E+02 0.  0.
        -12    1    3    3    0    0  0.39068622504E+02  0.56824600586E+01 -0.18027067257E+02  0.43400723157E+02  0.00000000000E+00 0.  1.
         11    1    4    4    0    0 -0.32471075679E+02 -0.54800969481E+01  0.21275836231E+02  0.39205400469E+02  0.51100000000E-03 0. -1.
        -11    1    4    4    0    0 -0.28746929322E+01 -0.22868897274E+01 -0.13839460302E+01  0.39254338557E+01  0.51100000000E-03 0.  1.
         12    1    4    4    0    0 -0.37228538924E+01  0.20845266169E+01 -0.18648229439E+01  0.46564425190E+01  0.00000000000E+00 0. -1.
</event>
<event>
 8    1  0.5542925E-011  0.9118800E+02  0.7816164E-02  0.1184000E+00
        -11   -1    0    0    0    0  0.00000000000E+00  0.00000000000E+00  0.45593999997E+02  0.45594000000E+02  0.51100000000E-03 0. -1.
         11   -1    0    0    0    0 -0.00000000000E+00 -0.00000000000E+00 -0.45593999997E+02  0.45594000000E+02  0.51100000000E-03 0.  1.
         23    2    1    2    0    0  0.00000000000E+00 -0.35527136788E-14  0.00000000000E+00  0.91188000000E+02  0.91188000000E+02 0.  0.
    9900012    2    3    3    0    0  0.22680363500E+02 -0.20134961360E+02 -0.31045252379E+02  0.47787271288E+02  0.20000001111E+02 0.  0.
         12    1    3    3    0    0 -0.22680363500E+02  0.20134961360E+02  0.31045252379E+02  0.43400728712E+02  0.00000000000E+00 0. -1.
         11    1    4    4    0    0  0.14092946970E+02 -0.11778458245E+02 -0.20127205007E+02  0.27247891929E+02  0.51100000000E-03 0. -1.
        -11    1    4    4    0    0  0.17195645436E+01 -0.75086815480E+01 -0.11223510813E+02  0.13612655731E+02  0.51100000000E-03 0.  1.
         12    1    4    4    0    0  0.68678519861E+01 -0.84782156709E+00  0.30546344087E+00  0.69267236286E+01  0.00000000000E+00 0. -1.
</event>
<event>
 8    1  0.5542925E-011  0.9118800E+02  0.7816164E-02  0.1184000E+00
        -11   -1    0    0    0    0  0.00000000000E+00  0.00000000000E+00  0.45593999997E+02  0.45594000000E+02  0.51100000000E-03 0. -1.
         11   -1    0    0    0    0 -0.00000000000E+00 -0.00000000000E+00 -0.45593999997E+02  0.45594000000E+02  0.51100000000E-03 0.  1.
         23    2    1    2    0    0  0.00000000000E+00 -0.35527136788E-14  0.00000000000E+00  0.91188000000E+02  0.91188000000E+02 0.  0.
    9900012    2    3    3    0    0 -0.32050942837E+02 -0.22648296683E+02 -0.18531473780E+02  0.47787264985E+02  0.19999972370E+02 0.  0.
         12    1    3    3    0    0  0.32050942837E+02  0.22648296683E+02  0.18531473780E+02  0.43400735015E+02  0.00000000000E+00 0. -1.
         11    1    4    4    0    0 -0.61716102224E+01 -0.90710422462E+00 -0.15031433538E+01  0.64164671756E+01  0.51100000000E-03 0. -1.
        -11    1    4    4    0    0 -0.22601124134E+02 -0.17325466592E+02 -0.60811021983E+01  0.29119794109E+02  0.51100000000E-03 0.  1.
         12    1    4    4    0    0 -0.32782084811E+01 -0.44157258663E+01 -0.10947228228E+02  0.12251003700E+02  0.00000000000E+00 0. -1.
</event>
<event>
 8    1  0.5542925E-011  0.9118800E+02  0.7816164E-02  0.1184000E+00
        -11   -1    0    0    0    0  0.00000000000E+00  0.00000000000E+00  0.45593999997E+02  0.45594000000E+02  0.51100000000E-03 0. -1.
         11   -1    0    0    0    0 -0.00000000000E+00 -0.00000000000E+00 -0.45593999997E+02  0.45594000000E+02  0.51100000000E-03 0.  1.
         23    2    1    2    0    0  0.00000000000E+00 -0.17763568394E-14  0.00000000000E+00  0.91188000000E+02  0.91188000000E+02 0.  0.
    9900012    2    3    3    0    0 -0.18671407809E+02 -0.11715171111E+02 -0.37386582265E+02  0.47787271467E+02  0.20000001927E+02 0.  0.
         12    1    3    3    0    0  0.18671407809E+02  0.11715171111E+02  0.37386582265E+02  0.43400728533E+02  0.00000000000E+00 0. -1.
         11    1    4    4    0    0 -0.13665641970E+02 -0.32064167069E+01 -0.13037815819E+02  0.19157649129E+02  0.51100000000E-03 0.  1.
        -11    1    4    4    0    0 -0.51876783765E+01  0.11167825145E+01 -0.10479852661E+02  0.11746766456E+02  0.51100000000E-03 0. -1.
         12    1    4    4    0    0  0.18191253811E+00 -0.96255369189E+01 -0.13868913785E+02  0.16882855882E+02  0.00000000000E+00 0. -1.
</event>
<event>
 8    1  0.5542925E-011  0.9118800E+02  0.7816164E-02  0.1184000E+00
        -11   -1    0    0    0    0  0.00000000000E+00  0.00000000000E+00  0.45593999997E+02  0.45594000000E+02  0.51100000000E-03 0. -1.
         11   -1    0    0    0    0 -0.00000000000E+00 -0.00000000000E+00 -0.45593999997E+02  0.45594000000E+02  0.51100000000E-03 0.  1.
         23    2    1    2    0    0  0.00000000000E+00  0.00000000000E+00  0.00000000000E+00  0.91188000000E+02  0.91188000000E+02 0.  0.
    9900012    2    3    3    0    0  0.35355702123E+01  0.26365012717E+02  0.34292988621E+02  0.47787271655E+02  0.20000002784E+02 0.  0.
        -12    1    3    3    0    0 -0.35355702123E+01 -0.26365012717E+02 -0.34292988621E+02  0.43400728345E+02  0.00000000000E+00 0.  1.
         11    1    4    4    0    0 -0.31363936812E+01 -0.51751553384E+00  0.62677361734E+01  0.70277524609E+01  0.51100000000E-03 0.  1.
        -11    1    4    4    0    0  0.75238303651E+01  0.13336762302E+02  0.19248780295E+02  0.24596601293E+02  0.51100000000E-03 0. -1.
         12    1    4    4    0    0 -0.85186647154E+00  0.13545765949E+02  0.87764721531E+01  0.16162917901E+02  0.00000000000E+00 0. -1.
</event>
<event>
 8    1  0.5595391E-011  0.9118800E+02  0.7816164E-02  0.1184000E+00
        -11   -1    0    0    0    0  0.00000000000E+00  0.00000000000E+00  0.45593999997E+02  0.45594000000E+02  0.51100000000E-03 0. -1.
         11   -1    0    0    0    0 -0.00000000000E+00 -0.00000000000E+00 -0.45593999997E+02  0.45594000000E+02  0.51100000000E-03 0.  1.
         23    2    1    2    0    0  0.22204460493E-15  0.71054273576E-14  0.00000000000E+00  0.91188000000E+02  0.91188000000E+02 0.  0.
    9900012    2    3    3    0    0  0.18345985712E+01 -0.39094579420E+02  0.18758244196E+02  0.47787267089E+02  0.19999981964E+02 0.  0.
        -12    1    3    3    0    0 -0.18345985712E+01  0.39094579420E+02 -0.18758244196E+02  0.43400732911E+02  0.00000000000E+00 0.  1.
         11    1    4    4    0    0  0.40388013186E+01 -0.10478559960E+01  0.13733802422E+01  0.43927317048E+01  0.51100000000E-03 0.  1.
        -11    1    4    4    0    0 -0.25836094532E+01 -0.72151499201E+01  0.81952971080E+01  0.11220352986E+02  0.51100000000E-03 0. -1.
         12    1    4    4    0    0  0.37940670575E+00 -0.30831573504E+02  0.91895668455E+01  0.32174182398E+02  0.00000000000E+00 0. -1.
</event>
<event>
 8    1  0.5542925E-011  0.9118800E+02  0.7816164E-02  0.1184000E+00
        -11   -1    0    0    0    0  0.00000000000E+00  0.00000000000E+00  0.45593999997E+02  0.45594000000E+02  0.51100000000E-03 0. -1.
         11   -1    0    0    0    0 -0.00000000000E+00 -0.00000000000E+00 -0.45593999997E+02  0.45594000000E+02  0.51100000000E-03 0.  1.
         23    2    1    2    0    0 -0.17763568394E-14 -0.17763568394E-14  0.00000000000E+00  0.91188000000E+02  0.91188000000E+02 0.  0.
    9900012    2    3    3    0    0  0.14739835779E+02  0.10118640807E+02 -0.39547103029E+02  0.47787274101E+02  0.20000013935E+02 0.  0.
         12    1    3    3    0    0 -0.14739835779E+02 -0.10118640807E+02  0.39547103029E+02  0.43400725899E+02  0.00000000000E+00 0. -1.
         11    1    4    4    0    0  0.78233619891E+01  0.48488355819E+01 -0.22889390982E+02  0.24670638806E+02  0.51100000000E-03 0. -1.
        -11    1    4    4    0    0  0.84887356247E+01  0.30276608663E+01 -0.17952308063E+02  0.20087576456E+02  0.51100000000E-03 0.  1.
         12    1    4    4    0    0 -0.15722618347E+01  0.22421443588E+01  0.12945960160E+01  0.30290588385E+01  0.00000000000E+00 0. -1.
</event>
<event>
 8    1  0.5542925E-011  0.9118800E+02  0.7816164E-02  0.1184000E+00
        -11   -1    0    0    0    0  0.00000000000E+00  0.00000000000E+00  0.45593999997E+02  0.45594000000E+02  0.51100000000E-03 0.  1.
         11   -1    0    0    0    0 -0.00000000000E+00 -0.00000000000E+00 -0.45593999997E+02  0.45594000000E+02  0.51100000000E-03 0. -1.
         23    2    1    2    0    0  0.00000000000E+00 -0.88817841970E-15  0.00000000000E+00  0.91188000000E+02  0.91188000000E+02 0.  0.
    9900012    2    3    3    0    0  0.32678060528E+02  0.31004199799E+01  0.28392868996E+02  0.47787271276E+02  0.20000001058E+02 0.  0.
        -12    1    3    3    0    0 -0.32678060528E+02 -0.31004199799E+01 -0.28392868996E+02  0.43400728724E+02  0.00000000000E+00 0.  1.
         11    1    4    4    0    0  0.76090775907E+01 -0.62897105066E+00  0.22899151271E+01  0.79710336792E+01  0.51100000000E-03 0. -1.
        -11    1    4    4    0    0  0.20941058569E+01  0.64349721976E+01  0.77347042857E+01  0.10277149273E+02  0.51100000000E-03 0.  1.
        -12    1    4    4    0    0  0.22974877080E+02 -0.27055811670E+01  0.18368249583E+02  0.29539088325E+02  0.00000000000E+00 0.  1.
</event>
<event>
 8    1  0.5542925E-011  0.9118800E+02  0.7816164E-02  0.1184000E+00
        -11   -1    0    0    0    0  0.00000000000E+00  0.00000000000E+00  0.45593999997E+02  0.45594000000E+02  0.51100000000E-03 0. -1.
         11   -1    0    0    0    0 -0.00000000000E+00 -0.00000000000E+00 -0.45593999997E+02  0.45594000000E+02  0.51100000000E-03 0.  1.
         23    2    1    2    0    0  0.00000000000E+00  0.00000000000E+00  0.00000000000E+00  0.91188000000E+02  0.91188000000E+02 0.  0.
    9900012    2    3    3    0    0  0.43686149346E+01 -0.17884293339E+02  0.39302549429E+02  0.47787272629E+02  0.20000007225E+02 0.  0.
        -12    1    3    3    0    0 -0.43686149346E+01  0.17884293339E+02 -0.39302549429E+02  0.43400727371E+02  0.00000000000E+00 0.  1.
         11    1    4    4    0    0 -0.65782464484E+00 -0.75429921600E+00  0.39380549333E+01  0.40632471608E+01  0.51100000000E-03 0. -1.
        -11    1    4    4    0    0  0.90410364419E+00 -0.71329353205E+01  0.48458240060E+00  0.72063159832E+01  0.51100000000E-03 0.  1.
        -12    1    4    4    0    0  0.41223359352E+01 -0.99970588030E+01  0.34879912095E+02  0.36517709485E+02  0.00000000000E+00 0.  1.
</event>
<event>
 8    1  0.5542925E-011  0.9118800E+02  0.7816164E-02  0.1184000E+00
        -11   -1    0    0    0    0  0.00000000000E+00  0.00000000000E+00  0.45593999997E+02  0.45594000000E+02  0.51100000000E-03 0. -1.
         11   -1    0    0    0    0 -0.00000000000E+00 -0.00000000000E+00 -0.45593999997E+02  0.45594000000E+02  0.51100000000E-03 0.  1.
         23    2    1    2    0    0  0.00000000000E+00  0.00000000000E+00 -0.35527136788E-14  0.91188000000E+02  0.91188000000E+02 0.  0.
    9900012    2    3    3    0    0  0.23811283548E+02  0.26216203872E+02  0.25086978138E+02  0.47787273718E+02  0.20000012192E+02 0.  0.
        -12    1    3    3    0    0 -0.23811283548E+02 -0.26216203872E+02 -0.25086978138E+02  0.43400726282E+02  0.00000000000E+00 0.  1.
         11    1    4    4    0    0  0.17899758789E+01  0.52837836755E+01  0.11427000056E+02  0.12716080926E+02  0.51100000000E-03 0. -1.
        -11    1    4    4    0    0  0.43291773152E+01  0.29946600402E-01 -0.28818564591E+00  0.43388620920E+01  0.51100000000E-03 0.  1.
         12    1    4    4    0    0  0.17692130354E+02  0.20902473596E+02  0.13948163728E+02  0.30732330700E+02  0.00000000000E+00 0. -1.
</event>
<event>
 8    1  0.5542925E-011  0.9118800E+02  0.7816164E-02  0.1184000E+00
        -11   -1    0    0    0    0  0.00000000000E+00  0.00000000000E+00  0.45593999997E+02  0.45594000000E+02  0.51100000000E-03 0. -1.
         11   -1    0    0    0    0 -0.00000000000E+00 -0.00000000000E+00 -0.45593999997E+02  0.45594000000E+02  0.51100000000E-03 0.  1.
         23    2    1    2    0    0  0.35527136788E-14  0.00000000000E+00  0.00000000000E+00  0.91188000000E+02  0.91188000000E+02 0.  0.
    9900012    2    3    3    0    0  0.17720981894E+02 -0.38849201134E+02 -0.77672079862E+01  0.47787272495E+02  0.20000006615E+02 0.  0.
         12    1    3    3    0    0 -0.17720981894E+02  0.38849201134E+02  0.77672079862E+01  0.43400727505E+02  0.00000000000E+00 0. -1.
         11    1    4    4    0    0  0.11061360377E+02 -0.14942044930E+02 -0.61932529618E+01  0.19595274496E+02  0.51100000000E-03 0. -1.
        -11    1    4    4    0    0  0.73103242930E+01 -0.22481941016E+02 -0.52319201621E+01  0.24212631041E+02  0.51100000000E-03 0.  1.
         12    1    4    4    0    0 -0.65070277552E+00 -0.14252151879E+01  0.36579651377E+01  0.39793669575E+01  0.00000000000E+00 0. -1.
</event>
<event>
 8    1  0.5664642E-011  0.9118800E+02  0.7816164E-02  0.1184000E+00
        -11   -1    0    0    0    0  0.00000000000E+00  0.00000000000E+00  0.45593999997E+02  0.45594000000E+02  0.51100000000E-03 0. -1.
         11   -1    0    0    0    0 -0.00000000000E+00 -0.00000000000E+00 -0.45593999997E+02  0.45594000000E+02  0.51100000000E-03 0.  1.
         23    2    1    2    0    0  0.00000000000E+00  0.00000000000E+00  0.00000000000E+00  0.91188000000E+02  0.91188000000E+02 0.  0.
    9900012    2    3    3    0    0 -0.15477059371E+02  0.15934364465E+02  0.37285117990E+02  0.47787270038E+02  0.19999995411E+02 0.  0.
        -12    1    3    3    0    0  0.15477059371E+02 -0.15934364465E+02 -0.37285117990E+02  0.43400729962E+02  0.00000000000E+00 0.  1.
         11    1    4    4    0    0  0.28056020995E+00  0.44099555591E+01  0.18800721459E+02  0.19313040923E+02  0.51100000000E-03 0. -1.
        -11    1    4    4    0    0 -0.65240819883E+00  0.33631404605E+01  0.25919763005E+00  0.34356271462E+01  0.51100000000E-03 0.  1.
         12    1    4    4    0    0 -0.15105211383E+02  0.81612684457E+01  0.18225198901E+02  0.25038601968E+02  0.00000000000E+00 0. -1.
</event>
<event>
 8    1  0.5542925E-011  0.9118800E+02  0.7816164E-02  0.1184000E+00
        -11   -1    0    0    0    0  0.00000000000E+00  0.00000000000E+00  0.45593999997E+02  0.45594000000E+02  0.51100000000E-03 0. -1.
         11   -1    0    0    0    0 -0.00000000000E+00 -0.00000000000E+00 -0.45593999997E+02  0.45594000000E+02  0.51100000000E-03 0.  1.
         23    2    1    2    0    0  0.00000000000E+00  0.00000000000E+00  0.00000000000E+00  0.91188000000E+02  0.91188000000E+02 0.  0.
    9900012    2    3    3    0    0 -0.20459616902E+02  0.31127804704E+02 -0.22273012817E+02  0.47787271327E+02  0.20000001286E+02 0.  0.
         12    1    3    3    0    0  0.20459616902E+02 -0.31127804704E+02  0.22273012817E+02  0.43400728673E+02  0.00000000000E+00 0. -1.
         11    1    4    4    0    0 -0.45926951391E+01  0.37964280195E+01 -0.13036598924E+01  0.60996101289E+01  0.51100000000E-03 0. -1.
        -11    1    4    4    0    0 -0.15262000475E+02  0.91544411400E+01 -0.93203457732E+01  0.20089830678E+02  0.51100000000E-03 0.  1.
         12    1    4    4    0    0 -0.60492128780E+00  0.18176935544E+02 -0.11649007151E+02  0.21597830520E+02  0.00000000000E+00 0. -1.
</event>
<event>
 8    1  0.5542925E-011  0.9118800E+02  0.7816164E-02  0.1184000E+00
        -11   -1    0    0    0    0  0.00000000000E+00  0.00000000000E+00  0.45593999997E+02  0.45594000000E+02  0.51100000000E-03 0.  1.
         11   -1    0    0    0    0 -0.00000000000E+00 -0.00000000000E+00 -0.45593999997E+02  0.45594000000E+02  0.51100000000E-03 0. -1.
         23    2    1    2    0    0 -0.35527136788E-14  0.00000000000E+00  0.00000000000E+00  0.91188000000E+02  0.91188000000E+02 0.  0.
    9900012    2    3    3    0    0 -0.19073168440E+02  0.38700447518E+02 -0.47024564335E+01  0.47787268567E+02  0.19999988704E+02 0.  0.
         12    1    3    3    0    0  0.19073168440E+02 -0.38700447518E+02  0.47024564335E+01  0.43400731433E+02  0.00000000000E+00 0. -1.
         11    1    4    4    0    0  0.45232188583E+00  0.17733886159E+01 -0.12793781248E+01  0.22330049079E+01  0.51100000000E-03 0. -1.
        -11    1    4    4    0    0 -0.11548949625E+02  0.58408197862E+01  0.17053527965E+01  0.13053797978E+02  0.51100000000E-03 0.  1.
        -12    1    4    4    0    0 -0.79765407007E+01  0.31086239116E+02 -0.51284311051E+01  0.32500465681E+02  0.00000000000E+00 0.  1.
</event>
<event>
 8    1  0.5542925E-011  0.9118800E+02  0.7816164E-02  0.1184000E+00
        -11   -1    0    0    0    0  0.00000000000E+00  0.00000000000E+00  0.45593999997E+02  0.45594000000E+02  0.51100000000E-03 0. -1.
         11   -1    0    0    0    0 -0.00000000000E+00 -0.00000000000E+00 -0.45593999997E+02  0.45594000000E+02  0.51100000000E-03 0.  1.
         23    2    1    2    0    0  0.00000000000E+00 -0.17763568394E-14  0.00000000000E+00  0.91188000000E+02  0.91188000000E+02 0.  0.
    9900012    2    3    3    0    0  0.11405595350E+02 -0.81979970699E+01  0.41064932279E+02  0.47787269311E+02  0.19999992096E+02 0.  0.
        -12    1    3    3    0    0 -0.11405595350E+02  0.81979970699E+01 -0.41064932279E+02  0.43400730689E+02  0.00000000000E+00 0.  1.
         11    1    4    4    0    0  0.67741045204E+01 -0.42997262421E+01  0.32929429703E+02  0.33892823409E+02  0.51100000000E-03 0. -1.
        -11    1    4    4    0    0  0.34548118861E+01 -0.60774275885E+01  0.88863745947E+01  0.11306569106E+02  0.51100000000E-03 0.  1.
        -12    1    4    4    0    0  0.11766789434E+01  0.21791567607E+01 -0.75087201798E+00  0.25878767959E+01  0.00000000000E+00 0.  1.
</event>
<event>
 8    1  0.5542925E-011  0.9118800E+02  0.7816164E-02  0.1184000E+00
        -11   -1    0    0    0    0  0.00000000000E+00  0.00000000000E+00  0.45593999997E+02  0.45594000000E+02  0.51100000000E-03 0. -1.
         11   -1    0    0    0    0 -0.00000000000E+00 -0.00000000000E+00 -0.45593999997E+02  0.45594000000E+02  0.51100000000E-03 0.  1.
         23    2    1    2    0    0  0.00000000000E+00 -0.44408920985E-15  0.00000000000E+00  0.91188000000E+02  0.91188000000E+02 0.  0.
    9900012    2    3    3    0    0 -0.29088165871E+02  0.29670255334E+01  0.32073342047E+02  0.47787263781E+02  0.19999966885E+02 0.  0.
        -12    1    3    3    0    0  0.29088165871E+02 -0.29670255334E+01 -0.32073342047E+02  0.43400736219E+02  0.00000000000E+00 0.  1.
         11    1    4    4    0    0 -0.17792697630E+02 -0.85893274925E+00  0.25350144908E+02  0.30983022796E+02  0.51100000000E-03 0. -1.
        -11    1    4    4    0    0 -0.92437020766E+01  0.25955324193E+01  0.92446521796E+01  0.13328406161E+02  0.51100000000E-03 0.  1.
        -12    1    4    4    0    0 -0.20517661647E+01  0.12304258634E+01 -0.25214550414E+01  0.34758348243E+01  0.00000000000E+00 0.  1.
</event>
<event>
 8    1  0.5542925E-011  0.9118800E+02  0.7816164E-02  0.1184000E+00
        -11   -1    0    0    0    0  0.00000000000E+00  0.00000000000E+00  0.45593999997E+02  0.45594000000E+02  0.51100000000E-03 0. -1.
         11   -1    0    0    0    0 -0.00000000000E+00 -0.00000000000E+00 -0.45593999997E+02  0.45594000000E+02  0.51100000000E-03 0.  1.
         23    2    1    2    0    0  0.17763568394E-14  0.00000000000E+00 -0.71054273576E-14  0.91188000000E+02  0.91188000000E+02 0.  0.
    9900012    2    3    3    0    0  0.12548101835E+02  0.16394255353E+02 -0.38175867174E+02  0.47787270712E+02  0.19999998486E+02 0.  0.
         12    1    3    3    0    0 -0.12548101835E+02 -0.16394255353E+02  0.38175867174E+02  0.43400729288E+02  0.00000000000E+00 0. -1.
         11    1    4    4    0    0  0.10356459594E+02  0.89699908121E+00 -0.13343346017E+02  0.16914660679E+02  0.51100000000E-03 0. -1.
        -11    1    4    4    0    0  0.42334893914E+01  0.75063774693E+01 -0.18714956709E+02  0.20603828285E+02  0.51100000000E-03 0.  1.
         12    1    4    4    0    0 -0.20418471505E+01  0.79908788029E+01 -0.61175644476E+01  0.10268781749E+02  0.00000000000E+00 0. -1.
</event>
<event>
 8    1  0.5542925E-011  0.9118800E+02  0.7816164E-02  0.1184000E+00
        -11   -1    0    0    0    0  0.00000000000E+00  0.00000000000E+00  0.45593999997E+02  0.45594000000E+02  0.51100000000E-03 0.  1.
         11   -1    0    0    0    0 -0.00000000000E+00 -0.00000000000E+00 -0.45593999997E+02  0.45594000000E+02  0.51100000000E-03 0. -1.
         23    2    1    2    0    0  0.00000000000E+00  0.00000000000E+00  0.88817841970E-15  0.91188000000E+02  0.91188000000E+02 0.  0.
    9900012    2    3    3    0    0 -0.42399657722E+02  0.80047667345E+01 -0.46707718299E+01  0.47787269880E+02  0.19999994692E+02 0.  0.
        -12    1    3    3    0    0  0.42399657722E+02 -0.80047667345E+01  0.46707718299E+01  0.43400730120E+02  0.00000000000E+00 0.  1.
         11    1    4    4    0    0 -0.60126082441E+01  0.33704566103E+01 -0.29944270855E+01  0.75151865906E+01  0.51100000000E-03 0. -1.
        -11    1    4    4    0    0 -0.82559691274E+01  0.43165588618E+01  0.60365694832E+01  0.11101075535E+02  0.51100000000E-03 0.  1.
        -12    1    4    4    0    0 -0.28131080351E+02  0.31775126246E+00 -0.77129142276E+01  0.29171007755E+02  0.00000000000E+00 0.  1.
</event>
<event>
 8    1  0.5542925E-011  0.9118800E+02  0.7816164E-02  0.1184000E+00
        -11   -1    0    0    0    0  0.00000000000E+00  0.00000000000E+00  0.45593999997E+02  0.45594000000E+02  0.51100000000E-03 0. -1.
         11   -1    0    0    0    0 -0.00000000000E+00 -0.00000000000E+00 -0.45593999997E+02  0.45594000000E+02  0.51100000000E-03 0.  1.
         23    2    1    2    0    0  0.00000000000E+00  0.00000000000E+00  0.00000000000E+00  0.91188000000E+02  0.91188000000E+02 0.  0.
    9900012    2    3    3    0    0  0.53032012693E+01 -0.13353180421E+02 -0.40953540708E+02  0.47787264205E+02  0.19999968816E+02 0.  0.
         12    1    3    3    0    0 -0.53032012693E+01  0.13353180421E+02  0.40953540708E+02  0.43400735795E+02  0.00000000000E+00 0. -1.
         11    1    4    4    0    0  0.15062092591E+01 -0.70884885088E+01 -0.11544122862E+02  0.13630191069E+02  0.51100000000E-03 0. -1.
        -11    1    4    4    0    0 -0.61137414172E+01 -0.27895469300E+01 -0.93469689551E+01  0.11511960524E+02  0.51100000000E-03 0.  1.
         12    1    4    4    0    0  0.99107334274E+01 -0.34751449824E+01 -0.20062448891E+02  0.22645112612E+02  0.00000000000E+00 0. -1.
</event>
<event>
 8    1  0.5542925E-011  0.9118800E+02  0.7816164E-02  0.1184000E+00
        -11   -1    0    0    0    0  0.00000000000E+00  0.00000000000E+00  0.45593999997E+02  0.45594000000E+02  0.51100000000E-03 0. -1.
         11   -1    0    0    0    0 -0.00000000000E+00 -0.00000000000E+00 -0.45593999997E+02  0.45594000000E+02  0.51100000000E-03 0.  1.
         23    2    1    2    0    0  0.35527136788E-14  0.00000000000E+00  0.00000000000E+00  0.91188000000E+02  0.91188000000E+02 0.  0.
    9900012    2    3    3    0    0 -0.27110462655E+02 -0.15286623782E+02  0.30248391505E+02  0.47787271427E+02  0.20000001742E+02 0.  0.
        -12    1    3    3    0    0  0.27110462655E+02  0.15286623782E+02 -0.30248391505E+02  0.43400728573E+02  0.00000000000E+00 0.  1.
         11    1    4    4    0    0 -0.84308887628E+01 -0.11878288632E+02  0.12392974694E+02  0.19124838514E+02  0.51100000000E-03 0. -1.
        -11    1    4    4    0    0  0.10691021416E+01  0.12149134270E+00 -0.74177686404E+00  0.13068943005E+01  0.51100000000E-03 0.  1.
         12    1    4    4    0    0 -0.19748676034E+02 -0.35298264933E+01  0.18597193676E+02  0.27355538612E+02  0.00000000000E+00 0. -1.
</event>
<event>
 8    1  0.5542925E-011  0.9118800E+02  0.7816164E-02  0.1184000E+00
        -11   -1    0    0    0    0  0.00000000000E+00  0.00000000000E+00  0.45593999997E+02  0.45594000000E+02  0.51100000000E-03 0.  1.
         11   -1    0    0    0    0 -0.00000000000E+00 -0.00000000000E+00 -0.45593999997E+02  0.45594000000E+02  0.51100000000E-03 0. -1.
         23    2    1    2    0    0  0.00000000000E+00 -0.35527136788E-14  0.00000000000E+00  0.91188000000E+02  0.91188000000E+02 0.  0.
    9900012    2    3    3    0    0 -0.32547133214E+02  0.27809878017E+02  0.71357819794E+01  0.47787255994E+02  0.19999931381E+02 0.  0.
        -12    1    3    3    0    0  0.32547133214E+02 -0.27809878017E+02 -0.71357819794E+01  0.43400744006E+02  0.00000000000E+00 0.  1.
         11    1    4    4    0    0 -0.13840257936E+02  0.29521716732E+01  0.35277512241E+01  0.14584686705E+02  0.51100000000E-03 0. -1.
        -11    1    4    4    0    0 -0.22109405604E+00  0.57877265848E+01 -0.18661127237E+01  0.60851490171E+01  0.51100000000E-03 0.  1.
         12    1    4    4    0    0 -0.18485781222E+02  0.19069979759E+02  0.54741434790E+01  0.27117420273E+02  0.00000000000E+00 0. -1.
</event>
<event>
 8    1  0.5542925E-011  0.9118800E+02  0.7816164E-02  0.1184000E+00
        -11   -1    0    0    0    0  0.00000000000E+00  0.00000000000E+00  0.45593999997E+02  0.45594000000E+02  0.51100000000E-03 0. -1.
         11   -1    0    0    0    0 -0.00000000000E+00 -0.00000000000E+00 -0.45593999997E+02  0.45594000000E+02  0.51100000000E-03 0.  1.
         23    2    1    2    0    0 -0.35527136788E-14  0.44408920985E-15 -0.71054273576E-14  0.91188000000E+02  0.91188000000E+02 0.  0.
    9900012    2    3    3    0    0  0.17920887207E+02 -0.34887286208E+01  0.39373772259E+02  0.47787269965E+02  0.19999995079E+02 0.  0.
        -12    1    3    3    0    0 -0.17920887207E+02  0.34887286208E+01 -0.39373772259E+02  0.43400730035E+02  0.00000000000E+00 0.  1.
         11    1    4    4    0    0  0.13856502903E+02 -0.29420613744E+01  0.26407848340E+02  0.29967196266E+02  0.51100000000E-03 0. -1.
        -11    1    4    4    0    0  0.95578710600E-01  0.14844505655E+00  0.13719800219E+02  0.13720936176E+02  0.51100000000E-03 0.  1.
        -12    1    4    4    0    0  0.39688055939E+01 -0.69511230290E+00 -0.75387630103E+00  0.40991375231E+01  0.00000000000E+00 0.  1.
</event>
<event>
 8    1  0.5542925E-011  0.9118800E+02  0.7816164E-02  0.1184000E+00
        -11   -1    0    0    0    0  0.00000000000E+00  0.00000000000E+00  0.45593999997E+02  0.45594000000E+02  0.51100000000E-03 0. -1.
         11   -1    0    0    0    0 -0.00000000000E+00 -0.00000000000E+00 -0.45593999997E+02  0.45594000000E+02  0.51100000000E-03 0.  1.
         23    2    1    2    0    0  0.00000000000E+00  0.71054273576E-14  0.00000000000E+00  0.91188000000E+02  0.91188000000E+02 0.  0.
    9900012    2    3    3    0    0  0.11542653333E+02  0.27822897719E+02  0.31245429095E+02  0.47787270481E+02  0.19999997431E+02 0.  0.
        -12    1    3    3    0    0 -0.11542653333E+02 -0.27822897719E+02 -0.31245429095E+02  0.43400729519E+02  0.00000000000E+00 0.  1.
         11    1    4    4    0    0  0.13125668281E+02  0.22723538468E+02  0.20763318796E+02  0.33462781952E+02  0.51100000000E-03 0. -1.
        -11    1    4    4    0    0 -0.18866600780E+00  0.64925482734E+01  0.41866376777E+01  0.77276589761E+01  0.51100000000E-03 0.  1.
         12    1    4    4    0    0 -0.13943489401E+01 -0.13931890218E+01  0.62954726218E+01  0.65968295528E+01  0.00000000000E+00 0. -1.
</event>
<event>
 8    1  0.5542925E-011  0.9118800E+02  0.7816164E-02  0.1184000E+00
        -11   -1    0    0    0    0  0.00000000000E+00  0.00000000000E+00  0.45593999997E+02  0.45594000000E+02  0.51100000000E-03 0. -1.
         11   -1    0    0    0    0 -0.00000000000E+00 -0.00000000000E+00 -0.45593999997E+02  0.45594000000E+02  0.51100000000E-03 0.  1.
         23    2    1    2    0    0 -0.44408920985E-15  0.00000000000E+00  0.00000000000E+00  0.91188000000E+02  0.91188000000E+02 0.  0.
    9900012    2    3    3    0    0  0.27052486093E+01  0.49532555264E+01 -0.43032198740E+02  0.47787271450E+02  0.20000001847E+02 0.  0.
         12    1    3    3    0    0 -0.27052486093E+01 -0.49532555264E+01  0.43032198740E+02  0.43400728550E+02  0.00000000000E+00 0. -1.
         11    1    4    4    0    0  0.48409422174E+01 -0.14594157440E+01 -0.68470262602E+01  0.85115442039E+01  0.51100000000E-03 0. -1.
        -11    1    4    4    0    0  0.20841678866E+01 -0.21946454305E+01 -0.21672995867E+02  0.21883303554E+02  0.51100000000E-03 0.  1.
        -12    1    4    4    0    0 -0.42198614947E+01  0.86073167008E+01 -0.14512176612E+02  0.17392423691E+02  0.00000000000E+00 0.  1.
</event>
<event>
 8    1  0.5542925E-011  0.9118800E+02  0.7816164E-02  0.1184000E+00
        -11   -1    0    0    0    0  0.00000000000E+00  0.00000000000E+00  0.45593999997E+02  0.45594000000E+02  0.51100000000E-03 0. -1.
         11   -1    0    0    0    0 -0.00000000000E+00 -0.00000000000E+00 -0.45593999997E+02  0.45594000000E+02  0.51100000000E-03 0.  1.
         23    2    1    2    0    0  0.00000000000E+00  0.66613381478E-15 -0.71054273576E-14  0.91188000000E+02  0.91188000000E+02 0.  0.
    9900012    2    3    3    0    0  0.24242008754E+02  0.15666839405E+01  0.35965173457E+02  0.47787272025E+02  0.20000004470E+02 0.  0.
        -12    1    3    3    0    0 -0.24242008754E+02 -0.15666839405E+01 -0.35965173457E+02  0.43400727975E+02  0.00000000000E+00 0.  1.
         11    1    4    4    0    0  0.62854824553E+01  0.46712370927E+01  0.93892863936E+01  0.12226464939E+02  0.51100000000E-03 0. -1.
        -11    1    4    4    0    0  0.20436861331E+02 -0.11643675630E+01  0.22687657810E+02  0.30557337417E+02  0.51100000000E-03 0.  1.
        -12    1    4    4    0    0 -0.24803350324E+01 -0.19401855892E+01  0.38882292534E+01  0.50034696682E+01  0.00000000000E+00 0.  1.
</event>
<event>
 8    1  0.5542925E-011  0.9118800E+02  0.7816164E-02  0.1184000E+00
        -11   -1    0    0    0    0  0.00000000000E+00  0.00000000000E+00  0.45593999997E+02  0.45594000000E+02  0.51100000000E-03 0. -1.
         11   -1    0    0    0    0 -0.00000000000E+00 -0.00000000000E+00 -0.45593999997E+02  0.45594000000E+02  0.51100000000E-03 0.  1.
         23    2    1    2    0    0  0.00000000000E+00  0.17763568394E-14  0.00000000000E+00  0.91188000000E+02  0.91188000000E+02 0.  0.
    9900012    2    3    3    0    0  0.94452500905E+01 -0.15946303010E+02 -0.39244444121E+02  0.47787265866E+02  0.19999976392E+02 0.  0.
         12    1    3    3    0    0 -0.94452500905E+01  0.15946303010E+02  0.39244444121E+02  0.43400734134E+02  0.00000000000E+00 0. -1.
         11    1    4    4    0    0  0.60422119976E+01 -0.86936904761E+01 -0.28361619194E+02  0.30273255912E+02  0.51100000000E-03 0.  1.
        -11    1    4    4    0    0  0.64623864002E+01 -0.78257316198E+00 -0.59747460005E+01  0.88358615183E+01  0.51100000000E-03 0. -1.
        -12    1    4    4    0    0 -0.30593483073E+01 -0.64700393718E+01 -0.49080789266E+01  0.86781484366E+01  0.00000000000E+00 0.  1.
</event>
<event>
 8    1  0.5542925E-011  0.9118800E+02  0.7816164E-02  0.1184000E+00
        -11   -1    0    0    0    0  0.00000000000E+00  0.00000000000E+00  0.45593999997E+02  0.45594000000E+02  0.51100000000E-03 0. -1.
         11   -1    0    0    0    0 -0.00000000000E+00 -0.00000000000E+00 -0.45593999997E+02  0.45594000000E+02  0.51100000000E-03 0.  1.
         23    2    1    2    0    0  0.00000000000E+00  0.00000000000E+00  0.00000000000E+00  0.91188000000E+02  0.91188000000E+02 0.  0.
    9900012    2    3    3    0    0  0.23336966052E+01  0.18309084993E+02 -0.39280458446E+02  0.47787272485E+02  0.20000006569E+02 0.  0.
         12    1    3    3    0    0 -0.23336966052E+01 -0.18309084993E+02  0.39280458446E+02  0.43400727515E+02  0.00000000000E+00 0. -1.
         11    1    4    4    0    0  0.21063506598E+01 -0.31485123220E+00 -0.15597119345E+02  0.15741854291E+02  0.51100000000E-03 0. -1.
        -11    1    4    4    0    0  0.30788631874E+01  0.32532654822E+01 -0.11573650259E+01  0.46262975357E+01  0.51100000000E-03 0.  1.
        -12    1    4    4    0    0 -0.28515172420E+01  0.15370670743E+02 -0.22525974075E+02  0.27419120659E+02  0.00000000000E+00 0.  1.
</event>
<event>
 8    1  0.5542925E-011  0.9118800E+02  0.7816164E-02  0.1184000E+00
        -11   -1    0    0    0    0  0.00000000000E+00  0.00000000000E+00  0.45593999997E+02  0.45594000000E+02  0.51100000000E-03 0. -1.
         11   -1    0    0    0    0 -0.00000000000E+00 -0.00000000000E+00 -0.45593999997E+02  0.45594000000E+02  0.51100000000E-03 0.  1.
         23    2    1    2    0    0 -0.35527136788E-14  0.00000000000E+00  0.17763568394E-14  0.91188000000E+02  0.91188000000E+02 0.  0.
    9900012    2    3    3    0    0 -0.26235544772E+02  0.33531340763E+02  0.84243151485E+01  0.47787266037E+02  0.19999977167E+02 0.  0.
        -12    1    3    3    0    0  0.26235544772E+02 -0.33531340763E+02 -0.84243151485E+01  0.43400733963E+02  0.00000000000E+00 0.  1.
         11    1    4    4    0    0 -0.10495191651E+02  0.25300915627E+02  0.64558608281E+01  0.28141846398E+02  0.51100000000E-03 0. -1.
        -11    1    4    4    0    0 -0.42380597006E+01  0.12987807403E+00  0.34944072138E+01  0.54944426812E+01  0.51100000000E-03 0.  1.
        -12    1    4    4    0    0 -0.11502293421E+02  0.81005470613E+01 -0.15259528934E+01  0.14150976958E+02  0.00000000000E+00 0.  1.
</event>
<event>
 8    1  0.5542925E-011  0.9118800E+02  0.7816164E-02  0.1184000E+00
        -11   -1    0    0    0    0  0.00000000000E+00  0.00000000000E+00  0.45593999997E+02  0.45594000000E+02  0.51100000000E-03 0. -1.
         11   -1    0    0    0    0 -0.00000000000E+00 -0.00000000000E+00 -0.45593999997E+02  0.45594000000E+02  0.51100000000E-03 0.  1.
         23    2    1    2    0    0  0.17763568394E-14  0.88817841970E-15  0.00000000000E+00  0.91188000000E+02  0.91188000000E+02 0.  0.
    9900012    2    3    3    0    0  0.12751905792E+02 -0.64088571825E+01 -0.40987059240E+02  0.47787267554E+02  0.19999984087E+02 0.  0.
         12    1    3    3    0    0 -0.12751905792E+02  0.64088571825E+01  0.40987059240E+02  0.43400732446E+02  0.00000000000E+00 0. -1.
         11    1    4    4    0    0  0.94821545856E+00 -0.65902215749E+01 -0.19422291512E+02  0.20531817766E+02  0.51100000000E-03 0. -1.
        -11    1    4    4    0    0 -0.21241628415E+01  0.10829397601E+01 -0.53749282957E+01  0.58800238729E+01  0.51100000000E-03 0.  1.
        -12    1    4    4    0    0  0.13927853175E+02 -0.90157536767E+00 -0.16189839432E+02  0.21375425915E+02  0.00000000000E+00 0.  1.
</event>
<event>
 8    1  0.5542925E-011  0.9118800E+02  0.7816164E-02  0.1184000E+00
        -11   -1    0    0    0    0  0.00000000000E+00  0.00000000000E+00  0.45593999997E+02  0.45594000000E+02  0.51100000000E-03 0. -1.
         11   -1    0    0    0    0 -0.00000000000E+00 -0.00000000000E+00 -0.45593999997E+02  0.45594000000E+02  0.51100000000E-03 0.  1.
         23    2    1    2    0    0  0.00000000000E+00  0.00000000000E+00  0.17763568394E-14  0.91188000000E+02  0.91188000000E+02 0.  0.
    9900012    2    3    3    0    0  0.37947097000E+02 -0.17192778316E+02 -0.12167557361E+02  0.47787271330E+02  0.20000001302E+02 0.  0.
         12    1    3    3    0    0 -0.37947097000E+02  0.17192778316E+02  0.12167557361E+02  0.43400728670E+02  0.00000000000E+00 0. -1.
         11    1    4    4    0    0  0.25982749586E+01 -0.26301852363E+01  0.12066920302E+01  0.38890889749E+01  0.51100000000E-03 0. -1.
        -11    1    4    4    0    0  0.17837390006E+02 -0.82746156730E+00 -0.12171568747E+02  0.21610281370E+02  0.51100000000E-03 0.  1.
        -12    1    4    4    0    0  0.17511432036E+02 -0.13735131512E+02 -0.12026806441E+01  0.22287900985E+02  0.00000000000E+00 0.  1.
</event>
<event>
 8    1  0.5542925E-011  0.9118800E+02  0.7816164E-02  0.1184000E+00
        -11   -1    0    0    0    0  0.00000000000E+00  0.00000000000E+00  0.45593999997E+02  0.45594000000E+02  0.51100000000E-03 0.  1.
         11   -1    0    0    0    0 -0.00000000000E+00 -0.00000000000E+00 -0.45593999997E+02  0.45594000000E+02  0.51100000000E-03 0. -1.
         23    2    1    2    0    0  0.00000000000E+00  0.00000000000E+00  0.00000000000E+00  0.91188000000E+02  0.91188000000E+02 0.  0.
    9900012    2    3    3    0    0  0.39422942092E+02  0.14806432740E+02 -0.10498766374E+02  0.47787275247E+02  0.20000019162E+02 0.  0.
        -12    1    3    3    0    0 -0.39422942092E+02 -0.14806432740E+02  0.10498766374E+02  0.43400724753E+02  0.00000000000E+00 0.  1.
         11    1    4    4    0    0  0.77633496169E+01  0.94818104728E+01  0.25986671759E+01  0.12527066635E+02  0.51100000000E-03 0. -1.
        -11    1    4    4    0    0  0.11713112033E+02  0.17938688936E+01 -0.15697088474E+01  0.11953198117E+02  0.51100000000E-03 0.  1.
         12    1    4    4    0    0  0.19946480443E+02  0.35307533740E+01 -0.11527724702E+02  0.23307010496E+02  0.00000000000E+00 0. -1.
</event>
<event>
 8    1  0.5542925E-011  0.9118800E+02  0.7816164E-02  0.1184000E+00
        -11   -1    0    0    0    0  0.00000000000E+00  0.00000000000E+00  0.45593999997E+02  0.45594000000E+02  0.51100000000E-03 0. -1.
         11   -1    0    0    0    0 -0.00000000000E+00 -0.00000000000E+00 -0.45593999997E+02  0.45594000000E+02  0.51100000000E-03 0.  1.
         23    2    1    2    0    0 -0.11102230246E-15 -0.71054273576E-14  0.00000000000E+00  0.91188000000E+02  0.91188000000E+02 0.  0.
    9900012    2    3    3    0    0 -0.10436241228E+00  0.35752391382E+02 -0.24604437726E+02  0.47787277231E+02  0.20000028209E+02 0.  0.
         12    1    3    3    0    0  0.10436241228E+00 -0.35752391382E+02  0.24604437726E+02  0.43400722769E+02  0.00000000000E+00 0. -1.
         11    1    4    4    0    0  0.94466950149E+00  0.96943416130E+01 -0.61572482469E+01  0.11523209883E+02  0.51100000000E-03 0. -1.
        -11    1    4    4    0    0 -0.14460612910E+01  0.26310725819E+02 -0.20983412385E+02  0.33684551087E+02  0.51100000000E-03 0.  1.
         12    1    4    4    0    0  0.39702937726E+00 -0.25267605041E+00  0.25362229057E+01  0.25795162609E+01  0.00000000000E+00 0. -1.
</event>
<event>
 8    1  0.5542925E-011  0.9118800E+02  0.7816164E-02  0.1184000E+00
        -11   -1    0    0    0    0  0.00000000000E+00  0.00000000000E+00  0.45593999997E+02  0.45594000000E+02  0.51100000000E-03 0. -1.
         11   -1    0    0    0    0 -0.00000000000E+00 -0.00000000000E+00 -0.45593999997E+02  0.45594000000E+02  0.51100000000E-03 0.  1.
         23    2    1    2    0    0  0.00000000000E+00  0.00000000000E+00  0.00000000000E+00  0.91188000000E+02  0.91188000000E+02 0.  0.
    9900012    2    3    3    0    0  0.38462237243E+02 -0.10345636838E+02 -0.17240857681E+02  0.47787273406E+02  0.20000010766E+02 0.  0.
         12    1    3    3    0    0 -0.38462237243E+02  0.10345636838E+02  0.17240857681E+02  0.43400726594E+02  0.00000000000E+00 0. -1.
         11    1    4    4    0    0  0.63473616522E+01 -0.49349845896E+00  0.25599244866E+01  0.68619060261E+01  0.51100000000E-03 0. -1.
        -11    1    4    4    0    0  0.81777688686E+01 -0.34760323243E+01  0.49699575070E+00  0.88997589532E+01  0.51100000000E-03 0.  1.
        -12    1    4    4    0    0  0.23937106722E+02 -0.63761060551E+01 -0.20297777918E+02  0.32025608426E+02  0.00000000000E+00 0.  1.
</event>
<event>
 8    1  0.5542925E-011  0.9118800E+02  0.7816164E-02  0.1184000E+00
        -11   -1    0    0    0    0  0.00000000000E+00  0.00000000000E+00  0.45593999997E+02  0.45594000000E+02  0.51100000000E-03 0. -1.
         11   -1    0    0    0    0 -0.00000000000E+00 -0.00000000000E+00 -0.45593999997E+02  0.45594000000E+02  0.51100000000E-03 0.  1.
         23    2    1    2    0    0  0.00000000000E+00  0.22204460493E-15  0.00000000000E+00  0.91188000000E+02  0.91188000000E+02 0.  0.
    9900012    2    3    3    0    0  0.18962898810E+02 -0.17803906890E+01 -0.38998229467E+02  0.47787271621E+02  0.20000002630E+02 0.  0.
         12    1    3    3    0    0 -0.18962898810E+02  0.17803906890E+01  0.38998229467E+02  0.43400728379E+02  0.00000000000E+00 0. -1.
         11    1    4    4    0    0  0.78369863652E+00 -0.51195131749E+01 -0.41954887334E+01  0.66652625360E+01  0.51100000000E-03 0. -1.
        -11    1    4    4    0    0  0.82533490071E+00  0.41587913044E+01 -0.97796388917E+01  0.10659177263E+02  0.51100000000E-03 0.  1.
         12    1    4    4    0    0  0.17353865272E+02 -0.81966881846E+00 -0.25023101842E+02  0.30462831822E+02  0.00000000000E+00 0. -1.
</event>
<event>
 8    1  0.5542925E-011  0.9118800E+02  0.7816164E-02  0.1184000E+00
        -11   -1    0    0    0    0  0.00000000000E+00  0.00000000000E+00  0.45593999997E+02  0.45594000000E+02  0.51100000000E-03 0. -1.
         11   -1    0    0    0    0 -0.00000000000E+00 -0.00000000000E+00 -0.45593999997E+02  0.45594000000E+02  0.51100000000E-03 0.  1.
         23    2    1    2    0    0  0.00000000000E+00  0.00000000000E+00 -0.17763568394E-14  0.91188000000E+02  0.91188000000E+02 0.  0.
    9900012    2    3    3    0    0 -0.40896457135E+02 -0.95986735775E+01  0.10907252295E+02  0.47787275430E+02  0.20000019994E+02 0.  0.
        -12    1    3    3    0    0  0.40896457135E+02  0.95986735775E+01 -0.10907252295E+02  0.43400724570E+02  0.00000000000E+00 0.  1.
         11    1    4    4    0    0 -0.14649822679E+01  0.65465409711E+00  0.11347570175E+01  0.19653037378E+01  0.51100000000E-03 0.  1.
        -11    1    4    4    0    0 -0.35207679892E+02 -0.14596349079E+02  0.10939565350E+02  0.39652341925E+02  0.51100000000E-03 0. -1.
         12    1    4    4    0    0 -0.42237949747E+01  0.43430214045E+01 -0.11670700724E+01  0.61696297670E+01  0.00000000000E+00 0. -1.
</event>
<event>
 8    1  0.5542925E-011  0.9118800E+02  0.7816164E-02  0.1184000E+00
        -11   -1    0    0    0    0  0.00000000000E+00  0.00000000000E+00  0.45593999997E+02  0.45594000000E+02  0.51100000000E-03 0. -1.
         11   -1    0    0    0    0 -0.00000000000E+00 -0.00000000000E+00 -0.45593999997E+02  0.45594000000E+02  0.51100000000E-03 0.  1.
         23    2    1    2    0    0  0.00000000000E+00  0.00000000000E+00  0.00000000000E+00  0.91188000000E+02  0.91188000000E+02 0.  0.
    9900012    2    3    3    0    0 -0.10354641179E+01  0.18721902129E+02  0.39141302024E+02  0.47787270404E+02  0.19999997082E+02 0.  0.
        -12    1    3    3    0    0  0.10354641179E+01 -0.18721902129E+02 -0.39141302024E+02  0.43400729596E+02  0.00000000000E+00 0.  1.
         11    1    4    4    0    0  0.18232440186E+01  0.92173567624E+01  0.18899243178E+02  0.21106048360E+02  0.51100000000E-03 0. -1.
        -11    1    4    4    0    0  0.51619462382E+01  0.43431296469E+01  0.39914911400E+01  0.78383968946E+01  0.51100000000E-03 0.  1.
        -12    1    4    4    0    0 -0.80206543747E+01  0.51614157194E+01  0.16250567707E+02  0.18842825150E+02  0.00000000000E+00 0.  1.
</event>
<event>
 8    1  0.5542925E-011  0.9118800E+02  0.7816164E-02  0.1184000E+00
        -11   -1    0    0    0    0  0.00000000000E+00  0.00000000000E+00  0.45593999997E+02  0.45594000000E+02  0.51100000000E-03 0. -1.
         11   -1    0    0    0    0 -0.00000000000E+00 -0.00000000000E+00 -0.45593999997E+02  0.45594000000E+02  0.51100000000E-03 0.  1.
         23    2    1    2    0    0  0.71054273576E-14 -0.11102230246E-15  0.00000000000E+00  0.91188000000E+02  0.91188000000E+02 0.  0.
    9900012    2    3    3    0    0 -0.41891434515E+02 -0.60003052375E+00 -0.11330116779E+02  0.47787264194E+02  0.19999968764E+02 0.  0.
         12    1    3    3    0    0  0.41891434515E+02  0.60003052375E+00  0.11330116779E+02  0.43400735806E+02  0.00000000000E+00 0. -1.
         11    1    4    4    0    0 -0.20377713370E+00 -0.28131393518E-01 -0.52297948909E+01  0.52338390649E+01  0.51100000000E-03 0. -1.
        -11    1    4    4    0    0 -0.70717489833E+01  0.18543550732E+01 -0.21966486297E+01  0.76337102306E+01  0.51100000000E-03 0.  1.
         12    1    4    4    0    0 -0.34615908398E+02 -0.24262542035E+01 -0.39036732580E+01  0.34919714898E+02  0.00000000000E+00 0. -1.
</event>
<event>
 8    1  0.5542925E-011  0.9118800E+02  0.7816164E-02  0.1184000E+00
        -11   -1    0    0    0    0  0.00000000000E+00  0.00000000000E+00  0.45593999997E+02  0.45594000000E+02  0.51100000000E-03 0. -1.
         11   -1    0    0    0    0 -0.00000000000E+00 -0.00000000000E+00 -0.45593999997E+02  0.45594000000E+02  0.51100000000E-03 0.  1.
         23    2    1    2    0    0  0.00000000000E+00 -0.17763568394E-14  0.00000000000E+00  0.91188000000E+02  0.91188000000E+02 0.  0.
    9900012    2    3    3    0    0  0.23965389326E+02 -0.14884948566E+02  0.32980630407E+02  0.47787267732E+02  0.19999984899E+02 0.  0.
        -12    1    3    3    0    0 -0.23965389326E+02  0.14884948566E+02 -0.32980630407E+02  0.43400732268E+02  0.00000000000E+00 0.  1.
         11    1    4    4    0    0  0.72279043470E+01 -0.30098838961E+01  0.16256380406E+02  0.18043611237E+02  0.51100000000E-03 0. -1.
        -11    1    4    4    0    0  0.82516592019E+01 -0.13407091513E+02  0.12704235931E+02  0.20229621679E+02  0.51100000000E-03 0.  1.
        -12    1    4    4    0    0  0.84858257767E+01  0.15320268431E+01  0.40200140700E+01  0.95140348161E+01  0.00000000000E+00 0.  1.
</event>
<event>
 8    1  0.5542925E-011  0.9118800E+02  0.7816164E-02  0.1184000E+00
        -11   -1    0    0    0    0  0.00000000000E+00  0.00000000000E+00  0.45593999997E+02  0.45594000000E+02  0.51100000000E-03 0. -1.
         11   -1    0    0    0    0 -0.00000000000E+00 -0.00000000000E+00 -0.45593999997E+02  0.45594000000E+02  0.51100000000E-03 0.  1.
         23    2    1    2    0    0  0.00000000000E+00  0.00000000000E+00  0.00000000000E+00  0.91188000000E+02  0.91188000000E+02 0.  0.
    9900012    2    3    3    0    0  0.67112951743E+01  0.59346004626E+01 -0.42466008354E+02  0.47787276146E+02  0.20000023260E+02 0.  0.
         12    1    3    3    0    0 -0.67112951743E+01 -0.59346004626E+01  0.42466008354E+02  0.43400723854E+02  0.00000000000E+00 0. -1.
         11    1    4    4    0    0  0.82648021928E+01 -0.15883903414E+01 -0.20866820943E+02  0.22500092349E+02  0.51100000000E-03 0.  1.
        -11    1    4    4    0    0  0.36296856594E+01  0.17729227508E+01 -0.26860624652E+01  0.48510622439E+01  0.51100000000E-03 0. -1.
        -12    1    4    4    0    0 -0.51831926778E+01  0.57500680532E+01 -0.18913124945E+02  0.20436121553E+02  0.00000000000E+00 0.  1.
</event>
<event>
 8    1  0.5542925E-011  0.9118800E+02  0.7816164E-02  0.1184000E+00
        -11   -1    0    0    0    0  0.00000000000E+00  0.00000000000E+00  0.45593999997E+02  0.45594000000E+02  0.51100000000E-03 0. -1.
         11   -1    0    0    0    0 -0.00000000000E+00 -0.00000000000E+00 -0.45593999997E+02  0.45594000000E+02  0.51100000000E-03 0.  1.
         23    2    1    2    0    0 -0.35527136788E-14 -0.17763568394E-14  0.00000000000E+00  0.91188000000E+02  0.91188000000E+02 0.  0.
    9900012    2    3    3    0    0 -0.18030508424E+02 -0.87465459257E+01 -0.38497039502E+02  0.47787270166E+02  0.19999995997E+02 0.  0.
         12    1    3    3    0    0  0.18030508424E+02  0.87465459257E+01  0.38497039502E+02  0.43400729834E+02  0.00000000000E+00 0. -1.
         11    1    4    4    0    0 -0.17605575294E+02 -0.83646259018E+01 -0.37232807609E+02  0.42026244308E+02  0.51100000000E-03 0.  1.
        -11    1    4    4    0    0 -0.23238421169E+01 -0.16722372345E+01  0.44694895481E+00  0.28976513217E+01  0.51100000000E-03 0. -1.
        -12    1    4    4    0    0  0.18989089870E+01  0.12903172106E+01 -0.17111808481E+01  0.28633745371E+01  0.00000000000E+00 0.  1.
</event>
<event>
 8    1  0.5542925E-011  0.9118800E+02  0.7816164E-02  0.1184000E+00
        -11   -1    0    0    0    0  0.00000000000E+00  0.00000000000E+00  0.45593999997E+02  0.45594000000E+02  0.51100000000E-03 0. -1.
         11   -1    0    0    0    0 -0.00000000000E+00 -0.00000000000E+00 -0.45593999997E+02  0.45594000000E+02  0.51100000000E-03 0.  1.
         23    2    1    2    0    0  0.00000000000E+00  0.00000000000E+00  0.00000000000E+00  0.91188000000E+02  0.91188000000E+02 0.  0.
    9900012    2    3    3    0    0 -0.21045602509E+02  0.27176111896E+02  0.26498387760E+02  0.47787274238E+02  0.20000014561E+02 0.  0.
        -12    1    3    3    0    0  0.21045602509E+02 -0.27176111896E+02 -0.26498387760E+02  0.43400725762E+02  0.00000000000E+00 0.  1.
         11    1    4    4    0    0 -0.81993419910E+00  0.88431147130E+01  0.40264570848E+01  0.97511705366E+01  0.51100000000E-03 0. -1.
        -11    1    4    4    0    0 -0.13325528577E+01  0.68808704110E+01  0.74256900849E+00  0.70479418078E+01  0.51100000000E-03 0.  1.
         12    1    4    4    0    0 -0.18893115452E+02  0.11452126772E+02  0.21729361667E+02  0.30988161894E+02  0.00000000000E+00 0. -1.
</event>
<event>
 8    1  0.5542925E-011  0.9118800E+02  0.7816164E-02  0.1184000E+00
        -11   -1    0    0    0    0  0.00000000000E+00  0.00000000000E+00  0.45593999997E+02  0.45594000000E+02  0.51100000000E-03 0. -1.
         11   -1    0    0    0    0 -0.00000000000E+00 -0.00000000000E+00 -0.45593999997E+02  0.45594000000E+02  0.51100000000E-03 0.  1.
         23    2    1    2    0    0  0.00000000000E+00 -0.17763568394E-14  0.00000000000E+00  0.91188000000E+02  0.91188000000E+02 0.  0.
    9900012    2    3    3    0    0  0.32909527815E+02  0.12683509807E+02  0.25292583000E+02  0.47787271932E+02  0.20000004046E+02 0.  0.
        -12    1    3    3    0    0 -0.32909527815E+02 -0.12683509807E+02 -0.25292583000E+02  0.43400728068E+02  0.00000000000E+00 0.  1.
         11    1    4    4    0    0  0.55442395082E+01  0.31217541835E+01  0.47539746647E+01  0.79425572885E+01  0.51100000000E-03 0. -1.
        -11    1    4    4    0    0  0.53963066782E+01  0.26752177531E+01 -0.31620377762E+01  0.68026023661E+01  0.51100000000E-03 0.  1.
         12    1    4    4    0    0  0.21968981629E+02  0.68865378707E+01  0.23700646112E+02  0.33042112277E+02  0.00000000000E+00 0. -1.
</event>
<event>
 8    1  0.5542925E-011  0.9118800E+02  0.7816164E-02  0.1184000E+00
        -11   -1    0    0    0    0  0.00000000000E+00  0.00000000000E+00  0.45593999997E+02  0.45594000000E+02  0.51100000000E-03 0. -1.
         11   -1    0    0    0    0 -0.00000000000E+00 -0.00000000000E+00 -0.45593999997E+02  0.45594000000E+02  0.51100000000E-03 0.  1.
         23    2    1    2    0    0 -0.17763568394E-14  0.00000000000E+00  0.00000000000E+00  0.91188000000E+02  0.91188000000E+02 0.  0.
    9900012    2    3    3    0    0  0.13227782648E+02 -0.38519040081E+02 -0.14997742677E+02  0.47787274569E+02  0.20000016069E+02 0.  0.
         12    1    3    3    0    0 -0.13227782648E+02  0.38519040081E+02  0.14997742677E+02  0.43400725431E+02  0.00000000000E+00 0. -1.
         11    1    4    4    0    0  0.54206686150E+01 -0.27173964104E+01  0.84734046379E-01  0.60642453450E+01  0.51100000000E-03 0. -1.
        -11    1    4    4    0    0  0.11049525279E+02 -0.22438096565E+02 -0.80292896028E+01  0.26268415981E+02  0.51100000000E-03 0.  1.
         12    1    4    4    0    0 -0.32424112462E+01 -0.13363547106E+02 -0.70531871209E+01  0.15454613243E+02  0.00000000000E+00 0. -1.
</event>
<event>
 8    1  0.5542925E-011  0.9118800E+02  0.7816164E-02  0.1184000E+00
        -11   -1    0    0    0    0  0.00000000000E+00  0.00000000000E+00  0.45593999997E+02  0.45594000000E+02  0.51100000000E-03 0. -1.
         11   -1    0    0    0    0 -0.00000000000E+00 -0.00000000000E+00 -0.45593999997E+02  0.45594000000E+02  0.51100000000E-03 0.  1.
         23    2    1    2    0    0 -0.44408920985E-15  0.00000000000E+00  0.00000000000E+00  0.91188000000E+02  0.91188000000E+02 0.  0.
    9900012    2    3    3    0    0 -0.17921186306E+01  0.19945018414E+02  0.38504640679E+02  0.47787276474E+02  0.20000024758E+02 0.  0.
        -12    1    3    3    0    0  0.17921186306E+01 -0.19945018414E+02 -0.38504640679E+02  0.43400723526E+02  0.00000000000E+00 0.  1.
         11    1    4    4    0    0 -0.16832352309E+01  0.34263891755E+01  0.18431887331E+02  0.18823068147E+02  0.51100000000E-03 0. -1.
        -11    1    4    4    0    0 -0.48572137277E+01  0.15004196947E+02  0.13829310250E+02  0.20975420698E+02  0.51100000000E-03 0.  1.
         12    1    4    4    0    0  0.47483303280E+01  0.15144322922E+01  0.62434430974E+01  0.79887876291E+01  0.00000000000E+00 0. -1.
</event>
<event>
 8    1  0.5542925E-011  0.9118800E+02  0.7816164E-02  0.1184000E+00
        -11   -1    0    0    0    0  0.00000000000E+00  0.00000000000E+00  0.45593999997E+02  0.45594000000E+02  0.51100000000E-03 0. -1.
         11   -1    0    0    0    0 -0.00000000000E+00 -0.00000000000E+00 -0.45593999997E+02  0.45594000000E+02  0.51100000000E-03 0.  1.
         23    2    1    2    0    0  0.00000000000E+00  0.00000000000E+00 -0.71054273576E-14  0.91188000000E+02  0.91188000000E+02 0.  0.
    9900012    2    3    3    0    0  0.94150640179E+01 -0.19666527645E+02  0.37526087852E+02  0.47787274090E+02  0.20000013885E+02 0.  0.
        -12    1    3    3    0    0 -0.94150640179E+01  0.19666527645E+02 -0.37526087852E+02  0.43400725910E+02  0.00000000000E+00 0.  1.
         11    1    4    4    0    0 -0.83322676949E+00 -0.60677743859E+00  0.80470042838E+01  0.81127506996E+01  0.51100000000E-03 0. -1.
        -11    1    4    4    0    0  0.99524542555E+01 -0.14769222056E+02  0.11526951933E+02  0.21214426388E+02  0.51100000000E-03 0.  1.
        -12    1    4    4    0    0  0.29583653187E+00 -0.42905281497E+01  0.17952131636E+02  0.18460097002E+02  0.00000000000E+00 0.  1.
</event>
<event>
 8    1  0.5542925E-011  0.9118800E+02  0.7816164E-02  0.1184000E+00
        -11   -1    0    0    0    0  0.00000000000E+00  0.00000000000E+00  0.45593999997E+02  0.45594000000E+02  0.51100000000E-03 0. -1.
         11   -1    0    0    0    0 -0.00000000000E+00 -0.00000000000E+00 -0.45593999997E+02  0.45594000000E+02  0.51100000000E-03 0.  1.
         23    2    1    2    0    0  0.00000000000E+00  0.00000000000E+00  0.00000000000E+00  0.91188000000E+02  0.91188000000E+02 0.  0.
    9900012    2    3    3    0    0 -0.16140147383E+02  0.19727942922E+02  0.35127302672E+02  0.47787268641E+02  0.19999989044E+02 0.  0.
        -12    1    3    3    0    0  0.16140147383E+02 -0.19727942922E+02 -0.35127302672E+02  0.43400731359E+02  0.00000000000E+00 0.  1.
         11    1    4    4    0    0  0.16256229206E+01  0.37780319414E+01  0.10344453087E+02  0.11132110544E+02  0.51100000000E-03 0. -1.
        -11    1    4    4    0    0 -0.50741025323E+01  0.30807132762E+01  0.14935763842E+02  0.16072160795E+02  0.51100000000E-03 0.  1.
        -12    1    4    4    0    0 -0.12691667771E+02  0.12869197704E+02  0.98470857429E+01  0.20582997303E+02  0.00000000000E+00 0.  1.
</event>
<event>
 8    1  0.5542925E-011  0.9118800E+02  0.7816164E-02  0.1184000E+00
        -11   -1    0    0    0    0  0.00000000000E+00  0.00000000000E+00  0.45593999997E+02  0.45594000000E+02  0.51100000000E-03 0. -1.
         11   -1    0    0    0    0 -0.00000000000E+00 -0.00000000000E+00 -0.45593999997E+02  0.45594000000E+02  0.51100000000E-03 0.  1.
         23    2    1    2    0    0  0.00000000000E+00 -0.17763568394E-14  0.00000000000E+00  0.91188000000E+02  0.91188000000E+02 0.  0.
    9900012    2    3    3    0    0 -0.23643358060E+02  0.97545979980E+01  0.35063709713E+02  0.47787259208E+02  0.19999946031E+02 0.  0.
        -12    1    3    3    0    0  0.23643358060E+02 -0.97545979980E+01 -0.35063709713E+02  0.43400740792E+02  0.00000000000E+00 0.  1.
         11    1    4    4    0    0 -0.24543542591E+02  0.11864888470E+02  0.25078518160E+02  0.37041775533E+02  0.51100000000E-03 0. -1.
        -11    1    4    4    0    0 -0.62799923399E-01 -0.35276281024E+00 -0.16846951211E+00  0.39593897042E+00  0.51100000000E-03 0.  1.
         12    1    4    4    0    0  0.96298445410E+00 -0.17575276613E+01  0.10153661066E+02  0.10349544704E+02  0.00000000000E+00 0. -1.
</event>
<event>
 8    1  0.5542925E-011  0.9118800E+02  0.7816164E-02  0.1184000E+00
        -11   -1    0    0    0    0  0.00000000000E+00  0.00000000000E+00  0.45593999997E+02  0.45594000000E+02  0.51100000000E-03 0. -1.
         11   -1    0    0    0    0 -0.00000000000E+00 -0.00000000000E+00 -0.45593999997E+02  0.45594000000E+02  0.51100000000E-03 0.  1.
         23    2    1    2    0    0  0.00000000000E+00  0.00000000000E+00  0.00000000000E+00  0.91188000000E+02  0.91188000000E+02 0.  0.
    9900012    2    3    3    0    0  0.18601343175E+02  0.21519482612E+02 -0.32779949739E+02  0.47787271841E+02  0.20000003634E+02 0.  0.
         12    1    3    3    0    0 -0.18601343175E+02 -0.21519482612E+02  0.32779949739E+02  0.43400728159E+02  0.00000000000E+00 0. -1.
         11    1    4    4    0    0  0.78375640783E+01  0.92694262965E+01 -0.42215696632E+01  0.12851899674E+02  0.51100000000E-03 0. -1.
        -11    1    4    4    0    0  0.63659162462E+00 -0.20769090516E+01 -0.58398507715E+01  0.62307830487E+01  0.51100000000E-03 0.  1.
        -12    1    4    4    0    0  0.10127187472E+02  0.14326965367E+02 -0.22718529304E+02  0.28704589119E+02  0.00000000000E+00 0.  1.
</event>
<event>
 8    1  0.5542925E-011  0.9118800E+02  0.7816164E-02  0.1184000E+00
        -11   -1    0    0    0    0  0.00000000000E+00  0.00000000000E+00  0.45593999997E+02  0.45594000000E+02  0.51100000000E-03 0. -1.
         11   -1    0    0    0    0 -0.00000000000E+00 -0.00000000000E+00 -0.45593999997E+02  0.45594000000E+02  0.51100000000E-03 0.  1.
         23    2    1    2    0    0 -0.35527136788E-14  0.17763568394E-14  0.00000000000E+00  0.91188000000E+02  0.91188000000E+02 0.  0.
    9900012    2    3    3    0    0 -0.18494536272E+02  0.86436985720E+01 -0.38299630065E+02  0.47787273508E+02  0.20000011232E+02 0.  0.
         12    1    3    3    0    0  0.18494536272E+02 -0.86436985720E+01  0.38299630065E+02  0.43400726492E+02  0.00000000000E+00 0. -1.
         11    1    4    4    0    0 -0.58484061147E+01  0.79770542755E+01 -0.99766624259E+01  0.14048880469E+02  0.51100000000E-03 0. -1.
        -11    1    4    4    0    0 -0.71557511808E+01  0.48069413319E+01 -0.63283988362E+01  0.10693927811E+02  0.51100000000E-03 0.  1.
        -12    1    4    4    0    0 -0.54903789769E+01 -0.41402970354E+01 -0.21994568803E+02  0.23044465229E+02  0.00000000000E+00 0.  1.
</event>
<event>
 8    1  0.5542925E-011  0.9118800E+02  0.7816164E-02  0.1184000E+00
        -11   -1    0    0    0    0  0.00000000000E+00  0.00000000000E+00  0.45593999997E+02  0.45594000000E+02  0.51100000000E-03 0. -1.
         11   -1    0    0    0    0 -0.00000000000E+00 -0.00000000000E+00 -0.45593999997E+02  0.45594000000E+02  0.51100000000E-03 0.  1.
         23    2    1    2    0    0  0.17763568394E-14  0.35527136788E-14  0.00000000000E+00  0.91188000000E+02  0.91188000000E+02 0.  0.
    9900012    2    3    3    0    0  0.15560504114E+02 -0.20504343244E+02 -0.34943757649E+02  0.47787267532E+02  0.19999983986E+02 0.  0.
         12    1    3    3    0    0 -0.15560504114E+02  0.20504343244E+02  0.34943757649E+02  0.43400732468E+02  0.00000000000E+00 0. -1.
         11    1    4    4    0    0  0.27294671982E+01 -0.26174571635E+01 -0.84906145965E+01  0.92947086923E+01  0.51100000000E-03 0. -1.
        -11    1    4    4    0    0  0.27677258895E+01  0.27839601353E+01 -0.83624389059E+01  0.92380260527E+01  0.51100000000E-03 0.  1.
         12    1    4    4    0    0  0.10063311026E+02 -0.20670846216E+02 -0.18090704146E+02  0.29254532787E+02  0.00000000000E+00 0. -1.
</event>
<event>
 8    1  0.5542925E-011  0.9118800E+02  0.7816164E-02  0.1184000E+00
        -11   -1    0    0    0    0  0.00000000000E+00  0.00000000000E+00  0.45593999997E+02  0.45594000000E+02  0.51100000000E-03 0. -1.
         11   -1    0    0    0    0 -0.00000000000E+00 -0.00000000000E+00 -0.45593999997E+02  0.45594000000E+02  0.51100000000E-03 0.  1.
         23    2    1    2    0    0  0.11102230246E-15  0.88817841970E-15  0.00000000000E+00  0.91188000000E+02  0.91188000000E+02 0.  0.
    9900012    2    3    3    0    0  0.66632950213E+00  0.23233636656E+01  0.43333374861E+02  0.47787269700E+02  0.19999993871E+02 0.  0.
        -12    1    3    3    0    0 -0.66632950213E+00 -0.23233636656E+01 -0.43333374861E+02  0.43400730300E+02  0.00000000000E+00 0.  1.
         11    1    4    4    0    0 -0.25166249589E+01  0.26068824543E+00  0.24811207403E+01  0.35436308970E+01  0.51100000000E-03 0. -1.
        -11    1    4    4    0    0 -0.43460727362E+01 -0.50158365715E+01  0.15012888472E+02  0.16414438317E+02  0.51100000000E-03 0.  1.
         12    1    4    4    0    0  0.75290271972E+01  0.70785119917E+01  0.25839365649E+02  0.27829200486E+02  0.00000000000E+00 0. -1.
</event>
<event>
 8    1  0.5542925E-011  0.9118800E+02  0.7816164E-02  0.1184000E+00
        -11   -1    0    0    0    0  0.00000000000E+00  0.00000000000E+00  0.45593999997E+02  0.45594000000E+02  0.51100000000E-03 0. -1.
         11   -1    0    0    0    0 -0.00000000000E+00 -0.00000000000E+00 -0.45593999997E+02  0.45594000000E+02  0.51100000000E-03 0.  1.
         23    2    1    2    0    0  0.17763568394E-14  0.00000000000E+00  0.00000000000E+00  0.91188000000E+02  0.91188000000E+02 0.  0.
    9900012    2    3    3    0    0 -0.96009102133E+01 -0.40396507903E+02  0.12632037037E+02  0.47787266281E+02  0.19999978281E+02 0.  0.
        -12    1    3    3    0    0  0.96009102133E+01  0.40396507903E+02 -0.12632037037E+02  0.43400733719E+02  0.00000000000E+00 0.  1.
         11    1    4    4    0    0 -0.64560910107E+01 -0.38088103224E+02  0.77586323925E+01  0.39402805677E+02  0.51100000000E-03 0. -1.
        -11    1    4    4    0    0 -0.35115951217E+01 -0.36802313037E+00  0.47440954710E+00  0.35625561052E+01  0.51100000000E-03 0.  1.
        -12    1    4    4    0    0  0.36677591904E+00 -0.19403815485E+01  0.43989950976E+01  0.48219044990E+01  0.00000000000E+00 0.  1.
</event>
<event>
 8    1  0.5542925E-011  0.9118800E+02  0.7816164E-02  0.1184000E+00
        -11   -1    0    0    0    0  0.00000000000E+00  0.00000000000E+00  0.45593999997E+02  0.45594000000E+02  0.51100000000E-03 0. -1.
         11   -1    0    0    0    0 -0.00000000000E+00 -0.00000000000E+00 -0.45593999997E+02  0.45594000000E+02  0.51100000000E-03 0.  1.
         23    2    1    2    0    0  0.00000000000E+00 -0.35527136788E-14  0.00000000000E+00  0.91188000000E+02  0.91188000000E+02 0.  0.
    9900012    2    3    3    0    0 -0.19876316743E+02  0.16029462008E+02  0.35094327414E+02  0.47787269175E+02  0.19999991476E+02 0.  0.
        -12    1    3    3    0    0  0.19876316743E+02 -0.16029462008E+02 -0.35094327414E+02  0.43400730825E+02  0.00000000000E+00 0.  1.
         11    1    4    4    0    0 -0.88795450124E+00  0.66602841539E+00  0.67079759382E+01  0.67991910177E+01  0.51100000000E-03 0. -1.
        -11    1    4    4    0    0 -0.59173201341E+01 -0.12338419309E+01  0.58832242464E+00  0.60731513250E+01  0.51100000000E-03 0.  1.
        -12    1    4    4    0    0 -0.13071042107E+02  0.16597275523E+02  0.27798029051E+02  0.34914926832E+02  0.00000000000E+00 0.  1.
</event>
<event>
 8    1  0.5542925E-011  0.9118800E+02  0.7816164E-02  0.1184000E+00
        -11   -1    0    0    0    0  0.00000000000E+00  0.00000000000E+00  0.45593999997E+02  0.45594000000E+02  0.51100000000E-03 0. -1.
         11   -1    0    0    0    0 -0.00000000000E+00 -0.00000000000E+00 -0.45593999997E+02  0.45594000000E+02  0.51100000000E-03 0.  1.
         23    2    1    2    0    0  0.35527136788E-14  0.00000000000E+00  0.00000000000E+00  0.91188000000E+02  0.91188000000E+02 0.  0.
    9900012    2    3    3    0    0 -0.20805358633E+02 -0.33332749060E+02 -0.18430626696E+02  0.47787272954E+02  0.20000008708E+02 0.  0.
         12    1    3    3    0    0  0.20805358633E+02  0.33332749060E+02  0.18430626696E+02  0.43400727046E+02  0.00000000000E+00 0. -1.
         11    1    4    4    0    0 -0.62924472673E+01 -0.55899674518E+00 -0.42337076252E+01  0.76047123871E+01  0.51100000000E-03 0. -1.
        -11    1    4    4    0    0 -0.43823762475E+01 -0.63017215206E+01 -0.81595528798E+01  0.11202464870E+02  0.51100000000E-03 0.  1.
        -12    1    4    4    0    0 -0.10130535118E+02 -0.26472030794E+02 -0.60373661909E+01  0.28980095698E+02  0.00000000000E+00 0.  1.
</event>
<event>
 8    1  0.5542925E-011  0.9118800E+02  0.7816164E-02  0.1184000E+00
        -11   -1    0    0    0    0  0.00000000000E+00  0.00000000000E+00  0.45593999997E+02  0.45594000000E+02  0.51100000000E-03 0. -1.
         11   -1    0    0    0    0 -0.00000000000E+00 -0.00000000000E+00 -0.45593999997E+02  0.45594000000E+02  0.51100000000E-03 0.  1.
         23    2    1    2    0    0  0.00000000000E+00  0.35527136788E-14  0.00000000000E+00  0.91188000000E+02  0.91188000000E+02 0.  0.
    9900012    2    3    3    0    0  0.44377141010E+01 -0.29938966577E+02  0.31106079412E+02  0.47787271866E+02  0.20000003746E+02 0.  0.
        -12    1    3    3    0    0 -0.44377141010E+01  0.29938966577E+02 -0.31106079412E+02  0.43400728134E+02  0.00000000000E+00 0.  1.
         11    1    4    4    0    0 -0.92122811905E+00 -0.18515655188E+02  0.75717319511E+01  0.20025215936E+02  0.51100000000E-03 0. -1.
        -11    1    4    4    0    0 -0.16581087804E+01 -0.30503376929E+01  0.34253541231E+01  0.48771852434E+01  0.51100000000E-03 0.  1.
        -12    1    4    4    0    0  0.70170510004E+01 -0.83729736965E+01  0.20108993338E+02  0.22884870687E+02  0.00000000000E+00 0.  1.
</event>
<event>
 8    1  0.5542925E-011  0.9118800E+02  0.7816164E-02  0.1184000E+00
        -11   -1    0    0    0    0  0.00000000000E+00  0.00000000000E+00  0.45593999997E+02  0.45594000000E+02  0.51100000000E-03 0.  1.
         11   -1    0    0    0    0 -0.00000000000E+00 -0.00000000000E+00 -0.45593999997E+02  0.45594000000E+02  0.51100000000E-03 0. -1.
         23    2    1    2    0    0  0.00000000000E+00 -0.71054273576E-14  0.00000000000E+00  0.91188000000E+02  0.91188000000E+02 0.  0.
    9900012    2    3    3    0    0 -0.97265721983E+01  0.37591898312E+02  0.19387258117E+02  0.47787276472E+02  0.20000024747E+02 0.  0.
        -12    1    3    3    0    0  0.97265721983E+01 -0.37591898312E+02 -0.19387258117E+02  0.43400723528E+02  0.00000000000E+00 0.  1.
         11    1    4    4    0    0 -0.25519300268E+01  0.20942713394E+02  0.13440303269E+02  0.25015022354E+02  0.51100000000E-03 0. -1.
        -11    1    4    4    0    0 -0.17795431191E+00  0.13093939438E+02  0.29094725668E+00  0.13098380369E+02  0.51100000000E-03 0.  1.
        -12    1    4    4    0    0 -0.69966878596E+01  0.35552454808E+01  0.56560075913E+01  0.96738737488E+01  0.00000000000E+00 0.  1.
</event>
<event>
 8    1  0.5542925E-011  0.9118800E+02  0.7816164E-02  0.1184000E+00
        -11   -1    0    0    0    0  0.00000000000E+00  0.00000000000E+00  0.45593999997E+02  0.45594000000E+02  0.51100000000E-03 0.  1.
         11   -1    0    0    0    0 -0.00000000000E+00 -0.00000000000E+00 -0.45593999997E+02  0.45594000000E+02  0.51100000000E-03 0. -1.
         23    2    1    2    0    0 -0.44408920985E-15  0.71054273576E-14  0.94368957093E-15  0.91188000000E+02  0.91188000000E+02 0.  0.
    9900012    2    3    3    0    0  0.38467000154E+01 -0.43227200503E+02 -0.48620456735E+00  0.47787258541E+02  0.19999942991E+02 0.  0.
         12    1    3    3    0    0 -0.38467000154E+01  0.43227200503E+02  0.48620456735E+00  0.43400741459E+02  0.00000000000E+00 0. -1.
         11    1    4    4    0    0 -0.32131128726E+00 -0.35174057098E+01 -0.46918782459E+01  0.58727425967E+01  0.51100000000E-03 0. -1.
        -11    1    4    4    0    0  0.38448363895E+01 -0.23346255937E+02 -0.33342640625E+01  0.23894512974E+02  0.51100000000E-03 0.  1.
         12    1    4    4    0    0  0.32317491308E+00 -0.16363538856E+02  0.75399377411E+01  0.18020002970E+02  0.00000000000E+00 0. -1.
</event>
<event>
 8    1  0.5542925E-011  0.9118800E+02  0.7816164E-02  0.1184000E+00
        -11   -1    0    0    0    0  0.00000000000E+00  0.00000000000E+00  0.45593999997E+02  0.45594000000E+02  0.51100000000E-03 0. -1.
         11   -1    0    0    0    0 -0.00000000000E+00 -0.00000000000E+00 -0.45593999997E+02  0.45594000000E+02  0.51100000000E-03 0.  1.
         23    2    1    2    0    0 -0.11102230246E-14  0.00000000000E+00  0.66613381478E-15  0.91188000000E+02  0.91188000000E+02 0.  0.
    9900012    2    3    3    0    0 -0.82724836152E+00 -0.43361724071E+02  0.16432717454E+01  0.47787265026E+02  0.19999972557E+02 0.  0.
         12    1    3    3    0    0  0.82724836152E+00  0.43361724071E+02 -0.16432717454E+01  0.43400734974E+02  0.00000000000E+00 0. -1.
         11    1    4    4    0    0 -0.56803845403E+01 -0.64315689650E+01  0.29227843378E+01  0.90650160741E+01  0.51100000000E-03 0. -1.
        -11    1    4    4    0    0 -0.89518991936E+00 -0.33135658955E-01  0.96000859839E+00  0.13130421675E+01  0.51100000000E-03 0.  1.
        -12    1    4    4    0    0  0.57483260982E+01 -0.36897019447E+02 -0.22395211908E+01  0.37409206784E+02  0.00000000000E+00 0.  1.
</event>
<event>
 8    1  0.5542925E-011  0.9118800E+02  0.7816164E-02  0.1184000E+00
        -11   -1    0    0    0    0  0.00000000000E+00  0.00000000000E+00  0.45593999997E+02  0.45594000000E+02  0.51100000000E-03 0. -1.
         11   -1    0    0    0    0 -0.00000000000E+00 -0.00000000000E+00 -0.45593999997E+02  0.45594000000E+02  0.51100000000E-03 0.  1.
         23    2    1    2    0    0  0.44408920985E-15  0.00000000000E+00  0.71054273576E-14  0.91188000000E+02  0.91188000000E+02 0.  0.
    9900012    2    3    3    0    0 -0.31010791713E+01 -0.22885935175E+02  0.36745617417E+02  0.47787272814E+02  0.20000008069E+02 0.  0.
        -12    1    3    3    0    0  0.31010791713E+01  0.22885935175E+02 -0.36745617417E+02  0.43400727186E+02  0.00000000000E+00 0.  1.
         11    1    4    4    0    0 -0.64053424509E+01 -0.10490154670E+02  0.18460267760E+02  0.22177764606E+02  0.51100000000E-03 0. -1.
        -11    1    4    4    0    0 -0.47065789266E+01 -0.56753941209E+01  0.62441360474E+01  0.96618434504E+01  0.51100000000E-03 0.  1.
        -12    1    4    4    0    0  0.80108422062E+01 -0.67203863845E+01  0.12041213610E+02  0.15947664758E+02  0.00000000000E+00 0.  1.
</event>
<event>
 8    1  0.5542925E-011  0.9118800E+02  0.7816164E-02  0.1184000E+00
        -11   -1    0    0    0    0  0.00000000000E+00  0.00000000000E+00  0.45593999997E+02  0.45594000000E+02  0.51100000000E-03 0. -1.
         11   -1    0    0    0    0 -0.00000000000E+00 -0.00000000000E+00 -0.45593999997E+02  0.45594000000E+02  0.51100000000E-03 0.  1.
         23    2    1    2    0    0 -0.17763568394E-14 -0.22204460493E-15  0.00000000000E+00  0.91188000000E+02  0.91188000000E+02 0.  0.
    9900012    2    3    3    0    0  0.14116056851E+02 -0.85001483282E+00 -0.41032149328E+02  0.47787275758E+02  0.20000021490E+02 0.  0.
         12    1    3    3    0    0 -0.14116056851E+02  0.85001483282E+00  0.41032149328E+02  0.43400724242E+02  0.00000000000E+00 0. -1.
         11    1    4    4    0    0  0.10784577131E+02 -0.20120552292E+01 -0.17470748191E+02  0.20629651300E+02  0.51100000000E-03 0. -1.
        -11    1    4    4    0    0  0.73034777611E+01  0.41144588896E+01 -0.12638103522E+02  0.15165461426E+02  0.51100000000E-03 0.  1.
        -12    1    4    4    0    0 -0.39719980411E+01 -0.29524184933E+01 -0.10923297616E+02  0.11992163032E+02  0.00000000000E+00 0.  1.
</event>
<event>
 8    1  0.5542925E-011  0.9118800E+02  0.7816164E-02  0.1184000E+00
        -11   -1    0    0    0    0  0.00000000000E+00  0.00000000000E+00  0.45593999997E+02  0.45594000000E+02  0.51100000000E-03 0. -1.
         11   -1    0    0    0    0 -0.00000000000E+00 -0.00000000000E+00 -0.45593999997E+02  0.45594000000E+02  0.51100000000E-03 0.  1.
         23    2    1    2    0    0  0.35527136788E-14  0.00000000000E+00 -0.71054273576E-14  0.91188000000E+02  0.91188000000E+02 0.  0.
    9900012    2    3    3    0    0 -0.21469830593E+02 -0.54977271029E+01  0.37315492552E+02  0.47787255613E+02  0.19999929640E+02 0.  0.
        -12    1    3    3    0    0  0.21469830593E+02  0.54977271029E+01 -0.37315492552E+02  0.43400744387E+02  0.00000000000E+00 0.  1.
         11    1    4    4    0    0 -0.10164531871E+02 -0.58726225340E+01  0.23426675621E+02  0.26203330599E+02  0.51100000000E-03 0. -1.
        -11    1    4    4    0    0 -0.13709441241E+02 -0.23806712287E+00  0.13142847563E+02  0.18993153962E+02  0.51100000000E-03 0.  1.
        -12    1    4    4    0    0  0.24041425187E+01  0.61296255391E+00  0.74596936782E+00  0.25907710514E+01  0.00000000000E+00 0.  1.
</event>
<event>
 8    1  0.5542925E-011  0.9118800E+02  0.7816164E-02  0.1184000E+00
        -11   -1    0    0    0    0  0.00000000000E+00  0.00000000000E+00  0.45593999997E+02  0.45594000000E+02  0.51100000000E-03 0. -1.
         11   -1    0    0    0    0 -0.00000000000E+00 -0.00000000000E+00 -0.45593999997E+02  0.45594000000E+02  0.51100000000E-03 0.  1.
         23    2    1    2    0    0  0.00000000000E+00  0.00000000000E+00  0.00000000000E+00  0.91188000000E+02  0.91188000000E+02 0.  0.
    9900012    2    3    3    0    0 -0.20329514185E+02  0.18445818824E+02 -0.33616754436E+02  0.47787267772E+02  0.19999985082E+02 0.  0.
         12    1    3    3    0    0  0.20329514185E+02 -0.18445818824E+02  0.33616754436E+02  0.43400732228E+02  0.00000000000E+00 0. -1.
         11    1    4    4    0    0 -0.94515982299E+01  0.12646940717E+01 -0.52608900598E+01  0.10890781638E+02  0.51100000000E-03 0. -1.
        -11    1    4    4    0    0 -0.49697133179E+00  0.76743622889E+00  0.12136643896E+01  0.15195132055E+01  0.51100000000E-03 0.  1.
        -12    1    4    4    0    0 -0.10380944623E+02  0.16413688523E+02 -0.29569528766E+02  0.35376972929E+02  0.00000000000E+00 0.  1.
</event>
<event>
 8    1  0.5542925E-011  0.9118800E+02  0.7816164E-02  0.1184000E+00
        -11   -1    0    0    0    0  0.00000000000E+00  0.00000000000E+00  0.45593999997E+02  0.45594000000E+02  0.51100000000E-03 0. -1.
         11   -1    0    0    0    0 -0.00000000000E+00 -0.00000000000E+00 -0.45593999997E+02  0.45594000000E+02  0.51100000000E-03 0.  1.
         23    2    1    2    0    0  0.00000000000E+00  0.00000000000E+00  0.00000000000E+00  0.91188000000E+02  0.91188000000E+02 0.  0.
    9900012    2    3    3    0    0 -0.35398009377E+01 -0.38795636292E+02 -0.19130922045E+02  0.47787265395E+02  0.19999974240E+02 0.  0.
         12    1    3    3    0    0  0.35398009377E+01  0.38795636292E+02  0.19130922045E+02  0.43400734605E+02  0.00000000000E+00 0. -1.
         11    1    4    4    0    0  0.16672656466E+01  0.48634588796E+00 -0.34026845995E+00  0.17697711561E+01  0.51100000000E-03 0. -1.
        -11    1    4    4    0    0 -0.11044896006E+01 -0.16807003093E+02 -0.66866624365E+00  0.16856522923E+02  0.51100000000E-03 0.  1.
        -12    1    4    4    0    0 -0.41025769837E+01 -0.22474979088E+02 -0.18121987341E+02  0.29160971316E+02  0.00000000000E+00 0.  1.
</event>
<event>
 8    1  0.5542925E-011  0.9118800E+02  0.7816164E-02  0.1184000E+00
        -11   -1    0    0    0    0  0.00000000000E+00  0.00000000000E+00  0.45593999997E+02  0.45594000000E+02  0.51100000000E-03 0. -1.
         11   -1    0    0    0    0 -0.00000000000E+00 -0.00000000000E+00 -0.45593999997E+02  0.45594000000E+02  0.51100000000E-03 0.  1.
         23    2    1    2    0    0  0.00000000000E+00  0.00000000000E+00 -0.99920072216E-15  0.91188000000E+02  0.91188000000E+02 0.  0.
    9900012    2    3    3    0    0 -0.14650443112E+02  0.40851542190E+02  0.37330055872E+00  0.47787270329E+02  0.19999996739E+02 0.  0.
         12    1    3    3    0    0  0.14650443112E+02 -0.40851542190E+02 -0.37330055872E+00  0.43400729671E+02  0.00000000000E+00 0. -1.
         11    1    4    4    0    0 -0.48574472431E+00  0.41546449416E+01 -0.11707124613E+01  0.43436839729E+01  0.51100000000E-03 0. -1.
        -11    1    4    4    0    0 -0.81078138806E+01  0.15365568805E+02  0.96019739472E+01  0.19850321271E+02  0.51100000000E-03 0.  1.
        -12    1    4    4    0    0 -0.60568845074E+01  0.21331328443E+02 -0.80579609272E+01  0.23593265085E+02  0.00000000000E+00 0.  1.
</event>
<event>
 8    1  0.5542925E-011  0.9118800E+02  0.7816164E-02  0.1184000E+00
        -11   -1    0    0    0    0  0.00000000000E+00  0.00000000000E+00  0.45593999997E+02  0.45594000000E+02  0.51100000000E-03 0. -1.
         11   -1    0    0    0    0 -0.00000000000E+00 -0.00000000000E+00 -0.45593999997E+02  0.45594000000E+02  0.51100000000E-03 0.  1.
         23    2    1    2    0    0  0.00000000000E+00  0.00000000000E+00  0.00000000000E+00  0.91188000000E+02  0.91188000000E+02 0.  0.
    9900012    2    3    3    0    0 -0.14724715272E+02  0.10938747494E+02 -0.39333829923E+02  0.47787267138E+02  0.19999982187E+02 0.  0.
         12    1    3    3    0    0  0.14724715272E+02 -0.10938747494E+02  0.39333829923E+02  0.43400732862E+02  0.00000000000E+00 0. -1.
         11    1    4    4    0    0  0.19983291307E+01  0.42344941065E+00 -0.21631531355E+01  0.29752076342E+01  0.51100000000E-03 0. -1.
        -11    1    4    4    0    0 -0.10560076211E+02  0.12505792767E+02 -0.16879074119E+02  0.23511980046E+02  0.51100000000E-03 0.  1.
        -12    1    4    4    0    0 -0.61629681920E+01 -0.19904946844E+01 -0.20291602669E+02  0.21300079457E+02  0.00000000000E+00 0.  1.
</event>
<event>
 8    1  0.5542925E-011  0.9118800E+02  0.7816164E-02  0.1184000E+00
        -11   -1    0    0    0    0  0.00000000000E+00  0.00000000000E+00  0.45593999997E+02  0.45594000000E+02  0.51100000000E-03 0.  1.
         11   -1    0    0    0    0 -0.00000000000E+00 -0.00000000000E+00 -0.45593999997E+02  0.45594000000E+02  0.51100000000E-03 0. -1.
         23    2    1    2    0    0  0.00000000000E+00  0.00000000000E+00 -0.88817841970E-15  0.91188000000E+02  0.91188000000E+02 0.  0.
    9900012    2    3    3    0    0  0.52346243671E+01 -0.42597301824E+02  0.64569234057E+01  0.47787271034E+02  0.19999999950E+02 0.  0.
        -12    1    3    3    0    0 -0.52346243671E+01  0.42597301824E+02 -0.64569234057E+01  0.43400728966E+02  0.00000000000E+00 0.  1.
         11    1    4    4    0    0  0.52421827253E+01 -0.62368446676E+01 -0.12900490726E+01  0.82488143393E+01  0.51100000000E-03 0.  1.
        -11    1    4    4    0    0  0.51298059403E+01 -0.30279514745E+02  0.49882952740E+01  0.31113453877E+02  0.51100000000E-03 0. -1.
        -12    1    4    4    0    0 -0.51373642985E+01 -0.60809424117E+01  0.27586772043E+01  0.84250028171E+01  0.00000000000E+00 0.  1.
</event>
<event>
 8    1  0.5542925E-011  0.9118800E+02  0.7816164E-02  0.1184000E+00
        -11   -1    0    0    0    0  0.00000000000E+00  0.00000000000E+00  0.45593999997E+02  0.45594000000E+02  0.51100000000E-03 0. -1.
         11   -1    0    0    0    0 -0.00000000000E+00 -0.00000000000E+00 -0.45593999997E+02  0.45594000000E+02  0.51100000000E-03 0.  1.
         23    2    1    2    0    0  0.00000000000E+00  0.00000000000E+00  0.00000000000E+00  0.91188000000E+02  0.91188000000E+02 0.  0.
    9900012    2    3    3    0    0  0.65659666890E+01 -0.32320098864E+02 -0.28212094502E+02  0.47787274369E+02  0.20000015158E+02 0.  0.
         12    1    3    3    0    0 -0.65659666890E+01  0.32320098864E+02  0.28212094502E+02  0.43400725631E+02  0.00000000000E+00 0. -1.
         11    1    4    4    0    0 -0.38167944583E+00 -0.61225015428E+01 -0.58862339003E+01  0.85016736076E+01  0.51100000000E-03 0. -1.
        -11    1    4    4    0    0 -0.34958768828E+01  0.15771825068E+00 -0.55867950978E+00  0.35437484790E+01  0.51100000000E-03 0.  1.
        -12    1    4    4    0    0  0.10443523018E+02 -0.26355315572E+02 -0.21767181092E+02  0.35741852282E+02  0.00000000000E+00 0.  1.
</event>
<event>
 8    1  0.5542925E-011  0.9118800E+02  0.7816164E-02  0.1184000E+00
        -11   -1    0    0    0    0  0.00000000000E+00  0.00000000000E+00  0.45593999997E+02  0.45594000000E+02  0.51100000000E-03 0. -1.
         11   -1    0    0    0    0 -0.00000000000E+00 -0.00000000000E+00 -0.45593999997E+02  0.45594000000E+02  0.51100000000E-03 0.  1.
         23    2    1    2    0    0 -0.17763568394E-14  0.11102230246E-15  0.00000000000E+00  0.91188000000E+02  0.91188000000E+02 0.  0.
    9900012    2    3    3    0    0 -0.13833080361E+02  0.17205056532E+00  0.41136838670E+02  0.47787271787E+02  0.20000003386E+02 0.  0.
        -12    1    3    3    0    0  0.13833080361E+02 -0.17205056532E+00 -0.41136838670E+02  0.43400728213E+02  0.00000000000E+00 0.  1.
         11    1    4    4    0    0 -0.16990752358E+02 -0.33983854266E+01  0.35077225003E+02  0.39123476371E+02  0.51100000000E-03 0. -1.
        -11    1    4    4    0    0  0.24258294504E+00  0.29893954441E+01  0.18968138898E+01  0.35486948023E+01  0.51100000000E-03 0.  1.
         12    1    4    4    0    0  0.29150890523E+01  0.58104054787E+00  0.41627997769E+01  0.51151006133E+01  0.00000000000E+00 0. -1.
</event>
<event>
 8    1  0.5542925E-011  0.9118800E+02  0.7816164E-02  0.1184000E+00
        -11   -1    0    0    0    0  0.00000000000E+00  0.00000000000E+00  0.45593999997E+02  0.45594000000E+02  0.51100000000E-03 0. -1.
         11   -1    0    0    0    0 -0.00000000000E+00 -0.00000000000E+00 -0.45593999997E+02  0.45594000000E+02  0.51100000000E-03 0.  1.
         23    2    1    2    0    0 -0.35527136788E-14 -0.88817841970E-15  0.00000000000E+00  0.91188000000E+02  0.91188000000E+02 0.  0.
    9900012    2    3    3    0    0  0.31595843031E+02 -0.70143729405E+01  0.28915818967E+02  0.47787270615E+02  0.19999998043E+02 0.  0.
        -12    1    3    3    0    0 -0.31595843031E+02  0.70143729405E+01 -0.28915818967E+02  0.43400729385E+02  0.00000000000E+00 0.  1.
         11    1    4    4    0    0 -0.81526036226E+00 -0.16012732028E-01  0.34514797095E+01  0.35464938055E+01  0.51100000000E-03 0. -1.
        -11    1    4    4    0    0  0.14900089996E+02 -0.74019225457E+01  0.19734249504E+02  0.25811659052E+02  0.51100000000E-03 0.  1.
        -12    1    4    4    0    0  0.17511013397E+02  0.40356233721E+00  0.57300897539E+01  0.18429117758E+02  0.00000000000E+00 0.  1.
</event>
<event>
 8    1  0.5542925E-011  0.9118800E+02  0.7816164E-02  0.1184000E+00
        -11   -1    0    0    0    0  0.00000000000E+00  0.00000000000E+00  0.45593999997E+02  0.45594000000E+02  0.51100000000E-03 0. -1.
         11   -1    0    0    0    0 -0.00000000000E+00 -0.00000000000E+00 -0.45593999997E+02  0.45594000000E+02  0.51100000000E-03 0.  1.
         23    2    1    2    0    0 -0.35527136788E-14  0.35527136788E-14  0.35527136788E-14  0.91188000000E+02  0.91188000000E+02 0.  0.
    9900012    2    3    3    0    0 -0.29759605039E+02 -0.20464390936E+02  0.24066526042E+02  0.47787273460E+02  0.20000011014E+02 0.  0.
        -12    1    3    3    0    0  0.29759605039E+02  0.20464390936E+02 -0.24066526042E+02  0.43400726540E+02  0.00000000000E+00 0.  1.
         11    1    4    4    0    0 -0.14346254427E+02 -0.19170891781E+02  0.13828791662E+02  0.27650923798E+02  0.51100000000E-03 0. -1.
        -11    1    4    4    0    0 -0.14709604633E+02 -0.23960419925E+01  0.66541055845E+01  0.16321476866E+02  0.51100000000E-03 0.  1.
         12    1    4    4    0    0 -0.70374597913E+00  0.11025428375E+01  0.35836287955E+01  0.38148727968E+01  0.00000000000E+00 0. -1.
</event>
<event>
 8    1  0.5542925E-011  0.9118800E+02  0.7816164E-02  0.1184000E+00
        -11   -1    0    0    0    0  0.00000000000E+00  0.00000000000E+00  0.45593999997E+02  0.45594000000E+02  0.51100000000E-03 0. -1.
         11   -1    0    0    0    0 -0.00000000000E+00 -0.00000000000E+00 -0.45593999997E+02  0.45594000000E+02  0.51100000000E-03 0.  1.
         23    2    1    2    0    0 -0.35527136788E-14  0.00000000000E+00  0.00000000000E+00  0.91188000000E+02  0.91188000000E+02 0.  0.
    9900012    2    3    3    0    0  0.25863072884E+02 -0.18385362935E+02 -0.29609174097E+02  0.47787270744E+02  0.19999998632E+02 0.  0.
         12    1    3    3    0    0 -0.25863072884E+02  0.18385362935E+02  0.29609174097E+02  0.43400729256E+02  0.00000000000E+00 0. -1.
         11    1    4    4    0    0  0.53902180522E+01  0.22120758025E+01 -0.51608163781E+01  0.77834282907E+01  0.51100000000E-03 0. -1.
        -11    1    4    4    0    0  0.56384520961E+01 -0.49882158087E+01 -0.14049713716E+00  0.75295536854E+01  0.51100000000E-03 0.  1.
        -12    1    4    4    0    0  0.14834402735E+02 -0.15609222929E+02 -0.24307860581E+02  0.32474288768E+02  0.00000000000E+00 0.  1.
</event>
<event>
 8    1  0.5542925E-011  0.9118800E+02  0.7816164E-02  0.1184000E+00
        -11   -1    0    0    0    0  0.00000000000E+00  0.00000000000E+00  0.45593999997E+02  0.45594000000E+02  0.51100000000E-03 0. -1.
         11   -1    0    0    0    0 -0.00000000000E+00 -0.00000000000E+00 -0.45593999997E+02  0.45594000000E+02  0.51100000000E-03 0.  1.
         23    2    1    2    0    0  0.00000000000E+00  0.00000000000E+00  0.00000000000E+00  0.91188000000E+02  0.91188000000E+02 0.  0.
    9900012    2    3    3    0    0  0.15016580834E+02  0.21401602112E+02 -0.34642413872E+02  0.47787272912E+02  0.20000008514E+02 0.  0.
         12    1    3    3    0    0 -0.15016580834E+02 -0.21401602112E+02  0.34642413872E+02  0.43400727088E+02  0.00000000000E+00 0. -1.
         11    1    4    4    0    0 -0.30705439044E+01  0.36095276572E+01 -0.11911012697E+02  0.12819093318E+02  0.51100000000E-03 0. -1.
        -11    1    4    4    0    0  0.53493353074E+01  0.38868685522E+01 -0.10767247046E+02  0.12635534994E+02  0.51100000000E-03 0.  1.
         12    1    4    4    0    0  0.12737789431E+02  0.13905205903E+02 -0.11964154129E+02  0.22332644600E+02  0.00000000000E+00 0. -1.
</event>
<event>
 8    1  0.5542925E-011  0.9118800E+02  0.7816164E-02  0.1184000E+00
        -11   -1    0    0    0    0  0.00000000000E+00  0.00000000000E+00  0.45593999997E+02  0.45594000000E+02  0.51100000000E-03 0. -1.
         11   -1    0    0    0    0 -0.00000000000E+00 -0.00000000000E+00 -0.45593999997E+02  0.45594000000E+02  0.51100000000E-03 0.  1.
         23    2    1    2    0    0 -0.88817841970E-15 -0.35527136788E-14  0.00000000000E+00  0.91188000000E+02  0.91188000000E+02 0.  0.
    9900012    2    3    3    0    0 -0.61273315567E+01 -0.26020340810E+02 -0.34190946401E+02  0.47787272544E+02  0.20000006839E+02 0.  0.
         12    1    3    3    0    0  0.61273315567E+01  0.26020340810E+02  0.34190946401E+02  0.43400727456E+02  0.00000000000E+00 0. -1.
         11    1    4    4    0    0 -0.60137398042E+01 -0.14076342707E+02 -0.11128734788E+02  0.18925042369E+02  0.51100000000E-03 0. -1.
        -11    1    4    4    0    0 -0.56304139456E+01 -0.69813970361E+01 -0.17228381980E+02  0.19423146287E+02  0.51100000000E-03 0.  1.
        -12    1    4    4    0    0  0.55168221931E+01 -0.49626010665E+01 -0.58338296335E+01  0.94390838882E+01  0.00000000000E+00 0.  1.
</event>
<event>
 8    1  0.5542925E-011  0.9118800E+02  0.7816164E-02  0.1184000E+00
        -11   -1    0    0    0    0  0.00000000000E+00  0.00000000000E+00  0.45593999997E+02  0.45594000000E+02  0.51100000000E-03 0. -1.
         11   -1    0    0    0    0 -0.00000000000E+00 -0.00000000000E+00 -0.45593999997E+02  0.45594000000E+02  0.51100000000E-03 0.  1.
         23    2    1    2    0    0  0.00000000000E+00  0.35527136788E-14  0.17763568394E-14  0.91188000000E+02  0.91188000000E+02 0.  0.
    9900012    2    3    3    0    0 -0.33611004188E+02  0.24236564386E+02  0.12903966740E+02  0.47787274045E+02  0.20000013680E+02 0.  0.
        -12    1    3    3    0    0  0.33611004188E+02 -0.24236564386E+02 -0.12903966740E+02  0.43400725955E+02  0.00000000000E+00 0.  1.
         11    1    4    4    0    0 -0.67219370708E+01  0.20847240233E+01 -0.24865449833E+01  0.74641421779E+01  0.51100000000E-03 0. -1.
        -11    1    4    4    0    0 -0.96125868468E+01  0.14944995057E+02  0.33972783952E+01  0.18091329523E+02  0.51100000000E-03 0.  1.
         12    1    4    4    0    0 -0.17276480271E+02  0.72068453062E+01  0.11993233328E+02  0.22231802344E+02  0.00000000000E+00 0. -1.
</event>
<event>
 8    1  0.5542925E-011  0.9118800E+02  0.7816164E-02  0.1184000E+00
        -11   -1    0    0    0    0  0.00000000000E+00  0.00000000000E+00  0.45593999997E+02  0.45594000000E+02  0.51100000000E-03 0.  1.
         11   -1    0    0    0    0 -0.00000000000E+00 -0.00000000000E+00 -0.45593999997E+02  0.45594000000E+02  0.51100000000E-03 0. -1.
         23    2    1    2    0    0  0.00000000000E+00  0.35527136788E-14  0.71054273576E-14  0.91188000000E+02  0.91188000000E+02 0.  0.
    9900012    2    3    3    0    0 -0.52170788505E+01 -0.29604038013E+02  0.31305052748E+02  0.47787270675E+02  0.19999998315E+02 0.  0.
        -12    1    3    3    0    0  0.52170788505E+01  0.29604038013E+02 -0.31305052748E+02  0.43400729325E+02  0.00000000000E+00 0.  1.
         11    1    4    4    0    0 -0.14474348951E+01 -0.21551816585E+02  0.19931029568E+02  0.29390845612E+02  0.51100000000E-03 0. -1.
        -11    1    4    4    0    0 -0.62658870755E+00 -0.82173163012E+01  0.19611660185E+01  0.84713088136E+01  0.51100000000E-03 0.  1.
        -12    1    4    4    0    0 -0.31430552479E+01  0.16509487382E+00  0.94128571616E+01  0.99251162488E+01  0.00000000000E+00 0.  1.
</event>
<event>
 8    1  0.5542925E-011  0.9118800E+02  0.7816164E-02  0.1184000E+00
        -11   -1    0    0    0    0  0.00000000000E+00  0.00000000000E+00  0.45593999997E+02  0.45594000000E+02  0.51100000000E-03 0. -1.
         11   -1    0    0    0    0 -0.00000000000E+00 -0.00000000000E+00 -0.45593999997E+02  0.45594000000E+02  0.51100000000E-03 0.  1.
         23    2    1    2    0    0  0.00000000000E+00  0.00000000000E+00  0.00000000000E+00  0.91188000000E+02  0.91188000000E+02 0.  0.
    9900012    2    3    3    0    0  0.19457551766E+02  0.36924673840E+02  0.11899375090E+02  0.47787274356E+02  0.20000015099E+02 0.  0.
         12    1    3    3    0    0 -0.19457551766E+02 -0.36924673840E+02 -0.11899375090E+02  0.43400725644E+02  0.00000000000E+00 0. -1.
         11    1    4    4    0    0  0.21015146643E+01  0.70225201164E+01  0.94311773524E+01  0.11944842367E+02  0.51100000000E-03 0. -1.
        -11    1    4    4    0    0  0.72690952203E+00  0.29105828494E+01 -0.23036730291E+01  0.37824330347E+01  0.51100000000E-03 0.  1.
        -12    1    4    4    0    0  0.16629127580E+02  0.26991570874E+02  0.47718707666E+01  0.32059998954E+02  0.00000000000E+00 0.  1.
</event>
<event>
 8    1  0.5542925E-011  0.9118800E+02  0.7816164E-02  0.1184000E+00
        -11   -1    0    0    0    0  0.00000000000E+00  0.00000000000E+00  0.45593999997E+02  0.45594000000E+02  0.51100000000E-03 0. -1.
         11   -1    0    0    0    0 -0.00000000000E+00 -0.00000000000E+00 -0.45593999997E+02  0.45594000000E+02  0.51100000000E-03 0.  1.
         23    2    1    2    0    0  0.35527136788E-14  0.00000000000E+00  0.00000000000E+00  0.91188000000E+02  0.91188000000E+02 0.  0.
    9900012    2    3    3    0    0 -0.18969460290E+02 -0.60826788300E+01  0.38558847614E+02  0.47787261126E+02  0.19999954780E+02 0.  0.
        -12    1    3    3    0    0  0.18969460290E+02  0.60826788300E+01 -0.38558847614E+02  0.43400738874E+02  0.00000000000E+00 0.  1.
         11    1    4    4    0    0 -0.62751746641E+01 -0.21493064936E+01  0.17484395922E+02  0.18700305786E+02  0.51100000000E-03 0. -1.
        -11    1    4    4    0    0 -0.11587506402E+02  0.32094086701E+01  0.16897724731E+02  0.20738941872E+02  0.51100000000E-03 0.  1.
         12    1    4    4    0    0 -0.11067792233E+01 -0.71427810066E+01  0.41767269615E+01  0.83480134683E+01  0.00000000000E+00 0. -1.
</event>
<event>
 8    1  0.5542925E-011  0.9118800E+02  0.7816164E-02  0.1184000E+00
        -11   -1    0    0    0    0  0.00000000000E+00  0.00000000000E+00  0.45593999997E+02  0.45594000000E+02  0.51100000000E-03 0. -1.
         11   -1    0    0    0    0 -0.00000000000E+00 -0.00000000000E+00 -0.45593999997E+02  0.45594000000E+02  0.51100000000E-03 0.  1.
         23    2    1    2    0    0  0.00000000000E+00 -0.35527136788E-14  0.71054273576E-14  0.91188000000E+02  0.91188000000E+02 0.  0.
    9900012    2    3    3    0    0  0.71557459952E+01 -0.27139843386E+02 -0.33103590756E+02  0.47787268201E+02  0.19999987035E+02 0.  0.
         12    1    3    3    0    0 -0.71557459952E+01  0.27139843386E+02  0.33103590756E+02  0.43400731799E+02  0.00000000000E+00 0. -1.
         11    1    4    4    0    0  0.38150689396E+01 -0.22185388416E+01 -0.12303113515E+02  0.13070702660E+02  0.51100000000E-03 0. -1.
        -11    1    4    4    0    0  0.56944124633E+01 -0.17206927757E+02 -0.19366141782E+02  0.26524557374E+02  0.51100000000E-03 0.  1.
        -12    1    4    4    0    0 -0.23537354077E+01 -0.77143767875E+01 -0.14343354590E+01  0.81920081663E+01  0.00000000000E+00 0.  1.
</event>
<event>
 8    1  0.5542925E-011  0.9118800E+02  0.7816164E-02  0.1184000E+00
        -11   -1    0    0    0    0  0.00000000000E+00  0.00000000000E+00  0.45593999997E+02  0.45594000000E+02  0.51100000000E-03 0. -1.
         11   -1    0    0    0    0 -0.00000000000E+00 -0.00000000000E+00 -0.45593999997E+02  0.45594000000E+02  0.51100000000E-03 0.  1.
         23    2    1    2    0    0 -0.88817841970E-15  0.00000000000E+00  0.00000000000E+00  0.91188000000E+02  0.91188000000E+02 0.  0.
    9900012    2    3    3    0    0  0.51877094908E+01 -0.28040017726E+02  0.32718006924E+02  0.47787275341E+02  0.20000019590E+02 0.  0.
        -12    1    3    3    0    0 -0.51877094908E+01  0.28040017726E+02 -0.32718006924E+02  0.43400724659E+02  0.00000000000E+00 0.  1.
         11    1    4    4    0    0 -0.28245520897E+01 -0.31850236640E+01  0.99987864644E+01  0.10867299631E+02  0.51100000000E-03 0. -1.
        -11    1    4    4    0    0 -0.20893987496E+01  0.18051738778E+00  0.14181513406E+01  0.25316648965E+01  0.51100000000E-03 0.  1.
         12    1    4    4    0    0  0.10101660330E+02 -0.25035511450E+02  0.21301069119E+02  0.34388310813E+02  0.00000000000E+00 0. -1.
</event>
<event>
 8    1  0.5542925E-011  0.9118800E+02  0.7816164E-02  0.1184000E+00
        -11   -1    0    0    0    0  0.00000000000E+00  0.00000000000E+00  0.45593999997E+02  0.45594000000E+02  0.51100000000E-03 0. -1.
         11   -1    0    0    0    0 -0.00000000000E+00 -0.00000000000E+00 -0.45593999997E+02  0.45594000000E+02  0.51100000000E-03 0.  1.
         23    2    1    2    0    0  0.00000000000E+00 -0.88817841970E-15  0.71054273576E-14  0.91188000000E+02  0.91188000000E+02 0.  0.
    9900012    2    3    3    0    0 -0.27930779858E+02 -0.75222094081E+01 -0.32356006955E+02  0.47787270929E+02  0.19999999472E+02 0.  0.
         12    1    3    3    0    0  0.27930779858E+02  0.75222094081E+01  0.32356006955E+02  0.43400729071E+02  0.00000000000E+00 0. -1.
         11    1    4    4    0    0 -0.44568254828E+00 -0.39034655000E+00  0.67273987167E+00  0.89642766524E+00  0.51100000000E-03 0. -1.
        -11    1    4    4    0    0 -0.13196509927E+02 -0.10648393278E+02 -0.24765701744E+02  0.30014598727E+02  0.51100000000E-03 0.  1.
        -12    1    4    4    0    0 -0.14288587383E+02  0.35165304197E+01 -0.82630450827E+01  0.16876244536E+02  0.00000000000E+00 0.  1.
</event>
<event>
 8    1  0.5542925E-011  0.9118800E+02  0.7816164E-02  0.1184000E+00
        -11   -1    0    0    0    0  0.00000000000E+00  0.00000000000E+00  0.45593999997E+02  0.45594000000E+02  0.51100000000E-03 0. -1.
         11   -1    0    0    0    0 -0.00000000000E+00 -0.00000000000E+00 -0.45593999997E+02  0.45594000000E+02  0.51100000000E-03 0.  1.
         23    2    1    2    0    0  0.00000000000E+00  0.00000000000E+00 -0.88817841970E-15  0.91188000000E+02  0.91188000000E+02 0.  0.
    9900012    2    3    3    0    0 -0.88444658382E+01  0.42050369897E+02 -0.60963557415E+01  0.47787265700E+02  0.19999975632E+02 0.  0.
         12    1    3    3    0    0  0.88444658382E+01 -0.42050369897E+02  0.60963557415E+01  0.43400734300E+02  0.00000000000E+00 0. -1.
         11    1    4    4    0    0 -0.86546843052E+01  0.75063386642E+01  0.14115421882E+01  0.11543012266E+02  0.51100000000E-03 0. -1.
        -11    1    4    4    0    0 -0.40628885135E+01  0.16460646710E+02 -0.40201217473E+01  0.17424733350E+02  0.51100000000E-03 0.  1.
         12    1    4    4    0    0  0.38731069805E+01  0.18083384523E+02 -0.34877761823E+01  0.18819520084E+02  0.00000000000E+00 0. -1.
</event>
<event>
 8    1  0.5542925E-011  0.9118800E+02  0.7816164E-02  0.1184000E+00
        -11   -1    0    0    0    0  0.00000000000E+00  0.00000000000E+00  0.45593999997E+02  0.45594000000E+02  0.51100000000E-03 0. -1.
         11   -1    0    0    0    0 -0.00000000000E+00 -0.00000000000E+00 -0.45593999997E+02  0.45594000000E+02  0.51100000000E-03 0.  1.
         23    2    1    2    0    0  0.00000000000E+00  0.00000000000E+00 -0.88817841970E-15  0.91188000000E+02  0.91188000000E+02 0.  0.
    9900012    2    3    3    0    0 -0.80870072271E+01 -0.42598666709E+02 -0.18913974386E+01  0.47787268721E+02  0.19999989408E+02 0.  0.
         12    1    3    3    0    0  0.80870072271E+01  0.42598666709E+02  0.18913974386E+01  0.43400731279E+02  0.00000000000E+00 0. -1.
         11    1    4    4    0    0 -0.85277010716E+01 -0.18953344350E+02 -0.79093385029E+01  0.22237548953E+02  0.51100000000E-03 0. -1.
        -11    1    4    4    0    0 -0.33022046762E+01 -0.12009127799E+02  0.16225179849E+01  0.12560106333E+02  0.51100000000E-03 0.  1.
         12    1    4    4    0    0  0.37428985207E+01 -0.11636194559E+02  0.43954230794E+01  0.12989613435E+02  0.00000000000E+00 0. -1.
</event>
<event>
 8    1  0.5542925E-011  0.9118800E+02  0.7816164E-02  0.1184000E+00
        -11   -1    0    0    0    0  0.00000000000E+00  0.00000000000E+00  0.45593999997E+02  0.45594000000E+02  0.51100000000E-03 0. -1.
         11   -1    0    0    0    0 -0.00000000000E+00 -0.00000000000E+00 -0.45593999997E+02  0.45594000000E+02  0.51100000000E-03 0.  1.
         23    2    1    2    0    0 -0.71054273576E-14  0.00000000000E+00  0.27755575616E-16  0.91188000000E+02  0.91188000000E+02 0.  0.
    9900012    2    3    3    0    0 -0.34445855498E+02 -0.26402277953E+02 -0.16273512963E+00  0.47787265849E+02  0.19999976313E+02 0.  0.
        -12    1    3    3    0    0  0.34445855498E+02  0.26402277953E+02  0.16273512963E+00  0.43400734151E+02  0.00000000000E+00 0.  1.
         11    1    4    4    0    0 -0.10206168483E+01 -0.60984977586E+01  0.11188244662E+01  0.62837172208E+01  0.51100000000E-03 0. -1.
        -11    1    4    4    0    0 -0.50681006943E+01  0.11646760929E+01 -0.27959259255E+01  0.59041779352E+01  0.51100000000E-03 0.  1.
         12    1    4    4    0    0 -0.28357137956E+02 -0.21468456287E+02  0.15143663297E+01  0.35599370693E+02  0.00000000000E+00 0. -1.
</event>
<event>
 8    1  0.5542925E-011  0.9118800E+02  0.7816164E-02  0.1184000E+00
        -11   -1    0    0    0    0  0.00000000000E+00  0.00000000000E+00  0.45593999997E+02  0.45594000000E+02  0.51100000000E-03 0. -1.
         11   -1    0    0    0    0 -0.00000000000E+00 -0.00000000000E+00 -0.45593999997E+02  0.45594000000E+02  0.51100000000E-03 0.  1.
         23    2    1    2    0    0  0.00000000000E+00  0.00000000000E+00  0.00000000000E+00  0.91188000000E+02  0.91188000000E+02 0.  0.
    9900012    2    3    3    0    0  0.30630814392E+01 -0.86793514206E+01 -0.42413550019E+02  0.47787276110E+02  0.20000023095E+02 0.  0.
         12    1    3    3    0    0 -0.30630814392E+01  0.86793514206E+01  0.42413550019E+02  0.43400723890E+02  0.00000000000E+00 0. -1.
         11    1    4    4    0    0 -0.18967350848E+00 -0.41974360283E+01 -0.14026420604E+01  0.44296557724E+01  0.51100000000E-03 0. -1.
        -11    1    4    4    0    0 -0.11529671993E+01  0.33134551787E+01 -0.41960747330E+01  0.54694937617E+01  0.51100000000E-03 0.  1.
        -12    1    4    4    0    0  0.44057221470E+01 -0.77953705710E+01 -0.36814833226E+02  0.37888126576E+02  0.00000000000E+00 0.  1.
</event>
<event>
 8    1  0.5542925E-011  0.9118800E+02  0.7816164E-02  0.1184000E+00
        -11   -1    0    0    0    0  0.00000000000E+00  0.00000000000E+00  0.45593999997E+02  0.45594000000E+02  0.51100000000E-03 0. -1.
         11   -1    0    0    0    0 -0.00000000000E+00 -0.00000000000E+00 -0.45593999997E+02  0.45594000000E+02  0.51100000000E-03 0.  1.
         23    2    1    2    0    0  0.00000000000E+00  0.80491169285E-15  0.00000000000E+00  0.91188000000E+02  0.91188000000E+02 0.  0.
    9900012    2    3    3    0    0  0.29516011691E+02 -0.16769983506E+00  0.31818233299E+02  0.47787273742E+02  0.20000012301E+02 0.  0.
        -12    1    3    3    0    0 -0.29516011691E+02  0.16769983506E+00 -0.31818233299E+02  0.43400726258E+02  0.00000000000E+00 0.  1.
         11    1    4    4    0    0  0.25988237469E+02  0.70512567930E+01  0.26199424904E+02  0.37570181989E+02  0.51100000000E-03 0. -1.
        -11    1    4    4    0    0  0.34741333519E+01 -0.39391699614E+01  0.33897931475E+01  0.62511887170E+01  0.51100000000E-03 0.  1.
         12    1    4    4    0    0  0.53640870422E-01 -0.32797866667E+01  0.22290152481E+01  0.39659030369E+01  0.00000000000E+00 0. -1.
</event>
<event>
 8    1  0.5542925E-011  0.9118800E+02  0.7816164E-02  0.1184000E+00
        -11   -1    0    0    0    0  0.00000000000E+00  0.00000000000E+00  0.45593999997E+02  0.45594000000E+02  0.51100000000E-03 0. -1.
         11   -1    0    0    0    0 -0.00000000000E+00 -0.00000000000E+00 -0.45593999997E+02  0.45594000000E+02  0.51100000000E-03 0.  1.
         23    2    1    2    0    0  0.66613381478E-15  0.00000000000E+00  0.71054273576E-14  0.91188000000E+02  0.91188000000E+02 0.  0.
    9900012    2    3    3    0    0  0.76355998486E+00 -0.12188520803E+02 -0.41647094337E+02  0.47787268095E+02  0.19999986551E+02 0.  0.
         12    1    3    3    0    0 -0.76355998486E+00  0.12188520803E+02  0.41647094337E+02  0.43400731905E+02  0.00000000000E+00 0. -1.
         11    1    4    4    0    0  0.13991231990E+01  0.42198383889E+01 -0.31184830725E+01  0.54304252770E+01  0.51100000000E-03 0. -1.
        -11    1    4    4    0    0  0.20813222425E+01 -0.39656696932E+01 -0.14298268943E+02  0.14983288471E+02  0.51100000000E-03 0.  1.
        -12    1    4    4    0    0 -0.27168854567E+01 -0.12442689499E+02 -0.24230342322E+02  0.27373554347E+02  0.00000000000E+00 0.  1.
</event>
<event>
 8    1  0.5542925E-011  0.9118800E+02  0.7816164E-02  0.1184000E+00
        -11   -1    0    0    0    0  0.00000000000E+00  0.00000000000E+00  0.45593999997E+02  0.45594000000E+02  0.51100000000E-03 0. -1.
         11   -1    0    0    0    0 -0.00000000000E+00 -0.00000000000E+00 -0.45593999997E+02  0.45594000000E+02  0.51100000000E-03 0.  1.
         23    2    1    2    0    0  0.00000000000E+00  0.00000000000E+00  0.00000000000E+00  0.91188000000E+02  0.91188000000E+02 0.  0.
    9900012    2    3    3    0    0  0.12748431670E+02  0.17430384858E+02  0.37646810598E+02  0.47787272188E+02  0.20000005215E+02 0.  0.
        -12    1    3    3    0    0 -0.12748431670E+02 -0.17430384858E+02 -0.37646810598E+02  0.43400727812E+02  0.00000000000E+00 0.  1.
         11    1    4    4    0    0  0.11909359790E+02  0.55019856179E+01  0.24000488007E+02  0.27351930849E+02  0.51100000000E-03 0. -1.
        -11    1    4    4    0    0  0.11431986983E+01  0.84467117444E+01  0.14516249866E+02  0.16833756354E+02  0.51100000000E-03 0.  1.
        -12    1    4    4    0    0 -0.30412681819E+00  0.34816874962E+01 -0.86992727411E+00  0.36015849851E+01  0.00000000000E+00 0.  1.
</event>
<event>
 8    1  0.5542925E-011  0.9118800E+02  0.7816164E-02  0.1184000E+00
        -11   -1    0    0    0    0  0.00000000000E+00  0.00000000000E+00  0.45593999997E+02  0.45594000000E+02  0.51100000000E-03 0. -1.
         11   -1    0    0    0    0 -0.00000000000E+00 -0.00000000000E+00 -0.45593999997E+02  0.45594000000E+02  0.51100000000E-03 0.  1.
         23    2    1    2    0    0 -0.71054273576E-14  0.00000000000E+00  0.00000000000E+00  0.91188000000E+02  0.91188000000E+02 0.  0.
    9900012    2    3    3    0    0 -0.42528004218E+02  0.22767178983E+01  0.83551699129E+01  0.47787268999E+02  0.19999990675E+02 0.  0.
        -12    1    3    3    0    0  0.42528004218E+02 -0.22767178983E+01 -0.83551699129E+01  0.43400731001E+02  0.00000000000E+00 0.  1.
         11    1    4    4    0    0 -0.28183260501E+02  0.70939367551E+01  0.99119447889E+01  0.30706135558E+02  0.51100000000E-03 0.  1.
        -11    1    4    4    0    0 -0.56579947939E+01 -0.50858289833E+00  0.29355621230E+01  0.63944575134E+01  0.51100000000E-03 0. -1.
        -12    1    4    4    0    0 -0.86867489230E+01 -0.43086359585E+01 -0.44923369990E+01  0.10686675928E+02  0.00000000000E+00 0.  1.
</event>
<event>
 8    1  0.5542925E-011  0.9118800E+02  0.7816164E-02  0.1184000E+00
        -11   -1    0    0    0    0  0.00000000000E+00  0.00000000000E+00  0.45593999997E+02  0.45594000000E+02  0.51100000000E-03 0. -1.
         11   -1    0    0    0    0 -0.00000000000E+00 -0.00000000000E+00 -0.45593999997E+02  0.45594000000E+02  0.51100000000E-03 0.  1.
         23    2    1    2    0    0  0.13322676296E-14  0.00000000000E+00  0.00000000000E+00  0.91188000000E+02  0.91188000000E+02 0.  0.
    9900012    2    3    3    0    0  0.30822035183E+01 -0.44624123134E+01 -0.43060539681E+02  0.47787272128E+02  0.20000004940E+02 0.  0.
         12    1    3    3    0    0 -0.30822035183E+01  0.44624123134E+01  0.43060539681E+02  0.43400727872E+02  0.00000000000E+00 0. -1.
         11    1    4    4    0    0  0.16411974563E+01  0.11164340746E+00 -0.37014656515E+00  0.16861204233E+01  0.51100000000E-03 0. -1.
        -11    1    4    4    0    0  0.88847017342E+01 -0.37523827854E+01 -0.27954377040E+02  0.29571362793E+02  0.51100000000E-03 0.  1.
         12    1    4    4    0    0 -0.74436956722E+01 -0.82167293552E+00 -0.14736016076E+02  0.16529788912E+02  0.00000000000E+00 0. -1.
</event>
<event>
 8    1  0.5542925E-011  0.9118800E+02  0.7816164E-02  0.1184000E+00
        -11   -1    0    0    0    0  0.00000000000E+00  0.00000000000E+00  0.45593999997E+02  0.45594000000E+02  0.51100000000E-03 0. -1.
         11   -1    0    0    0    0 -0.00000000000E+00 -0.00000000000E+00 -0.45593999997E+02  0.45594000000E+02  0.51100000000E-03 0.  1.
         23    2    1    2    0    0  0.00000000000E+00  0.00000000000E+00  0.00000000000E+00  0.91188000000E+02  0.91188000000E+02 0.  0.
    9900012    2    3    3    0    0  0.20743106500E+02  0.44105693456E+01  0.37866784549E+02  0.47787274645E+02  0.20000016416E+02 0.  0.
        -12    1    3    3    0    0 -0.20743106500E+02 -0.44105693456E+01 -0.37866784549E+02  0.43400725355E+02  0.00000000000E+00 0.  1.
         11    1    4    4    0    0  0.45077476640E+01  0.67465192297E+00  0.48114589504E+01  0.66275999963E+01  0.51100000000E-03 0. -1.
        -11    1    4    4    0    0  0.19008833371E+02 -0.46983229403E+00  0.22462921655E+02  0.29430245294E+02  0.51100000000E-03 0.  1.
         12    1    4    4    0    0 -0.27734745348E+01  0.42057497166E+01  0.10592403944E+02  0.11729429354E+02  0.00000000000E+00 0. -1.
</event>
<event>
 8    1  0.5542925E-011  0.9118800E+02  0.7816164E-02  0.1184000E+00
        -11   -1    0    0    0    0  0.00000000000E+00  0.00000000000E+00  0.45593999997E+02  0.45594000000E+02  0.51100000000E-03 0. -1.
         11   -1    0    0    0    0 -0.00000000000E+00 -0.00000000000E+00 -0.45593999997E+02  0.45594000000E+02  0.51100000000E-03 0.  1.
         23    2    1    2    0    0 -0.17763568394E-14  0.00000000000E+00  0.00000000000E+00  0.91188000000E+02  0.91188000000E+02 0.  0.
    9900012    2    3    3    0    0 -0.95749580496E+01 -0.17922718081E+01  0.42293383616E+02  0.47787281601E+02  0.20000048130E+02 0.  0.
        -12    1    3    3    0    0  0.95749580496E+01  0.17922718081E+01 -0.42293383616E+02  0.43400718399E+02  0.00000000000E+00 0.  1.
         11    1    4    4    0    0 -0.23473638138E+01  0.73231148313E+01  0.26301883673E+02  0.27403051157E+02  0.51100000000E-03 0. -1.
        -11    1    4    4    0    0  0.21989057505E+00 -0.99390872123E+00  0.38747194832E+01  0.40062024095E+01  0.51100000000E-03 0.  1.
        -12    1    4    4    0    0 -0.74474848109E+01 -0.81214779181E+01  0.12116780460E+02  0.16378028035E+02  0.00000000000E+00 0.  1.
</event>
<event>
 8    1  0.5542925E-011  0.9118800E+02  0.7816164E-02  0.1184000E+00
        -11   -1    0    0    0    0  0.00000000000E+00  0.00000000000E+00  0.45593999997E+02  0.45594000000E+02  0.51100000000E-03 0. -1.
         11   -1    0    0    0    0 -0.00000000000E+00 -0.00000000000E+00 -0.45593999997E+02  0.45594000000E+02  0.51100000000E-03 0.  1.
         23    2    1    2    0    0  0.71054273576E-14 -0.88817841970E-15 -0.44408920985E-15  0.91188000000E+02  0.91188000000E+02 0.  0.
    9900012    2    3    3    0    0  0.43102264100E+02 -0.46457416461E+01 -0.20571289132E+01  0.47787310313E+02  0.20000179039E+02 0.  0.
         12    1    3    3    0    0 -0.43102264100E+02  0.46457416461E+01  0.20571289132E+01  0.43400689687E+02  0.00000000000E+00 0. -1.
         11    1    4    4    0    0 -0.85408235371E-01 -0.58525820825E+00  0.46517663070E+00  0.75247012955E+00  0.51100000000E-03 0. -1.
        -11    1    4    4    0    0  0.33560541946E+02  0.30759992013E+01  0.30106520652E+01  0.33835421867E+02  0.51100000000E-03 0.  1.
        -12    1    4    4    0    0  0.96271303895E+01 -0.71364826391E+01 -0.55329576091E+01  0.13199418317E+02  0.00000000000E+00 0.  1.
</event>
<event>
 8    1  0.5542925E-011  0.9118800E+02  0.7816164E-02  0.1184000E+00
        -11   -1    0    0    0    0  0.00000000000E+00  0.00000000000E+00  0.45593999997E+02  0.45594000000E+02  0.51100000000E-03 0. -1.
         11   -1    0    0    0    0 -0.00000000000E+00 -0.00000000000E+00 -0.45593999997E+02  0.45594000000E+02  0.51100000000E-03 0.  1.
         23    2    1    2    0    0 -0.13322676296E-14 -0.44408920985E-15 -0.71054273576E-14  0.91188000000E+02  0.91188000000E+02 0.  0.
    9900012    2    3    3    0    0  0.37796871607E+01  0.19677740839E+01  0.43191030576E+02  0.47787270835E+02  0.19999999044E+02 0.  0.
        -12    1    3    3    0    0 -0.37796871607E+01 -0.19677740839E+01 -0.43191030576E+02  0.43400729165E+02  0.00000000000E+00 0.  1.
         11    1    4    4    0    0  0.39610364771E+01 -0.45530854256E+01  0.17772237979E+02  0.18768932839E+02  0.51100000000E-03 0. -1.
        -11    1    4    4    0    0  0.59788806082E+00 -0.41058919377E+00 -0.12539798340E+01  0.14486266960E+01  0.51100000000E-03 0.  1.
        -12    1    4    4    0    0 -0.77923737715E+00  0.69314487032E+01  0.26672772431E+02  0.27569711300E+02  0.00000000000E+00 0.  1.
</event>
<event>
 8    1  0.5542925E-011  0.9118800E+02  0.7816164E-02  0.1184000E+00
        -11   -1    0    0    0    0  0.00000000000E+00  0.00000000000E+00  0.45593999997E+02  0.45594000000E+02  0.51100000000E-03 0.  1.
         11   -1    0    0    0    0 -0.00000000000E+00 -0.00000000000E+00 -0.45593999997E+02  0.45594000000E+02  0.51100000000E-03 0. -1.
         23    2    1    2    0    0  0.00000000000E+00  0.35527136788E-14  0.44408920985E-15  0.91188000000E+02  0.91188000000E+02 0.  0.
    9900012    2    3    3    0    0 -0.37889290719E+02  0.21070646552E+02  0.20125748957E+01  0.47787297759E+02  0.20000121804E+02 0.  0.
         12    1    3    3    0    0  0.37889290719E+02 -0.21070646552E+02 -0.20125748957E+01  0.43400702241E+02  0.00000000000E+00 0. -1.
         11    1    4    4    0    0 -0.19409182746E+01  0.52256676630E+01  0.46493324437E+00  0.55938295877E+01  0.51100000000E-03 0. -1.
        -11    1    4    4    0    0 -0.13089206502E+02  0.13748579804E+02 -0.14754706135E+01  0.19040162480E+02  0.51100000000E-03 0.  1.
        -12    1    4    4    0    0 -0.22859165942E+02  0.20963990850E+01  0.30231122648E+01  0.23153305692E+02  0.00000000000E+00 0.  1.
</event>
<event>
 8    1  0.5542925E-011  0.9118800E+02  0.7816164E-02  0.1184000E+00
        -11   -1    0    0    0    0  0.00000000000E+00  0.00000000000E+00  0.45593999997E+02  0.45594000000E+02  0.51100000000E-03 0. -1.
         11   -1    0    0    0    0 -0.00000000000E+00 -0.00000000000E+00 -0.45593999997E+02  0.45594000000E+02  0.51100000000E-03 0.  1.
         23    2    1    2    0    0  0.00000000000E+00  0.00000000000E+00  0.00000000000E+00  0.91188000000E+02  0.91188000000E+02 0.  0.
    9900012    2    3    3    0    0 -0.12689425157E+02 -0.11358663142E+02  0.39919704134E+02  0.47787268240E+02  0.19999987213E+02 0.  0.
        -12    1    3    3    0    0  0.12689425157E+02  0.11358663142E+02 -0.39919704134E+02  0.43400731760E+02  0.00000000000E+00 0.  1.
         11    1    4    4    0    0 -0.81890075759E+01 -0.66766102814E+01  0.15613872007E+02  0.18852850428E+02  0.51100000000E-03 0. -1.
        -11    1    4    4    0    0 -0.76750000328E+01  0.22367986165E+01  0.10889262340E+02  0.13508698239E+02  0.51100000000E-03 0.  1.
         12    1    4    4    0    0  0.31745824521E+01 -0.69188514768E+01  0.13416569787E+02  0.15425719573E+02  0.00000000000E+00 0. -1.
</event>
<event>
 8    1  0.5542925E-011  0.9118800E+02  0.7816164E-02  0.1184000E+00
        -11   -1    0    0    0    0  0.00000000000E+00  0.00000000000E+00  0.45593999997E+02  0.45594000000E+02  0.51100000000E-03 0. -1.
         11   -1    0    0    0    0 -0.00000000000E+00 -0.00000000000E+00 -0.45593999997E+02  0.45594000000E+02  0.51100000000E-03 0.  1.
         23    2    1    2    0    0  0.00000000000E+00 -0.35527136788E-14  0.00000000000E+00  0.91188000000E+02  0.91188000000E+02 0.  0.
    9900012    2    3    3    0    0  0.85228282799E+01 -0.27435151755E+02 -0.32531482947E+02  0.47787268019E+02  0.19999986207E+02 0.  0.
         12    1    3    3    0    0 -0.85228282799E+01  0.27435151755E+02  0.32531482947E+02  0.43400731981E+02  0.00000000000E+00 0. -1.
         11    1    4    4    0    0  0.99492534223E+01 -0.93148229697E+01 -0.86238097871E+01  0.16128349764E+02  0.51100000000E-03 0. -1.
        -11    1    4    4    0    0  0.27928937708E+01 -0.15410421523E+02 -0.16890279114E+02  0.23033950506E+02  0.51100000000E-03 0.  1.
        -12    1    4    4    0    0 -0.42193189132E+01 -0.27099072629E+01 -0.70173940464E+01  0.86249677487E+01  0.00000000000E+00 0.  1.
</event>
<event>
 8    1  0.5542925E-011  0.9118800E+02  0.7816164E-02  0.1184000E+00
        -11   -1    0    0    0    0  0.00000000000E+00  0.00000000000E+00  0.45593999997E+02  0.45594000000E+02  0.51100000000E-03 0. -1.
         11   -1    0    0    0    0 -0.00000000000E+00 -0.00000000000E+00 -0.45593999997E+02  0.45594000000E+02  0.51100000000E-03 0.  1.
         23    2    1    2    0    0  0.00000000000E+00  0.17763568394E-14 -0.71054273576E-14  0.91188000000E+02  0.91188000000E+02 0.  0.
    9900012    2    3    3    0    0  0.42702296488E+01 -0.11082314352E+02  0.41744111487E+02  0.47787269632E+02  0.19999993561E+02 0.  0.
        -12    1    3    3    0    0 -0.42702296488E+01  0.11082314352E+02 -0.41744111487E+02  0.43400730368E+02  0.00000000000E+00 0.  1.
         11    1    4    4    0    0  0.16486987188E+01  0.46666999603E+01  0.28575455542E+01  0.57150558038E+01  0.51100000000E-03 0.  1.
        -11    1    4    4    0    0 -0.27545918455E-01 -0.16307913425E+01  0.29462119704E+01  0.33675516946E+01  0.51100000000E-03 0. -1.
        -12    1    4    4    0    0  0.26490768484E+01 -0.14118222970E+02  0.35940353962E+02  0.38704662134E+02  0.00000000000E+00 0.  1.
</event>
<event>
 8    1  0.5542925E-011  0.9118800E+02  0.7816164E-02  0.1184000E+00
        -11   -1    0    0    0    0  0.00000000000E+00  0.00000000000E+00  0.45593999997E+02  0.45594000000E+02  0.51100000000E-03 0. -1.
         11   -1    0    0    0    0 -0.00000000000E+00 -0.00000000000E+00 -0.45593999997E+02  0.45594000000E+02  0.51100000000E-03 0.  1.
         23    2    1    2    0    0 -0.35527136788E-14  0.00000000000E+00  0.00000000000E+00  0.91188000000E+02  0.91188000000E+02 0.  0.
    9900012    2    3    3    0    0 -0.24006489049E+02 -0.28095563537E+02  0.22758535781E+02  0.47787272381E+02  0.20000006096E+02 0.  0.
        -12    1    3    3    0    0  0.24006489049E+02  0.28095563537E+02 -0.22758535781E+02  0.43400727619E+02  0.00000000000E+00 0.  1.
         11    1    4    4    0    0 -0.78831702883E+01 -0.55217372906E+01  0.11017980820E+01  0.96875133948E+01  0.51100000000E-03 0. -1.
        -11    1    4    4    0    0 -0.42001736622E+01 -0.14162435719E+02  0.42198414753E+01  0.15363043534E+02  0.51100000000E-03 0.  1.
        -12    1    4    4    0    0 -0.11923145099E+02 -0.84113905267E+01  0.17436896224E+02  0.22736715452E+02  0.00000000000E+00 0.  1.
</event>
<event>
 8    1  0.5542925E-011  0.9118800E+02  0.7816164E-02  0.1184000E+00
        -11   -1    0    0    0    0  0.00000000000E+00  0.00000000000E+00  0.45593999997E+02  0.45594000000E+02  0.51100000000E-03 0. -1.
         11   -1    0    0    0    0 -0.00000000000E+00 -0.00000000000E+00 -0.45593999997E+02  0.45594000000E+02  0.51100000000E-03 0.  1.
         23    2    1    2    0    0  0.00000000000E+00 -0.88817841970E-15  0.00000000000E+00  0.91188000000E+02  0.91188000000E+02 0.  0.
    9900012    2    3    3    0    0  0.17003446164E+02 -0.73897803881E+01 -0.39241522933E+02  0.47787272382E+02  0.20000006100E+02 0.  0.
         12    1    3    3    0    0 -0.17003446164E+02  0.73897803881E+01  0.39241522933E+02  0.43400727618E+02  0.00000000000E+00 0. -1.
         11    1    4    4    0    0  0.70974780618E+01 -0.42153253026E+01 -0.50679150159E+01  0.96864299467E+01  0.51100000000E-03 0. -1.
        -11    1    4    4    0    0  0.12800112493E+02 -0.40358955571E+01 -0.24109185224E+02  0.27593190196E+02  0.51100000000E-03 0.  1.
        -12    1    4    4    0    0 -0.28941443907E+01  0.86144047157E+00 -0.10064422693E+02  0.10507652239E+02  0.00000000000E+00 0.  1.
</event>
<event>
 8    1  0.5542925E-011  0.9118800E+02  0.7816164E-02  0.1184000E+00
        -11   -1    0    0    0    0  0.00000000000E+00  0.00000000000E+00  0.45593999997E+02  0.45594000000E+02  0.51100000000E-03 0. -1.
         11   -1    0    0    0    0 -0.00000000000E+00 -0.00000000000E+00 -0.45593999997E+02  0.45594000000E+02  0.51100000000E-03 0.  1.
         23    2    1    2    0    0  0.00000000000E+00  0.00000000000E+00  0.35527136788E-14  0.91188000000E+02  0.91188000000E+02 0.  0.
    9900012    2    3    3    0    0 -0.18684108377E+02 -0.31094341993E+02 -0.23825810216E+02  0.47787271409E+02  0.20000001660E+02 0.  0.
         12    1    3    3    0    0  0.18684108377E+02  0.31094341993E+02  0.23825810216E+02  0.43400728591E+02  0.00000000000E+00 0. -1.
         11    1    4    4    0    0 -0.12805037172E+01 -0.86749863393E+01  0.37768953482E+00  0.87771138425E+01  0.51100000000E-03 0. -1.
        -11    1    4    4    0    0 -0.11628819202E+02 -0.18632932981E+02 -0.12102801356E+02  0.25077747674E+02  0.51100000000E-03 0.  1.
         12    1    4    4    0    0 -0.57747854584E+01 -0.37864226727E+01 -0.12100698395E+02  0.13932409892E+02  0.00000000000E+00 0. -1.
</event>
<event>
 8    1  0.5542925E-011  0.9118800E+02  0.7816164E-02  0.1184000E+00
        -11   -1    0    0    0    0  0.00000000000E+00  0.00000000000E+00  0.45593999997E+02  0.45594000000E+02  0.51100000000E-03 0. -1.
         11   -1    0    0    0    0 -0.00000000000E+00 -0.00000000000E+00 -0.45593999997E+02  0.45594000000E+02  0.51100000000E-03 0.  1.
         23    2    1    2    0    0 -0.35527136788E-14  0.00000000000E+00  0.17763568394E-14  0.91188000000E+02  0.91188000000E+02 0.  0.
    9900012    2    3    3    0    0 -0.28800149581E+02  0.30802284597E+02  0.10266164527E+02  0.47787268596E+02  0.19999988838E+02 0.  0.
        -12    1    3    3    0    0  0.28800149581E+02 -0.30802284597E+02 -0.10266164527E+02  0.43400731404E+02  0.00000000000E+00 0.  1.
         11    1    4    4    0    0 -0.77041218254E+01  0.17810809273E+01  0.33435247004E+01  0.85851557967E+01  0.51100000000E-03 0. -1.
        -11    1    4    4    0    0 -0.17027838272E+02  0.17568038823E+02  0.10363252607E+02  0.26570289218E+02  0.51100000000E-03 0.  1.
        -12    1    4    4    0    0 -0.40681894836E+01  0.11453164847E+02 -0.34406127802E+01  0.12631823581E+02  0.00000000000E+00 0.  1.
</event>
<event>
 8    1  0.5542925E-011  0.9118800E+02  0.7816164E-02  0.1184000E+00
        -11   -1    0    0    0    0  0.00000000000E+00  0.00000000000E+00  0.45593999997E+02  0.45594000000E+02  0.51100000000E-03 0. -1.
         11   -1    0    0    0    0 -0.00000000000E+00 -0.00000000000E+00 -0.45593999997E+02  0.45594000000E+02  0.51100000000E-03 0.  1.
         23    2    1    2    0    0  0.00000000000E+00  0.83266726847E-16  0.00000000000E+00  0.91188000000E+02  0.91188000000E+02 0.  0.
    9900012    2    3    3    0    0 -0.35881087949E+02  0.13531889807E+00 -0.24416235829E+02  0.47787270102E+02  0.19999995703E+02 0.  0.
         12    1    3    3    0    0  0.35881087949E+02 -0.13531889807E+00  0.24416235829E+02  0.43400729898E+02  0.00000000000E+00 0. -1.
         11    1    4    4    0    0 -0.72760516030E+01 -0.55176396906E+01 -0.34201206044E+01  0.97510255817E+01  0.51100000000E-03 0. -1.
        -11    1    4    4    0    0 -0.69840131577E+01 -0.16025870583E+01 -0.11017739572E+02  0.13142880605E+02  0.51100000000E-03 0.  1.
         12    1    4    4    0    0 -0.21621023189E+02  0.72555456469E+01 -0.99783756526E+01  0.24893363915E+02  0.00000000000E+00 0. -1.
</event>
<event>
 8    1  0.5542925E-011  0.9118800E+02  0.7816164E-02  0.1184000E+00
        -11   -1    0    0    0    0  0.00000000000E+00  0.00000000000E+00  0.45593999997E+02  0.45594000000E+02  0.51100000000E-03 0. -1.
         11   -1    0    0    0    0 -0.00000000000E+00 -0.00000000000E+00 -0.45593999997E+02  0.45594000000E+02  0.51100000000E-03 0.  1.
         23    2    1    2    0    0  0.00000000000E+00  0.00000000000E+00  0.00000000000E+00  0.91188000000E+02  0.91188000000E+02 0.  0.
    9900012    2    3    3    0    0  0.97417583266E+01 -0.24661629880E+02 -0.34358763793E+02  0.47787280041E+02  0.20000041017E+02 0.  0.
         12    1    3    3    0    0 -0.97417583266E+01  0.24661629880E+02  0.34358763793E+02  0.43400719959E+02  0.00000000000E+00 0. -1.
         11    1    4    4    0    0  0.89746636019E+00 -0.58165427157E+01 -0.91481446281E+01  0.10877783112E+02  0.51100000000E-03 0. -1.
        -11    1    4    4    0    0  0.29125590278E+01 -0.89886870525E+01 -0.23436904988E+02  0.25269903259E+02  0.51100000000E-03 0.  1.
         12    1    4    4    0    0  0.59317329386E+01 -0.98564001118E+01 -0.17737141764E+01  0.11639593670E+02  0.00000000000E+00 0. -1.
</event>
<event>
 8    1  0.5542925E-011  0.9118800E+02  0.7816164E-02  0.1184000E+00
        -11   -1    0    0    0    0  0.00000000000E+00  0.00000000000E+00  0.45593999997E+02  0.45594000000E+02  0.51100000000E-03 0. -1.
         11   -1    0    0    0    0 -0.00000000000E+00 -0.00000000000E+00 -0.45593999997E+02  0.45594000000E+02  0.51100000000E-03 0.  1.
         23    2    1    2    0    0  0.00000000000E+00 -0.35527136788E-14  0.35527136788E-14  0.91188000000E+02  0.91188000000E+02 0.  0.
    9900012    2    3    3    0    0  0.29965480458E+02 -0.24226204209E+02  0.19969580635E+02  0.47787272585E+02  0.20000007023E+02 0.  0.
        -12    1    3    3    0    0 -0.29965480458E+02  0.24226204209E+02 -0.19969580635E+02  0.43400727415E+02  0.00000000000E+00 0.  1.
         11    1    4    4    0    0  0.16239239142E+02 -0.16565476149E+02  0.79984882219E+01  0.24537801492E+02  0.51100000000E-03 0. -1.
        -11    1    4    4    0    0  0.10578892367E+02 -0.66075036672E+01  0.18639492940E+01  0.12611358993E+02  0.51100000000E-03 0.  1.
        -12    1    4    4    0    0  0.31473489486E+01 -0.10532243934E+01  0.10107143119E+02  0.10638112100E+02  0.00000000000E+00 0.  1.
</event>
<event>
 8    1  0.5542925E-011  0.9118800E+02  0.7816164E-02  0.1184000E+00
        -11   -1    0    0    0    0  0.00000000000E+00  0.00000000000E+00  0.45593999997E+02  0.45594000000E+02  0.51100000000E-03 0. -1.
         11   -1    0    0    0    0 -0.00000000000E+00 -0.00000000000E+00 -0.45593999997E+02  0.45594000000E+02  0.51100000000E-03 0.  1.
         23    2    1    2    0    0  0.00000000000E+00  0.00000000000E+00  0.00000000000E+00  0.91188000000E+02  0.91188000000E+02 0.  0.
    9900012    2    3    3    0    0  0.36271416480E+02  0.12511171381E+02  0.20284928719E+02  0.47787269639E+02  0.19999993590E+02 0.  0.
        -12    1    3    3    0    0 -0.36271416480E+02 -0.12511171381E+02 -0.20284928719E+02  0.43400730361E+02  0.00000000000E+00 0.  1.
         11    1    4    4    0    0  0.21683179549E+02  0.41235651728E+01  0.21427389374E+02  0.30761942083E+02  0.51100000000E-03 0.  1.
        -11    1    4    4    0    0  0.51241658962E+01  0.23505522327E+01  0.58392485306E+00  0.56677279774E+01  0.51100000000E-03 0. -1.
        -12    1    4    4    0    0  0.94640710347E+01  0.60370539755E+01 -0.17263855081E+01  0.11357599578E+02  0.00000000000E+00 0.  1.
</event>
<event>
 8    1  0.6065005E-011  0.9118800E+02  0.7816164E-02  0.1184000E+00
        -11   -1    0    0    0    0  0.00000000000E+00  0.00000000000E+00  0.45593999997E+02  0.45594000000E+02  0.51100000000E-03 0. -1.
         11   -1    0    0    0    0 -0.00000000000E+00 -0.00000000000E+00 -0.45593999997E+02  0.45594000000E+02  0.51100000000E-03 0.  1.
         23    2    1    2    0    0 -0.88817841970E-15  0.00000000000E+00 -0.71054273576E-14  0.91188000000E+02  0.91188000000E+02 0.  0.
    9900012    2    3    3    0    0  0.77052081522E+01  0.80047827161E+01  0.41954455987E+02  0.47787272401E+02  0.20000006185E+02 0.  0.
        -12    1    3    3    0    0 -0.77052081522E+01 -0.80047827161E+01 -0.41954455987E+02  0.43400727599E+02  0.00000000000E+00 0.  1.
         11    1    4    4    0    0 -0.32913481711E+00  0.14632354460E+01  0.43653854342E-01  0.15004311441E+01  0.51100000000E-03 0. -1.
        -11    1    4    4    0    0  0.39289376877E+01 -0.20674829091E+01  0.13804593149E+01  0.46493768522E+01  0.51100000000E-03 0.  1.
         12    1    4    4    0    0  0.41054052816E+01  0.86090301793E+01  0.40530342817E+02  0.41637464405E+02  0.00000000000E+00 0. -1.
</event>
<event>
 8    1  0.5542925E-011  0.9118800E+02  0.7816164E-02  0.1184000E+00
        -11   -1    0    0    0    0  0.00000000000E+00  0.00000000000E+00  0.45593999997E+02  0.45594000000E+02  0.51100000000E-03 0.  1.
         11   -1    0    0    0    0 -0.00000000000E+00 -0.00000000000E+00 -0.45593999997E+02  0.45594000000E+02  0.51100000000E-03 0. -1.
         23    2    1    2    0    0  0.00000000000E+00 -0.88817841970E-15  0.00000000000E+00  0.91188000000E+02  0.91188000000E+02 0.  0.
    9900012    2    3    3    0    0 -0.39039903762E+02  0.57146609723E+01  0.18079043830E+02  0.47787271186E+02  0.20000000646E+02 0.  0.
        -12    1    3    3    0    0  0.39039903762E+02 -0.57146609723E+01 -0.18079043830E+02  0.43400728814E+02  0.00000000000E+00 0.  1.
         11    1    4    4    0    0  0.25995999708E+00 -0.68357643355E+00  0.36818803656E+00  0.81879095743E+00  0.51100000000E-03 0. -1.
        -11    1    4    4    0    0 -0.18859074195E+02  0.96842523727E+01  0.26468614507E+01  0.21364814516E+02  0.51100000000E-03 0.  1.
         12    1    4    4    0    0 -0.20440789564E+02 -0.32860149669E+01  0.15063994342E+02  0.25603665713E+02  0.00000000000E+00 0. -1.
</event>
<event>
 8    1  0.5542925E-011  0.9118800E+02  0.7816164E-02  0.1184000E+00
        -11   -1    0    0    0    0  0.00000000000E+00  0.00000000000E+00  0.45593999997E+02  0.45594000000E+02  0.51100000000E-03 0.  1.
         11   -1    0    0    0    0 -0.00000000000E+00 -0.00000000000E+00 -0.45593999997E+02  0.45594000000E+02  0.51100000000E-03 0. -1.
         23    2    1    2    0    0  0.88817841970E-15  0.71054273576E-14  0.00000000000E+00  0.91188000000E+02  0.91188000000E+02 0.  0.
    9900012    2    3    3    0    0 -0.40976891817E+01  0.42805871452E+02  0.58727566347E+01  0.47787274685E+02  0.20000016597E+02 0.  0.
         12    1    3    3    0    0  0.40976891817E+01 -0.42805871452E+02 -0.58727566347E+01  0.43400725315E+02  0.00000000000E+00 0. -1.
         11    1    4    4    0    0 -0.56298061145E+01  0.17269164904E+02 -0.35854908701E+01  0.18514170746E+02  0.51100000000E-03 0. -1.
        -11    1    4    4    0    0 -0.38490953041E+01  0.43790765383E+01  0.26555812401E+01  0.64065558588E+01  0.51100000000E-03 0.  1.
         12    1    4    4    0    0  0.53812122369E+01  0.21157630010E+02  0.68026662647E+01  0.22866548079E+02  0.00000000000E+00 0. -1.
</event>
<event>
 8    1  0.5542925E-011  0.9118800E+02  0.7816164E-02  0.1184000E+00
        -11   -1    0    0    0    0  0.00000000000E+00  0.00000000000E+00  0.45593999997E+02  0.45594000000E+02  0.51100000000E-03 0. -1.
         11   -1    0    0    0    0 -0.00000000000E+00 -0.00000000000E+00 -0.45593999997E+02  0.45594000000E+02  0.51100000000E-03 0.  1.
         23    2    1    2    0    0  0.00000000000E+00  0.00000000000E+00  0.00000000000E+00  0.91188000000E+02  0.91188000000E+02 0.  0.
    9900012    2    3    3    0    0  0.55084928873E+01 -0.68118432943E+01 -0.42507366139E+02  0.47787298634E+02  0.20000125793E+02 0.  0.
         12    1    3    3    0    0 -0.55084928873E+01  0.68118432943E+01  0.42507366139E+02  0.43400701366E+02  0.00000000000E+00 0. -1.
         11    1    4    4    0    0 -0.12153702979E+00  0.55594549539E+00 -0.10146122960E+02  0.10162069574E+02  0.51100000000E-03 0.  1.
        -11    1    4    4    0    0  0.93748419153E+01  0.15614236808E+01 -0.16548109244E+02  0.19083124081E+02  0.51100000000E-03 0. -1.
         12    1    4    4    0    0 -0.37448119982E+01 -0.89292124705E+01 -0.15813133934E+02  0.18542104980E+02  0.00000000000E+00 0. -1.
</event>
<event>
 8    1  0.5542925E-011  0.9118800E+02  0.7816164E-02  0.1184000E+00
        -11   -1    0    0    0    0  0.00000000000E+00  0.00000000000E+00  0.45593999997E+02  0.45594000000E+02  0.51100000000E-03 0. -1.
         11   -1    0    0    0    0 -0.00000000000E+00 -0.00000000000E+00 -0.45593999997E+02  0.45594000000E+02  0.51100000000E-03 0.  1.
         23    2    1    2    0    0  0.00000000000E+00  0.00000000000E+00  0.35527136788E-14  0.91188000000E+02  0.91188000000E+02 0.  0.
    9900012    2    3    3    0    0 -0.28963515301E+02 -0.60787625847E+01 -0.31745676936E+02  0.47787256028E+02  0.19999931536E+02 0.  0.
         12    1    3    3    0    0  0.28963515301E+02  0.60787625847E+01  0.31745676936E+02  0.43400743972E+02  0.00000000000E+00 0. -1.
         11    1    4    4    0    0 -0.27537636545E+01 -0.44867400892E+01 -0.24685037034E-01  0.52644715314E+01  0.51100000000E-03 0. -1.
        -11    1    4    4    0    0 -0.17740626331E+01 -0.16965295284E+00 -0.88357131491E+01  0.90136511728E+01  0.51100000000E-03 0.  1.
        -12    1    4    4    0    0 -0.24435689013E+02 -0.14223695426E+01 -0.22885278750E+02  0.33509133324E+02  0.00000000000E+00 0.  1.
</event>
<event>
 8    1  0.5542925E-011  0.9118800E+02  0.7816164E-02  0.1184000E+00
        -11   -1    0    0    0    0  0.00000000000E+00  0.00000000000E+00  0.45593999997E+02  0.45594000000E+02  0.51100000000E-03 0.  1.
         11   -1    0    0    0    0 -0.00000000000E+00 -0.00000000000E+00 -0.45593999997E+02  0.45594000000E+02  0.51100000000E-03 0. -1.
         23    2    1    2    0    0  0.00000000000E+00  0.00000000000E+00  0.00000000000E+00  0.91188000000E+02  0.91188000000E+02 0.  0.
    9900012    2    3    3    0    0  0.39954363436E+02 -0.16844644593E+02 -0.18788085601E+01  0.47787272695E+02  0.20000007524E+02 0.  0.
         12    1    3    3    0    0 -0.39954363436E+02  0.16844644593E+02  0.18788085601E+01  0.43400727305E+02  0.00000000000E+00 0. -1.
         11    1    4    4    0    0  0.98797951599E+01 -0.13064555561E+02 -0.16191418653E+01  0.16459483134E+02  0.51100000000E-03 0. -1.
        -11    1    4    4    0    0  0.55419546128E+01 -0.32183310053E+01 -0.20366301535E+01  0.67244909126E+01  0.51100000000E-03 0.  1.
        -12    1    4    4    0    0  0.24532613663E+02 -0.56175802667E+00  0.17769634586E+01  0.24603298648E+02  0.00000000000E+00 0.  1.
</event>
<event>
 8    1  0.5542925E-011  0.9118800E+02  0.7816164E-02  0.1184000E+00
        -11   -1    0    0    0    0  0.00000000000E+00  0.00000000000E+00  0.45593999997E+02  0.45594000000E+02  0.51100000000E-03 0. -1.
         11   -1    0    0    0    0 -0.00000000000E+00 -0.00000000000E+00 -0.45593999997E+02  0.45594000000E+02  0.51100000000E-03 0.  1.
         23    2    1    2    0    0 -0.17763568394E-14  0.17763568394E-14 -0.71054273576E-14  0.91188000000E+02  0.91188000000E+02 0.  0.
    9900012    2    3    3    0    0 -0.13525741983E+02  0.63655963545E+01 -0.40745045991E+02  0.47787247864E+02  0.19999894311E+02 0.  0.
         12    1    3    3    0    0  0.13525741983E+02 -0.63655963545E+01  0.40745045991E+02  0.43400752136E+02  0.00000000000E+00 0. -1.
         11    1    4    4    0    0 -0.55746922905E+01  0.76140146617E+01 -0.18078231235E+02  0.20392960997E+02  0.51100000000E-03 0. -1.
        -11    1    4    4    0    0 -0.63231512995E+01  0.27672140915E+01 -0.21940794683E+02  0.23000830154E+02  0.51100000000E-03 0.  1.
        -12    1    4    4    0    0 -0.16278983934E+01 -0.40156323987E+01 -0.72602007323E+00  0.43934567128E+01  0.00000000000E+00 0.  1.
</event>
<event>
 8    1  0.5542925E-011  0.9118800E+02  0.7816164E-02  0.1184000E+00
        -11   -1    0    0    0    0  0.00000000000E+00  0.00000000000E+00  0.45593999997E+02  0.45594000000E+02  0.51100000000E-03 0. -1.
         11   -1    0    0    0    0 -0.00000000000E+00 -0.00000000000E+00 -0.45593999997E+02  0.45594000000E+02  0.51100000000E-03 0.  1.
         23    2    1    2    0    0  0.00000000000E+00  0.00000000000E+00  0.00000000000E+00  0.91188000000E+02  0.91188000000E+02 0.  0.
    9900012    2    3    3    0    0  0.19905246190E+02 -0.31050097939E+02  0.22875670941E+02  0.47787265802E+02  0.19999976098E+02 0.  0.
        -12    1    3    3    0    0 -0.19905246190E+02  0.31050097939E+02 -0.22875670941E+02  0.43400734198E+02  0.00000000000E+00 0.  1.
         11    1    4    4    0    0  0.58442481821E+01  0.34708502665E+00  0.49111163688E+01  0.76416470135E+01  0.51100000000E-03 0.  1.
        -11    1    4    4    0    0 -0.19454360733E+00 -0.22323842474E+00  0.25385599860E+01  0.25557718351E+01  0.51100000000E-03 0. -1.
         12    1    4    4    0    0  0.14255541616E+02 -0.31173944541E+02  0.15425994586E+02  0.37589846953E+02  0.00000000000E+00 0. -1.
</event>
<event>
 8    1  0.5542925E-011  0.9118800E+02  0.7816164E-02  0.1184000E+00
        -11   -1    0    0    0    0  0.00000000000E+00  0.00000000000E+00  0.45593999997E+02  0.45594000000E+02  0.51100000000E-03 0. -1.
         11   -1    0    0    0    0 -0.00000000000E+00 -0.00000000000E+00 -0.45593999997E+02  0.45594000000E+02  0.51100000000E-03 0.  1.
         23    2    1    2    0    0  0.00000000000E+00 -0.35527136788E-14  0.00000000000E+00  0.91188000000E+02  0.91188000000E+02 0.  0.
    9900012    2    3    3    0    0  0.22357132138E+02  0.18356121827E+02  0.32354836459E+02  0.47787262584E+02  0.19999961425E+02 0.  0.
        -12    1    3    3    0    0 -0.22357132138E+02 -0.18356121827E+02 -0.32354836459E+02  0.43400737416E+02  0.00000000000E+00 0.  1.
         11    1    4    4    0    0  0.54143930377E+01 -0.22574772005E+01  0.44610996162E+01  0.73697534100E+01  0.51100000000E-03 0. -1.
        -11    1    4    4    0    0  0.93219017049E+01  0.37558729663E+01  0.58100396005E+01  0.11608660283E+02  0.51100000000E-03 0.  1.
         12    1    4    4    0    0  0.76208373954E+01  0.16857726061E+02  0.22083697243E+02  0.28808848891E+02  0.00000000000E+00 0. -1.
</event>
<event>
 8    1  0.5542925E-011  0.9118800E+02  0.7816164E-02  0.1184000E+00
        -11   -1    0    0    0    0  0.00000000000E+00  0.00000000000E+00  0.45593999997E+02  0.45594000000E+02  0.51100000000E-03 0. -1.
         11   -1    0    0    0    0 -0.00000000000E+00 -0.00000000000E+00 -0.45593999997E+02  0.45594000000E+02  0.51100000000E-03 0.  1.
         23    2    1    2    0    0  0.88817841970E-15  0.17763568394E-14  0.00000000000E+00  0.91188000000E+02  0.91188000000E+02 0.  0.
    9900012    2    3    3    0    0 -0.36618767764E+01 -0.91733427205E+01 -0.42261799951E+02  0.47787316903E+02  0.20000209087E+02 0.  0.
         12    1    3    3    0    0  0.36618767764E+01  0.91733427205E+01  0.42261799951E+02  0.43400683097E+02  0.00000000000E+00 0. -1.
         11    1    4    4    0    0 -0.58030235269E+01 -0.50453630731E+01 -0.70683570232E+01  0.10444732733E+02  0.51100000000E-03 0. -1.
        -11    1    4    4    0    0 -0.38362967438E+01 -0.16630408709E+01 -0.24439171929E+02  0.24794273583E+02  0.51100000000E-03 0.  1.
         12    1    4    4    0    0  0.59774434943E+01 -0.24649387765E+01 -0.10754270998E+02  0.12548310588E+02  0.00000000000E+00 0. -1.
</event>
<event>
 8    1  0.5542925E-011  0.9118800E+02  0.7816164E-02  0.1184000E+00
        -11   -1    0    0    0    0  0.00000000000E+00  0.00000000000E+00  0.45593999997E+02  0.45594000000E+02  0.51100000000E-03 0. -1.
         11   -1    0    0    0    0 -0.00000000000E+00 -0.00000000000E+00 -0.45593999997E+02  0.45594000000E+02  0.51100000000E-03 0.  1.
         23    2    1    2    0    0  0.88817841970E-15  0.00000000000E+00  0.00000000000E+00  0.91188000000E+02  0.91188000000E+02 0.  0.
    9900012    2    3    3    0    0 -0.73344434860E+01 -0.41287436687E+01 -0.42576785391E+02  0.47787271438E+02  0.20000001793E+02 0.  0.
         12    1    3    3    0    0  0.73344434860E+01  0.41287436687E+01  0.42576785391E+02  0.43400728562E+02  0.00000000000E+00 0. -1.
         11    1    4    4    0    0 -0.73169423878E+01  0.22224669677E+01 -0.18061055477E+02  0.19613228458E+02  0.51100000000E-03 0. -1.
        -11    1    4    4    0    0  0.11756988022E+01  0.27084176962E+01 -0.13701726988E+02  0.14016244747E+02  0.51100000000E-03 0.  1.
         12    1    4    4    0    0 -0.11931999005E+01 -0.90596283326E+01 -0.10814002926E+02  0.14157798233E+02  0.00000000000E+00 0. -1.
</event>
<event>
 8    1  0.5542925E-011  0.9118800E+02  0.7816164E-02  0.1184000E+00
        -11   -1    0    0    0    0  0.00000000000E+00  0.00000000000E+00  0.45593999997E+02  0.45594000000E+02  0.51100000000E-03 0. -1.
         11   -1    0    0    0    0 -0.00000000000E+00 -0.00000000000E+00 -0.45593999997E+02  0.45594000000E+02  0.51100000000E-03 0.  1.
         23    2    1    2    0    0  0.00000000000E+00  0.00000000000E+00  0.00000000000E+00  0.91188000000E+02  0.91188000000E+02 0.  0.
    9900012    2    3    3    0    0  0.19792222307E+02 -0.25942055842E+02 -0.28616446353E+02  0.47787270432E+02  0.19999997207E+02 0.  0.
         12    1    3    3    0    0 -0.19792222307E+02  0.25942055842E+02  0.28616446353E+02  0.43400729568E+02  0.00000000000E+00 0. -1.
         11    1    4    4    0    0 -0.80243080433E+00 -0.57544171866E+01 -0.50158612707E+01  0.76756808754E+01  0.51100000000E-03 0. -1.
        -11    1    4    4    0    0  0.10102259435E+02 -0.17887811282E+02 -0.10196646129E+02  0.22934712352E+02  0.51100000000E-03 0.  1.
         12    1    4    4    0    0  0.10492393677E+02 -0.22998273733E+01 -0.13403938954E+02  0.17176877204E+02  0.00000000000E+00 0. -1.
</event>
<event>
 8    1  0.5542925E-011  0.9118800E+02  0.7816164E-02  0.1184000E+00
        -11   -1    0    0    0    0  0.00000000000E+00  0.00000000000E+00  0.45593999997E+02  0.45594000000E+02  0.51100000000E-03 0. -1.
         11   -1    0    0    0    0 -0.00000000000E+00 -0.00000000000E+00 -0.45593999997E+02  0.45594000000E+02  0.51100000000E-03 0.  1.
         23    2    1    2    0    0  0.44408920985E-15  0.17763568394E-14  0.00000000000E+00  0.91188000000E+02  0.91188000000E+02 0.  0.
    9900012    2    3    3    0    0  0.39482817071E+01  0.80018423818E+01 -0.42473575945E+02  0.47787273468E+02  0.20000011050E+02 0.  0.
         12    1    3    3    0    0 -0.39482817071E+01 -0.80018423818E+01  0.42473575945E+02  0.43400726532E+02  0.00000000000E+00 0. -1.
         11    1    4    4    0    0 -0.43029292873E+01 -0.13224290229E+01 -0.10240247061E+02  0.11186003714E+02  0.51100000000E-03 0. -1.
        -11    1    4    4    0    0  0.93796273930E-01  0.52557422118E+01 -0.31621276574E+01  0.61343846896E+01  0.51100000000E-03 0.  1.
        -12    1    4    4    0    0  0.81574147205E+01  0.40685291929E+01 -0.29071201227E+02  0.30466885064E+02  0.00000000000E+00 0.  1.
</event>
<event>
 8    1  0.5542925E-011  0.9118800E+02  0.7816164E-02  0.1184000E+00
        -11   -1    0    0    0    0  0.00000000000E+00  0.00000000000E+00  0.45593999997E+02  0.45594000000E+02  0.51100000000E-03 0.  1.
         11   -1    0    0    0    0 -0.00000000000E+00 -0.00000000000E+00 -0.45593999997E+02  0.45594000000E+02  0.51100000000E-03 0. -1.
         23    2    1    2    0    0  0.13322676296E-14  0.00000000000E+00  0.00000000000E+00  0.91188000000E+02  0.91188000000E+02 0.  0.
    9900012    2    3    3    0    0  0.36461822675E+01 -0.35792108487E+02  0.24274547540E+02  0.47787270359E+02  0.19999996875E+02 0.  0.
        -12    1    3    3    0    0 -0.36461822675E+01  0.35792108487E+02 -0.24274547540E+02  0.43400729641E+02  0.00000000000E+00 0.  1.
         11    1    4    4    0    0  0.45456422741E+01 -0.55647902544E+01  0.28584452201E+01  0.77330759466E+01  0.51100000000E-03 0. -1.
        -11    1    4    4    0    0  0.65596117970E+01 -0.86831164816E+01  0.88153189857E+01  0.14004815880E+02  0.51100000000E-03 0.  1.
        -12    1    4    4    0    0 -0.74590718037E+01 -0.21544201751E+02  0.12600783334E+02  0.26049378532E+02  0.00000000000E+00 0.  1.
</event>
<event>
 8    1  0.5542925E-011  0.9118800E+02  0.7816164E-02  0.1184000E+00
        -11   -1    0    0    0    0  0.00000000000E+00  0.00000000000E+00  0.45593999997E+02  0.45594000000E+02  0.51100000000E-03 0. -1.
         11   -1    0    0    0    0 -0.00000000000E+00 -0.00000000000E+00 -0.45593999997E+02  0.45594000000E+02  0.51100000000E-03 0.  1.
         23    2    1    2    0    0 -0.88817841970E-15 -0.35527136788E-14  0.00000000000E+00  0.91188000000E+02  0.91188000000E+02 0.  0.
    9900012    2    3    3    0    0 -0.75963400629E+01 -0.17777084539E+02  0.38857351973E+02  0.47787275128E+02  0.20000018619E+02 0.  0.
        -12    1    3    3    0    0  0.75963400629E+01  0.17777084539E+02 -0.38857351973E+02  0.43400724872E+02  0.00000000000E+00 0.  1.
         11    1    4    4    0    0 -0.85804225154E+01 -0.63694185410E+01  0.18264008866E+02  0.21160509522E+02  0.51100000000E-03 0. -1.
        -11    1    4    4    0    0 -0.41191895146E+01 -0.19522012257E+01  0.16489927167E+01  0.48474724469E+01  0.51100000000E-03 0.  1.
        -12    1    4    4    0    0  0.51032719671E+01 -0.94554647720E+01  0.18944350390E+02  0.21779293159E+02  0.00000000000E+00 0.  1.
</event>
<event>
 8    1  0.5542925E-011  0.9118800E+02  0.7816164E-02  0.1184000E+00
        -11   -1    0    0    0    0  0.00000000000E+00  0.00000000000E+00  0.45593999997E+02  0.45594000000E+02  0.51100000000E-03 0. -1.
         11   -1    0    0    0    0 -0.00000000000E+00 -0.00000000000E+00 -0.45593999997E+02  0.45594000000E+02  0.51100000000E-03 0.  1.
         23    2    1    2    0    0  0.00000000000E+00  0.00000000000E+00  0.71054273576E-14  0.91188000000E+02  0.91188000000E+02 0.  0.
    9900012    2    3    3    0    0  0.10198334567E+02  0.26011180388E+02  0.33211978843E+02  0.47787273372E+02  0.20000010613E+02 0.  0.
        -12    1    3    3    0    0 -0.10198334567E+02 -0.26011180388E+02 -0.33211978843E+02  0.43400726628E+02  0.00000000000E+00 0.  1.
         11    1    4    4    0    0 -0.24627172753E+01 -0.18091767304E+01  0.36842080340E+01  0.47865943968E+01  0.51100000000E-03 0.  1.
        -11    1    4    4    0    0  0.93786681155E+01  0.15764658290E+02  0.20946367398E+02  0.27843027386E+02  0.51100000000E-03 0. -1.
        -12    1    4    4    0    0  0.32823837266E+01  0.12055698829E+02  0.85814034113E+01  0.15157651589E+02  0.00000000000E+00 0.  1.
</event>
<event>
 8    1  0.5542925E-011  0.9118800E+02  0.7816164E-02  0.1184000E+00
        -11   -1    0    0    0    0  0.00000000000E+00  0.00000000000E+00  0.45593999997E+02  0.45594000000E+02  0.51100000000E-03 0.  1.
         11   -1    0    0    0    0 -0.00000000000E+00 -0.00000000000E+00 -0.45593999997E+02  0.45594000000E+02  0.51100000000E-03 0. -1.
         23    2    1    2    0    0  0.00000000000E+00  0.00000000000E+00  0.00000000000E+00  0.91188000000E+02  0.91188000000E+02 0.  0.
    9900012    2    3    3    0    0  0.33702371929E+02 -0.23021759132E+02  0.14757102476E+02  0.47787270275E+02  0.19999996491E+02 0.  0.
         12    1    3    3    0    0 -0.33702371929E+02  0.23021759132E+02 -0.14757102476E+02  0.43400729725E+02  0.00000000000E+00 0. -1.
         11    1    4    4    0    0  0.14934416400E+01  0.18964880646E+01 -0.12712836328E+01  0.27282223603E+01  0.51100000000E-03 0. -1.
        -11    1    4    4    0    0  0.34544921063E+01 -0.68537538625E+01  0.57160610255E+01  0.95697863941E+01  0.51100000000E-03 0.  1.
        -12    1    4    4    0    0  0.28754438183E+02 -0.18064493334E+02  0.10312325083E+02  0.35489261520E+02  0.00000000000E+00 0.  1.
</event>
<event>
 8    1  0.5542925E-011  0.9118800E+02  0.7816164E-02  0.1184000E+00
        -11   -1    0    0    0    0  0.00000000000E+00  0.00000000000E+00  0.45593999997E+02  0.45594000000E+02  0.51100000000E-03 0. -1.
         11   -1    0    0    0    0 -0.00000000000E+00 -0.00000000000E+00 -0.45593999997E+02  0.45594000000E+02  0.51100000000E-03 0.  1.
         23    2    1    2    0    0  0.00000000000E+00  0.00000000000E+00  0.00000000000E+00  0.91188000000E+02  0.91188000000E+02 0.  0.
    9900012    2    3    3    0    0 -0.28109832034E+02  0.19262273645E+02 -0.26877971886E+02  0.47787271715E+02  0.20000003059E+02 0.  0.
         12    1    3    3    0    0  0.28109832034E+02 -0.19262273645E+02  0.26877971886E+02  0.43400728285E+02  0.00000000000E+00 0. -1.
         11    1    4    4    0    0 -0.66914963270E+01  0.10901206387E+02 -0.64658093841E+01  0.14332449722E+02  0.51100000000E-03 0. -1.
        -11    1    4    4    0    0 -0.12123300770E+02  0.97786235364E+01 -0.17889416487E+02  0.23719762274E+02  0.51100000000E-03 0.  1.
        -12    1    4    4    0    0 -0.92950349367E+01 -0.14175562786E+01 -0.25227460150E+01  0.97350597190E+01  0.00000000000E+00 0.  1.
</event>
<event>
 8    1  0.5542925E-011  0.9118800E+02  0.7816164E-02  0.1184000E+00
        -11   -1    0    0    0    0  0.00000000000E+00  0.00000000000E+00  0.45593999997E+02  0.45594000000E+02  0.51100000000E-03 0. -1.
         11   -1    0    0    0    0 -0.00000000000E+00 -0.00000000000E+00 -0.45593999997E+02  0.45594000000E+02  0.51100000000E-03 0.  1.
         23    2    1    2    0    0  0.00000000000E+00  0.00000000000E+00  0.00000000000E+00  0.91188000000E+02  0.91188000000E+02 0.  0.
    9900012    2    3    3    0    0 -0.66911530883E+01 -0.27532172639E+02  0.32875999120E+02  0.47787269845E+02  0.19999994532E+02 0.  0.
        -12    1    3    3    0    0  0.66911530883E+01  0.27532172639E+02 -0.32875999120E+02  0.43400730155E+02  0.00000000000E+00 0.  1.
         11    1    4    4    0    0 -0.41520005145E+01 -0.22187875532E+02  0.23987317399E+02  0.32938310903E+02  0.51100000000E-03 0. -1.
        -11    1    4    4    0    0 -0.51652980830E+01 -0.61577451173E+01  0.34331044770E+01  0.87398132604E+01  0.51100000000E-03 0.  1.
         12    1    4    4    0    0  0.26261455092E+01  0.81344801007E+00  0.54555772434E+01  0.61091456817E+01  0.00000000000E+00 0. -1.
</event>
<event>
 8    1  0.5542925E-011  0.9118800E+02  0.7816164E-02  0.1184000E+00
        -11   -1    0    0    0    0  0.00000000000E+00  0.00000000000E+00  0.45593999997E+02  0.45594000000E+02  0.51100000000E-03 0.  1.
         11   -1    0    0    0    0 -0.00000000000E+00 -0.00000000000E+00 -0.45593999997E+02  0.45594000000E+02  0.51100000000E-03 0. -1.
         23    2    1    2    0    0  0.00000000000E+00  0.00000000000E+00  0.00000000000E+00  0.91188000000E+02  0.91188000000E+02 0.  0.
    9900012    2    3    3    0    0 -0.11936660020E+01  0.43106001768E+02 -0.49062184202E+01  0.47787271825E+02  0.20000003557E+02 0.  0.
         12    1    3    3    0    0  0.11936660020E+01 -0.43106001768E+02  0.49062184202E+01  0.43400728175E+02  0.00000000000E+00 0. -1.
         11    1    4    4    0    0 -0.30304994259E+01  0.27946524778E+01  0.18148573150E+01  0.45041887812E+01  0.51100000000E-03 0. -1.
        -11    1    4    4    0    0  0.58443100602E+01  0.76071326869E+01 -0.33552453533E+01  0.10162780104E+02  0.51100000000E-03 0.  1.
        -12    1    4    4    0    0 -0.40074766363E+01  0.32704216604E+02 -0.33658303819E+01  0.33120302940E+02  0.00000000000E+00 0.  1.
</event>
<event>
 8    1  0.5542925E-011  0.9118800E+02  0.7816164E-02  0.1184000E+00
        -11   -1    0    0    0    0  0.00000000000E+00  0.00000000000E+00  0.45593999997E+02  0.45594000000E+02  0.51100000000E-03 0.  1.
         11   -1    0    0    0    0 -0.00000000000E+00 -0.00000000000E+00 -0.45593999997E+02  0.45594000000E+02  0.51100000000E-03 0. -1.
         23    2    1    2    0    0  0.00000000000E+00  0.00000000000E+00 -0.71054273576E-14  0.91188000000E+02  0.91188000000E+02 0.  0.
    9900012    2    3    3    0    0 -0.37825722631E+02 -0.90678786498E+01 -0.19251280604E+02  0.47787268201E+02  0.19999987037E+02 0.  0.
         12    1    3    3    0    0  0.37825722631E+02  0.90678786498E+01  0.19251280604E+02  0.43400731799E+02  0.00000000000E+00 0. -1.
         11    1    4    4    0    0 -0.14055868412E+02 -0.66785638185E+01 -0.10958484226E+02  0.19033103486E+02  0.51100000000E-03 0. -1.
        -11    1    4    4    0    0 -0.18757932949E+02  0.30980260177E+00 -0.11709608066E+02  0.22114948508E+02  0.51100000000E-03 0.  1.
         12    1    4    4    0    0 -0.50119212699E+01 -0.26991174331E+01  0.34168116890E+01  0.66392162076E+01  0.00000000000E+00 0. -1.
</event>
<event>
 8    1  0.5542925E-011  0.9118800E+02  0.7816164E-02  0.1184000E+00
        -11   -1    0    0    0    0  0.00000000000E+00  0.00000000000E+00  0.45593999997E+02  0.45594000000E+02  0.51100000000E-03 0.  1.
         11   -1    0    0    0    0 -0.00000000000E+00 -0.00000000000E+00 -0.45593999997E+02  0.45594000000E+02  0.51100000000E-03 0. -1.
         23    2    1    2    0    0  0.00000000000E+00  0.00000000000E+00  0.88817841970E-15  0.91188000000E+02  0.91188000000E+02 0.  0.
    9900012    2    3    3    0    0 -0.33295666936E+02 -0.27523847662E+02  0.41785380067E+01  0.47787264906E+02  0.19999972014E+02 0.  0.
        -12    1    3    3    0    0  0.33295666936E+02  0.27523847662E+02 -0.41785380067E+01  0.43400735094E+02  0.00000000000E+00 0.  1.
         11    1    4    4    0    0 -0.49317303961E+01 -0.87505625829E+01  0.43844907918E+01  0.10959838958E+02  0.51100000000E-03 0. -1.
        -11    1    4    4    0    0 -0.60620262224E+01 -0.48393532786E+01  0.60019076935E+01  0.98076703808E+01  0.51100000000E-03 0.  1.
         12    1    4    4    0    0 -0.22301910317E+02 -0.13933931800E+02 -0.62078604786E+01  0.27019755568E+02  0.00000000000E+00 0. -1.
</event>
<event>
 8    1  0.5542925E-011  0.9118800E+02  0.7816164E-02  0.1184000E+00
        -11   -1    0    0    0    0  0.00000000000E+00  0.00000000000E+00  0.45593999997E+02  0.45594000000E+02  0.51100000000E-03 0. -1.
         11   -1    0    0    0    0 -0.00000000000E+00 -0.00000000000E+00 -0.45593999997E+02  0.45594000000E+02  0.51100000000E-03 0.  1.
         23    2    1    2    0    0  0.00000000000E+00  0.00000000000E+00  0.00000000000E+00  0.91188000000E+02  0.91188000000E+02 0.  0.
    9900012    2    3    3    0    0  0.15258752270E+02  0.20790116993E+02  0.34907946641E+02  0.47787271617E+02  0.20000002612E+02 0.  0.
        -12    1    3    3    0    0 -0.15258752270E+02 -0.20790116993E+02 -0.34907946641E+02  0.43400728383E+02  0.00000000000E+00 0.  1.
         11    1    4    4    0    0  0.74448763484E+00  0.62025812474E+01  0.13840270966E+02  0.15184840356E+02  0.51100000000E-03 0. -1.
        -11    1    4    4    0    0  0.56148910849E+01  0.14953729211E+02  0.13377668234E+02  0.20835139233E+02  0.51100000000E-03 0.  1.
        -12    1    4    4    0    0  0.88993735502E+01 -0.36619346466E+00  0.76900074406E+01  0.11767292028E+02  0.00000000000E+00 0.  1.
</event>
<event>
 8    1  0.5542925E-011  0.9118800E+02  0.7816164E-02  0.1184000E+00
        -11   -1    0    0    0    0  0.00000000000E+00  0.00000000000E+00  0.45593999997E+02  0.45594000000E+02  0.51100000000E-03 0. -1.
         11   -1    0    0    0    0 -0.00000000000E+00 -0.00000000000E+00 -0.45593999997E+02  0.45594000000E+02  0.51100000000E-03 0.  1.
         23    2    1    2    0    0  0.00000000000E+00  0.44408920985E-15 -0.35527136788E-14  0.91188000000E+02  0.91188000000E+02 0.  0.
    9900012    2    3    3    0    0  0.36549919900E+02 -0.11910370433E+01 -0.23373232789E+02  0.47787271608E+02  0.20000002570E+02 0.  0.
         12    1    3    3    0    0 -0.36549919900E+02  0.11910370433E+01  0.23373232789E+02  0.43400728392E+02  0.00000000000E+00 0. -1.
         11    1    4    4    0    0  0.90721950754E+01  0.21876085183E+01  0.96995623703E+00  0.93824927326E+01  0.51100000000E-03 0. -1.
        -11    1    4    4    0    0  0.34637150254E+01  0.23605090958E+01 -0.72517684757E+01  0.83760056862E+01  0.51100000000E-03 0.  1.
        -12    1    4    4    0    0  0.24014009799E+02 -0.57391546573E+01 -0.17091420551E+02  0.30028773189E+02  0.00000000000E+00 0.  1.
</event>
<event>
 8    1  0.5542925E-011  0.9118800E+02  0.7816164E-02  0.1184000E+00
        -11   -1    0    0    0    0  0.00000000000E+00  0.00000000000E+00  0.45593999997E+02  0.45594000000E+02  0.51100000000E-03 0. -1.
         11   -1    0    0    0    0 -0.00000000000E+00 -0.00000000000E+00 -0.45593999997E+02  0.45594000000E+02  0.51100000000E-03 0.  1.
         23    2    1    2    0    0 -0.88817841970E-15 -0.35527136788E-14 -0.71054273576E-14  0.91188000000E+02  0.91188000000E+02 0.  0.
    9900012    2    3    3    0    0 -0.41061242433E+01 -0.24427988228E+02 -0.35637568839E+02  0.47787272150E+02  0.20000005041E+02 0.  0.
         12    1    3    3    0    0  0.41061242433E+01  0.24427988228E+02  0.35637568839E+02  0.43400727850E+02  0.00000000000E+00 0. -1.
         11    1    4    4    0    0 -0.46597578115E+00 -0.18274211941E+00  0.18279319075E+00  0.53286182311E+00  0.51100000000E-03 0. -1.
        -11    1    4    4    0    0  0.53428336867E+01 -0.15789466505E+02 -0.28187533791E+02  0.32747369143E+02  0.51100000000E-03 0.  1.
        -12    1    4    4    0    0 -0.89829821489E+01 -0.84557796031E+01 -0.76328282390E+01  0.14507041184E+02  0.00000000000E+00 0.  1.
</event>
<event>
 8    1  0.5542925E-011  0.9118800E+02  0.7816164E-02  0.1184000E+00
        -11   -1    0    0    0    0  0.00000000000E+00  0.00000000000E+00  0.45593999997E+02  0.45594000000E+02  0.51100000000E-03 0. -1.
         11   -1    0    0    0    0 -0.00000000000E+00 -0.00000000000E+00 -0.45593999997E+02  0.45594000000E+02  0.51100000000E-03 0.  1.
         23    2    1    2    0    0  0.00000000000E+00  0.00000000000E+00  0.00000000000E+00  0.91188000000E+02  0.91188000000E+02 0.  0.
    9900012    2    3    3    0    0 -0.39904298337E+02 -0.98995257778E+01 -0.13902133056E+02  0.47787274892E+02  0.20000017541E+02 0.  0.
         12    1    3    3    0    0  0.39904298337E+02  0.98995257778E+01  0.13902133056E+02  0.43400725108E+02  0.00000000000E+00 0. -1.
         11    1    4    4    0    0 -0.65259764561E+01 -0.14895308838E+01  0.11480839790E+00  0.66947929161E+01  0.51100000000E-03 0. -1.
        -11    1    4    4    0    0 -0.32511915296E+02 -0.11863468344E+02 -0.10696717275E+02  0.36224111833E+02  0.51100000000E-03 0.  1.
        -12    1    4    4    0    0 -0.86640658459E+00  0.34534734502E+01 -0.33202241796E+01  0.48683701424E+01  0.00000000000E+00 0.  1.
</event>
<event>
 8    1  0.5733978E-011  0.9118800E+02  0.7816164E-02  0.1184000E+00
        -11   -1    0    0    0    0  0.00000000000E+00  0.00000000000E+00  0.45593999997E+02  0.45594000000E+02  0.51100000000E-03 0. -1.
         11   -1    0    0    0    0 -0.00000000000E+00 -0.00000000000E+00 -0.45593999997E+02  0.45594000000E+02  0.51100000000E-03 0.  1.
         23    2    1    2    0    0  0.00000000000E+00 -0.44408920985E-15  0.00000000000E+00  0.91188000000E+02  0.91188000000E+02 0.  0.
    9900012    2    3    3    0    0 -0.50349292077E+01 -0.25994726422E+01  0.43029241856E+02  0.47787269305E+02  0.19999992070E+02 0.  0.
        -12    1    3    3    0    0  0.50349292077E+01  0.25994726422E+01 -0.43029241856E+02  0.43400730695E+02  0.00000000000E+00 0.  1.
         11    1    4    4    0    0 -0.13008403940E+01 -0.33975754275E+00  0.19845456393E+00  0.13590457658E+01  0.51100000000E-03 0. -1.
        -11    1    4    4    0    0 -0.14173889852E+01  0.39873476063E+01  0.13884896087E+01  0.44537440568E+01  0.51100000000E-03 0.  1.
         12    1    4    4    0    0 -0.23166998285E+01 -0.62470627058E+01  0.41442297683E+02  0.41974479482E+02  0.00000000000E+00 0. -1.
</event>
<event>
 8    1  0.5542925E-011  0.9118800E+02  0.7816164E-02  0.1184000E+00
        -11   -1    0    0    0    0  0.00000000000E+00  0.00000000000E+00  0.45593999997E+02  0.45594000000E+02  0.51100000000E-03 0. -1.
         11   -1    0    0    0    0 -0.00000000000E+00 -0.00000000000E+00 -0.45593999997E+02  0.45594000000E+02  0.51100000000E-03 0.  1.
         23    2    1    2    0    0  0.00000000000E+00  0.71054273576E-14  0.00000000000E+00  0.91188000000E+02  0.91188000000E+02 0.  0.
    9900012    2    3    3    0    0  0.89176255848E+01 -0.24180570547E+02 -0.34919900260E+02  0.47787268759E+02  0.19999989582E+02 0.  0.
         12    1    3    3    0    0 -0.89176255848E+01  0.24180570547E+02  0.34919900260E+02  0.43400731241E+02  0.00000000000E+00 0. -1.
         11    1    4    4    0    0  0.35585695384E+01 -0.70201354294E+01 -0.46189995729E+01  0.91258356287E+01  0.51100000000E-03 0. -1.
        -11    1    4    4    0    0  0.67249202946E+01 -0.11495573541E+02 -0.30003609473E+02  0.32826656024E+02  0.51100000000E-03 0.  1.
        -12    1    4    4    0    0 -0.13658642483E+01 -0.56648615763E+01 -0.29729121402E+00  0.58347771071E+01  0.00000000000E+00 0.  1.
</event>
<event>
 8    1  0.5542925E-011  0.9118800E+02  0.7816164E-02  0.1184000E+00
        -11   -1    0    0    0    0  0.00000000000E+00  0.00000000000E+00  0.45593999997E+02  0.45594000000E+02  0.51100000000E-03 0.  1.
         11   -1    0    0    0    0 -0.00000000000E+00 -0.00000000000E+00 -0.45593999997E+02  0.45594000000E+02  0.51100000000E-03 0. -1.
         23    2    1    2    0    0  0.00000000000E+00 -0.88817841970E-15  0.44408920985E-15  0.91188000000E+02  0.91188000000E+02 0.  0.
    9900012    2    3    3    0    0 -0.43124242285E+02 -0.48361965308E+01  0.73076988342E+00  0.47787273115E+02  0.20000009439E+02 0.  0.
         12    1    3    3    0    0  0.43124242285E+02  0.48361965308E+01 -0.73076988342E+00  0.43400726885E+02  0.00000000000E+00 0. -1.
         11    1    4    4    0    0 -0.17136461541E+02  0.36752452163E+01 -0.39275121278E+01  0.17960821065E+02  0.51100000000E-03 0.  1.
        -11    1    4    4    0    0 -0.21933743974E+02 -0.25250735563E+01  0.21907016762E+01  0.22187029889E+02  0.51100000000E-03 0. -1.
         12    1    4    4    0    0 -0.40540367702E+01 -0.59863681908E+01  0.24675803350E+01  0.76394221614E+01  0.00000000000E+00 0. -1.
</event>
<event>
 8    1  0.5542925E-011  0.9118800E+02  0.7816164E-02  0.1184000E+00
        -11   -1    0    0    0    0  0.00000000000E+00  0.00000000000E+00  0.45593999997E+02  0.45594000000E+02  0.51100000000E-03 0. -1.
         11   -1    0    0    0    0 -0.00000000000E+00 -0.00000000000E+00 -0.45593999997E+02  0.45594000000E+02  0.51100000000E-03 0.  1.
         23    2    1    2    0    0  0.00000000000E+00 -0.88817841970E-15  0.00000000000E+00  0.91188000000E+02  0.91188000000E+02 0.  0.
    9900012    2    3    3    0    0  0.17364499870E+02 -0.54813093437E+01 -0.39396100785E+02  0.47787269996E+02  0.19999995219E+02 0.  0.
         12    1    3    3    0    0 -0.17364499870E+02  0.54813093437E+01  0.39396100785E+02  0.43400730004E+02  0.00000000000E+00 0. -1.
         11    1    4    4    0    0 -0.10102236975E+01  0.14463395206E+01 -0.67442068946E+01  0.69711388472E+01  0.51100000000E-03 0. -1.
        -11    1    4    4    0    0  0.12024722946E+02  0.29200011655E+01 -0.20425850748E+02  0.23881703201E+02  0.51100000000E-03 0.  1.
        -12    1    4    4    0    0  0.63500006216E+01 -0.98476500298E+01 -0.12226043142E+02  0.16934427948E+02  0.00000000000E+00 0.  1.
</event>
<event>
 8    1  0.5542925E-011  0.9118800E+02  0.7816164E-02  0.1184000E+00
        -11   -1    0    0    0    0  0.00000000000E+00  0.00000000000E+00  0.45593999997E+02  0.45594000000E+02  0.51100000000E-03 0. -1.
         11   -1    0    0    0    0 -0.00000000000E+00 -0.00000000000E+00 -0.45593999997E+02  0.45594000000E+02  0.51100000000E-03 0.  1.
         23    2    1    2    0    0 -0.35527136788E-14  0.00000000000E+00  0.35527136788E-14  0.91188000000E+02  0.91188000000E+02 0.  0.
    9900012    2    3    3    0    0 -0.28961162668E+02 -0.10291036622E+02  0.30642603478E+02  0.47787268142E+02  0.19999986768E+02 0.  0.
        -12    1    3    3    0    0  0.28961162668E+02  0.10291036622E+02 -0.30642603478E+02  0.43400731858E+02  0.00000000000E+00 0.  1.
         11    1    4    4    0    0 -0.16678304587E+01  0.19301881146E+01  0.39229693418E+01  0.46794201900E+01  0.51100000000E-03 0. -1.
        -11    1    4    4    0    0 -0.59061974155E+01  0.37034815367E+01  0.74920646115E+01  0.10233766453E+02  0.51100000000E-03 0.  1.
         12    1    4    4    0    0 -0.21387134794E+02 -0.15924706273E+02  0.19227569525E+02  0.32874081500E+02  0.00000000000E+00 0. -1.
</event>
<event>
 8    1  0.5542925E-011  0.9118800E+02  0.7816164E-02  0.1184000E+00
        -11   -1    0    0    0    0  0.00000000000E+00  0.00000000000E+00  0.45593999997E+02  0.45594000000E+02  0.51100000000E-03 0.  1.
         11   -1    0    0    0    0 -0.00000000000E+00 -0.00000000000E+00 -0.45593999997E+02  0.45594000000E+02  0.51100000000E-03 0. -1.
         23    2    1    2    0    0 -0.35527136788E-14  0.00000000000E+00  0.00000000000E+00  0.91188000000E+02  0.91188000000E+02 0.  0.
    9900012    2    3    3    0    0  0.19680590386E+02 -0.19236035685E+02  0.33559978709E+02  0.47787275607E+02  0.20000020805E+02 0.  0.
        -12    1    3    3    0    0 -0.19680590386E+02  0.19236035685E+02 -0.33559978709E+02  0.43400724393E+02  0.00000000000E+00 0.  1.
         11    1    4    4    0    0  0.10197900243E+02 -0.62853793460E+01  0.56991670092E+01  0.13265883602E+02  0.51100000000E-03 0. -1.
        -11    1    4    4    0    0  0.87314190239E+01 -0.26339613689E+01  0.80144681172E+01  0.12141133807E+02  0.51100000000E-03 0.  1.
        -12    1    4    4    0    0  0.75127111958E+00 -0.10316694970E+02  0.19846343583E+02  0.22380258198E+02  0.00000000000E+00 0.  1.
</event>
<event>
 8    1  0.5542925E-011  0.9118800E+02  0.7816164E-02  0.1184000E+00
        -11   -1    0    0    0    0  0.00000000000E+00  0.00000000000E+00  0.45593999997E+02  0.45594000000E+02  0.51100000000E-03 0. -1.
         11   -1    0    0    0    0 -0.00000000000E+00 -0.00000000000E+00 -0.45593999997E+02  0.45594000000E+02  0.51100000000E-03 0.  1.
         23    2    1    2    0    0  0.24980018054E-15  0.17763568394E-14  0.00000000000E+00  0.91188000000E+02  0.91188000000E+02 0.  0.
    9900012    2    3    3    0    0  0.20051532334E+00  0.15050774806E+02 -0.40706969210E+02  0.47787269927E+02  0.19999994904E+02 0.  0.
         12    1    3    3    0    0 -0.20051532334E+00 -0.15050774806E+02  0.40706969210E+02  0.43400730073E+02  0.00000000000E+00 0. -1.
         11    1    4    4    0    0  0.20468569759E+01  0.37686129943E+01 -0.20810161359E+01  0.47668328898E+01  0.51100000000E-03 0. -1.
        -11    1    4    4    0    0 -0.49452349509E+01  0.51257480817E+01 -0.50169059618E+01  0.87119451219E+01  0.51100000000E-03 0.  1.
        -12    1    4    4    0    0  0.30988932984E+01  0.61564137299E+01 -0.33609047112E+02  0.34308491915E+02  0.00000000000E+00 0.  1.
</event>
<event>
 8    1  0.5542925E-011  0.9118800E+02  0.7816164E-02  0.1184000E+00
        -11   -1    0    0    0    0  0.00000000000E+00  0.00000000000E+00  0.45593999997E+02  0.45594000000E+02  0.51100000000E-03 0. -1.
         11   -1    0    0    0    0 -0.00000000000E+00 -0.00000000000E+00 -0.45593999997E+02  0.45594000000E+02  0.51100000000E-03 0.  1.
         23    2    1    2    0    0  0.00000000000E+00  0.00000000000E+00 -0.35527136788E-14  0.91188000000E+02  0.91188000000E+02 0.  0.
    9900012    2    3    3    0    0 -0.30568558886E+02 -0.10603791101E+02  0.28926566358E+02  0.47787269369E+02  0.19999992360E+02 0.  0.
        -12    1    3    3    0    0  0.30568558886E+02  0.10603791101E+02 -0.28926566358E+02  0.43400730631E+02  0.00000000000E+00 0.  1.
         11    1    4    4    0    0 -0.82920695111E+01 -0.13568139414E+01  0.37439526359E+01  0.91987250448E+01  0.51100000000E-03 0. -1.
        -11    1    4    4    0    0 -0.88984632050E+01 -0.12534106974E+02  0.11754937819E+02  0.19351099411E+02  0.51100000000E-03 0.  1.
        -12    1    4    4    0    0 -0.13378026170E+02  0.32871298138E+01  0.13427675903E+02  0.19237444913E+02  0.00000000000E+00 0.  1.
</event>
<event>
 8    1  0.5542925E-011  0.9118800E+02  0.7816164E-02  0.1184000E+00
        -11   -1    0    0    0    0  0.00000000000E+00  0.00000000000E+00  0.45593999997E+02  0.45594000000E+02  0.51100000000E-03 0. -1.
         11   -1    0    0    0    0 -0.00000000000E+00 -0.00000000000E+00 -0.45593999997E+02  0.45594000000E+02  0.51100000000E-03 0.  1.
         23    2    1    2    0    0  0.00000000000E+00  0.00000000000E+00  0.00000000000E+00  0.91188000000E+02  0.91188000000E+02 0.  0.
    9900012    2    3    3    0    0  0.40707791665E+02  0.42936069202E+01 -0.14424423207E+02  0.47787270196E+02  0.19999996134E+02 0.  0.
         12    1    3    3    0    0 -0.40707791665E+02 -0.42936069202E+01  0.14424423207E+02  0.43400729804E+02  0.00000000000E+00 0. -1.
         11    1    4    4    0    0  0.15972359858E+02  0.47142583113E+00 -0.10110234387E+02  0.18909134336E+02  0.51100000000E-03 0. -1.
        -11    1    4    4    0    0  0.25780169380E+02  0.55598050588E+01 -0.47680937676E+01  0.26800434400E+02  0.51100000000E-03 0.  1.
         12    1    4    4    0    0 -0.10447375729E+01 -0.17376239697E+01  0.45390494783E+00  0.20777014603E+01  0.00000000000E+00 0. -1.
</event>
<event>
 8    1  0.5542925E-011  0.9118800E+02  0.7816164E-02  0.1184000E+00
        -11   -1    0    0    0    0  0.00000000000E+00  0.00000000000E+00  0.45593999997E+02  0.45594000000E+02  0.51100000000E-03 0. -1.
         11   -1    0    0    0    0 -0.00000000000E+00 -0.00000000000E+00 -0.45593999997E+02  0.45594000000E+02  0.51100000000E-03 0.  1.
         23    2    1    2    0    0 -0.35527136788E-14 -0.35527136788E-14 -0.35527136788E-14  0.91188000000E+02  0.91188000000E+02 0.  0.
    9900012    2    3    3    0    0 -0.28857486962E+02 -0.22646559072E+02 -0.23194867978E+02  0.47787273139E+02  0.20000009549E+02 0.  0.
         12    1    3    3    0    0  0.28857486962E+02  0.22646559072E+02  0.23194867978E+02  0.43400726861E+02  0.00000000000E+00 0. -1.
         11    1    4    4    0    0 -0.19363361532E+02 -0.16072974580E+02 -0.11610177104E+02  0.27714193012E+02  0.51100000000E-03 0. -1.
        -11    1    4    4    0    0 -0.87246581267E+01 -0.45000302620E+01 -0.17235753358E+01  0.99669776756E+01  0.51100000000E-03 0.  1.
         12    1    4    4    0    0 -0.76946730268E+00 -0.20735542297E+01 -0.98611155391E+01  0.10106102451E+02  0.00000000000E+00 0. -1.
</event>
<event>
 8    1  0.5542925E-011  0.9118800E+02  0.7816164E-02  0.1184000E+00
        -11   -1    0    0    0    0  0.00000000000E+00  0.00000000000E+00  0.45593999997E+02  0.45594000000E+02  0.51100000000E-03 0.  1.
         11   -1    0    0    0    0 -0.00000000000E+00 -0.00000000000E+00 -0.45593999997E+02  0.45594000000E+02  0.51100000000E-03 0. -1.
         23    2    1    2    0    0  0.00000000000E+00  0.44408920985E-15  0.88817841970E-15  0.91188000000E+02  0.91188000000E+02 0.  0.
    9900012    2    3    3    0    0 -0.42784285991E+02 -0.23661999022E+01  0.68941086802E+01  0.47787276915E+02  0.20000026768E+02 0.  0.
        -12    1    3    3    0    0  0.42784285991E+02  0.23661999022E+01 -0.68941086802E+01  0.43400723085E+02  0.00000000000E+00 0.  1.
         11    1    4    4    0    0 -0.37400676811E+01 -0.34155426418E+01  0.28599922211E+01  0.58166651583E+01  0.51100000000E-03 0.  1.
        -11    1    4    4    0    0 -0.14798220646E+00  0.87743464101E+00  0.29258960148E+01  0.30582115743E+01  0.51100000000E-03 0. -1.
         12    1    4    4    0    0 -0.38896236104E+02  0.17190809865E+00  0.11082204443E+01  0.38912400183E+02  0.00000000000E+00 0. -1.
</event>
<event>
 8    1  0.5542925E-011  0.9118800E+02  0.7816164E-02  0.1184000E+00
        -11   -1    0    0    0    0  0.00000000000E+00  0.00000000000E+00  0.45593999997E+02  0.45594000000E+02  0.51100000000E-03 0. -1.
         11   -1    0    0    0    0 -0.00000000000E+00 -0.00000000000E+00 -0.45593999997E+02  0.45594000000E+02  0.51100000000E-03 0.  1.
         23    2    1    2    0    0  0.00000000000E+00  0.00000000000E+00  0.00000000000E+00  0.91188000000E+02  0.91188000000E+02 0.  0.
    9900012    2    3    3    0    0  0.23022222677E+02 -0.11075524294E+02  0.35084660452E+02  0.47787269886E+02  0.19999994719E+02 0.  0.
        -12    1    3    3    0    0 -0.23022222677E+02  0.11075524294E+02 -0.35084660452E+02  0.43400730114E+02  0.00000000000E+00 0.  1.
         11    1    4    4    0    0  0.79428507467E+01 -0.71662009410E+00  0.63705921053E+01  0.10207196793E+02  0.51100000000E-03 0.  1.
        -11    1    4    4    0    0  0.10078201963E+02 -0.13224778034E+02  0.13858364241E+02  0.21645303614E+02  0.51100000000E-03 0. -1.
        -12    1    4    4    0    0  0.50011699672E+01  0.28658738334E+01  0.14855704105E+02  0.15934769479E+02  0.00000000000E+00 0.  1.
</event>
<event>
 8    1  0.5542925E-011  0.9118800E+02  0.7816164E-02  0.1184000E+00
        -11   -1    0    0    0    0  0.00000000000E+00  0.00000000000E+00  0.45593999997E+02  0.45594000000E+02  0.51100000000E-03 0. -1.
         11   -1    0    0    0    0 -0.00000000000E+00 -0.00000000000E+00 -0.45593999997E+02  0.45594000000E+02  0.51100000000E-03 0.  1.
         23    2    1    2    0    0  0.00000000000E+00  0.35527136788E-14  0.71054273576E-14  0.91188000000E+02  0.91188000000E+02 0.  0.
    9900012    2    3    3    0    0  0.16688820867E+02  0.17936843807E+02  0.35824240707E+02  0.47787270399E+02  0.19999997056E+02 0.  0.
        -12    1    3    3    0    0 -0.16688820867E+02 -0.17936843807E+02 -0.35824240707E+02  0.43400729601E+02  0.00000000000E+00 0.  1.
         11    1    4    4    0    0  0.18931628620E+01  0.32645174371E+01  0.74614107711E+00  0.38467995123E+01  0.51100000000E-03 0. -1.
        -11    1    4    4    0    0  0.10342041595E+02  0.12083124610E+02  0.11050466546E+02  0.19366789508E+02  0.51100000000E-03 0.  1.
        -12    1    4    4    0    0  0.44536164097E+01  0.25892017601E+01  0.24027633084E+02  0.24573681379E+02  0.00000000000E+00 0.  1.
</event>
<event>
 8    1  0.5542925E-011  0.9118800E+02  0.7816164E-02  0.1184000E+00
        -11   -1    0    0    0    0  0.00000000000E+00  0.00000000000E+00  0.45593999997E+02  0.45594000000E+02  0.51100000000E-03 0.  1.
         11   -1    0    0    0    0 -0.00000000000E+00 -0.00000000000E+00 -0.45593999997E+02  0.45594000000E+02  0.51100000000E-03 0. -1.
         23    2    1    2    0    0  0.00000000000E+00  0.00000000000E+00  0.35527136788E-14  0.91188000000E+02  0.91188000000E+02 0.  0.
    9900012    2    3    3    0    0  0.74524123447E+01 -0.34793283021E+02  0.24849793748E+02  0.47787271406E+02  0.20000001650E+02 0.  0.
        -12    1    3    3    0    0 -0.74524123447E+01  0.34793283021E+02 -0.24849793748E+02  0.43400728594E+02  0.00000000000E+00 0.  1.
         11    1    4    4    0    0 -0.14902695184E+01 -0.17145870562E+02  0.89066550895E+01  0.19378603812E+02  0.51100000000E-03 0. -1.
        -11    1    4    4    0    0  0.25920898440E+01 -0.63401332627E+01  0.13603645982E+02  0.15230738781E+02  0.51100000000E-03 0.  1.
        -12    1    4    4    0    0  0.63505920191E+01 -0.11307279197E+02  0.23394926765E+01  0.13177928813E+02  0.00000000000E+00 0.  1.
</event>
<event>
 8    1  0.5542925E-011  0.9118800E+02  0.7816164E-02  0.1184000E+00
        -11   -1    0    0    0    0  0.00000000000E+00  0.00000000000E+00  0.45593999997E+02  0.45594000000E+02  0.51100000000E-03 0. -1.
         11   -1    0    0    0    0 -0.00000000000E+00 -0.00000000000E+00 -0.45593999997E+02  0.45594000000E+02  0.51100000000E-03 0.  1.
         23    2    1    2    0    0  0.00000000000E+00  0.00000000000E+00 -0.44408920985E-15  0.91188000000E+02  0.91188000000E+02 0.  0.
    9900012    2    3    3    0    0  0.33419993742E+02  0.27586912794E+02 -0.23851330953E+01  0.47787278818E+02  0.20000035445E+02 0.  0.
        -12    1    3    3    0    0 -0.33419993742E+02 -0.27586912794E+02  0.23851330953E+01  0.43400721182E+02  0.00000000000E+00 0.  1.
         11    1    4    4    0    0  0.14445500542E+02  0.12698722593E+02 -0.20214476668E+01  0.19339500830E+02  0.51100000000E-03 0. -1.
        -11    1    4    4    0    0 -0.16285580922E+01  0.13645890249E+01 -0.29848537240E+01  0.36638308751E+01  0.51100000000E-03 0.  1.
         12    1    4    4    0    0  0.20603051292E+02  0.13523601176E+02  0.26211682956E+01  0.24783947114E+02  0.00000000000E+00 0. -1.
</event>
<event>
 8    1  0.5542925E-011  0.9118800E+02  0.7816164E-02  0.1184000E+00
        -11   -1    0    0    0    0  0.00000000000E+00  0.00000000000E+00  0.45593999997E+02  0.45594000000E+02  0.51100000000E-03 0. -1.
         11   -1    0    0    0    0 -0.00000000000E+00 -0.00000000000E+00 -0.45593999997E+02  0.45594000000E+02  0.51100000000E-03 0.  1.
         23    2    1    2    0    0  0.00000000000E+00  0.00000000000E+00 -0.17763568394E-14  0.91188000000E+02  0.91188000000E+02 0.  0.
    9900012    2    3    3    0    0  0.14716388719E+02 -0.38373690785E+02  0.13946732559E+02  0.47787267398E+02  0.19999983372E+02 0.  0.
        -12    1    3    3    0    0 -0.14716388719E+02  0.38373690785E+02 -0.13946732559E+02  0.43400732602E+02  0.00000000000E+00 0.  1.
         11    1    4    4    0    0  0.10475495332E+02 -0.15727012692E+02  0.93861395428E+01  0.21099159852E+02  0.51100000000E-03 0. -1.
        -11    1    4    4    0    0  0.86033453523E+01 -0.11959152545E+02  0.20435264851E+01  0.14873294242E+02  0.51100000000E-03 0.  1.
        -12    1    4    4    0    0 -0.43624519659E+01 -0.10687525547E+02  0.25170665313E+01  0.11814813304E+02  0.00000000000E+00 0.  1.
</event>
<event>
 8    1  0.5542925E-011  0.9118800E+02  0.7816164E-02  0.1184000E+00
        -11   -1    0    0    0    0  0.00000000000E+00  0.00000000000E+00  0.45593999997E+02  0.45594000000E+02  0.51100000000E-03 0. -1.
         11   -1    0    0    0    0 -0.00000000000E+00 -0.00000000000E+00 -0.45593999997E+02  0.45594000000E+02  0.51100000000E-03 0.  1.
         23    2    1    2    0    0 -0.88817841970E-15 -0.71054273576E-14 -0.17763568394E-14  0.91188000000E+02  0.91188000000E+02 0.  0.
    9900012    2    3    3    0    0  0.16755075670E+01 -0.40531323095E+02  0.15428142226E+02  0.47787273624E+02  0.20000011759E+02 0.  0.
        -12    1    3    3    0    0 -0.16755075670E+01  0.40531323095E+02 -0.15428142226E+02  0.43400726376E+02  0.00000000000E+00 0.  1.
         11    1    4    4    0    0 -0.25189306350E+00 -0.21728897750E+02  0.10662626586E+02  0.24205372410E+02  0.51100000000E-03 0. -1.
        -11    1    4    4    0    0  0.72318656116E+01 -0.14721903328E+02  0.33002665384E+01  0.16730991522E+02  0.51100000000E-03 0.  1.
         12    1    4    4    0    0 -0.53044649811E+01 -0.40805220178E+01  0.14652491009E+01  0.68509096915E+01  0.00000000000E+00 0. -1.
</event>
<event>
 8    1  0.5542925E-011  0.9118800E+02  0.7816164E-02  0.1184000E+00
        -11   -1    0    0    0    0  0.00000000000E+00  0.00000000000E+00  0.45593999997E+02  0.45594000000E+02  0.51100000000E-03 0. -1.
         11   -1    0    0    0    0 -0.00000000000E+00 -0.00000000000E+00 -0.45593999997E+02  0.45594000000E+02  0.51100000000E-03 0.  1.
         23    2    1    2    0    0  0.35527136788E-14  0.00000000000E+00  0.00000000000E+00  0.91188000000E+02  0.91188000000E+02 0.  0.
    9900012    2    3    3    0    0  0.19178281330E+02  0.20643516778E+02  0.33010027949E+02  0.47787271839E+02  0.20000003622E+02 0.  0.
        -12    1    3    3    0    0 -0.19178281330E+02 -0.20643516778E+02 -0.33010027949E+02  0.43400728161E+02  0.00000000000E+00 0.  1.
         11    1    4    4    0    0  0.89863852252E+01  0.84297146192E+00  0.13839788690E+02  0.16522877218E+02  0.51100000000E-03 0.  1.
        -11    1    4    4    0    0  0.92873887111E+01  0.16723271577E+02  0.20272446599E+02  0.27872845077E+02  0.51100000000E-03 0. -1.
         12    1    4    4    0    0  0.90450739365E+00  0.30772737389E+01 -0.11022073403E+01  0.33915495441E+01  0.00000000000E+00 0. -1.
</event>
<event>
 8    1  0.5542925E-011  0.9118800E+02  0.7816164E-02  0.1184000E+00
        -11   -1    0    0    0    0  0.00000000000E+00  0.00000000000E+00  0.45593999997E+02  0.45594000000E+02  0.51100000000E-03 0. -1.
         11   -1    0    0    0    0 -0.00000000000E+00 -0.00000000000E+00 -0.45593999997E+02  0.45594000000E+02  0.51100000000E-03 0.  1.
         23    2    1    2    0    0 -0.44408920985E-15 -0.17763568394E-14  0.00000000000E+00  0.91188000000E+02  0.91188000000E+02 0.  0.
    9900012    2    3    3    0    0  0.28337762314E+01 -0.11684427926E+02 -0.41702124048E+02  0.47787270815E+02  0.19999998954E+02 0.  0.
         12    1    3    3    0    0 -0.28337762314E+01  0.11684427926E+02  0.41702124048E+02  0.43400729185E+02  0.00000000000E+00 0. -1.
         11    1    4    4    0    0 -0.32500130709E+01 -0.14559801593E+01 -0.96021907216E+01  0.10241314862E+02  0.51100000000E-03 0. -1.
        -11    1    4    4    0    0  0.46275093514E+01  0.18746230152E+00 -0.23523686907E+02  0.23975254553E+02  0.51100000000E-03 0.  1.
         12    1    4    4    0    0  0.14562799510E+01 -0.10415910069E+02 -0.85762464190E+01  0.13570701400E+02  0.00000000000E+00 0. -1.
</event>
<event>
 8    1  0.5542925E-011  0.9118800E+02  0.7816164E-02  0.1184000E+00
        -11   -1    0    0    0    0  0.00000000000E+00  0.00000000000E+00  0.45593999997E+02  0.45594000000E+02  0.51100000000E-03 0. -1.
         11   -1    0    0    0    0 -0.00000000000E+00 -0.00000000000E+00 -0.45593999997E+02  0.45594000000E+02  0.51100000000E-03 0.  1.
         23    2    1    2    0    0 -0.17763568394E-14  0.00000000000E+00  0.00000000000E+00  0.91188000000E+02  0.91188000000E+02 0.  0.
    9900012    2    3    3    0    0  0.44175446033E+01  0.16362562484E+02 -0.39954644295E+02  0.47787288576E+02  0.20000079935E+02 0.  0.
         12    1    3    3    0    0 -0.44175446033E+01 -0.16362562484E+02  0.39954644295E+02  0.43400711424E+02  0.00000000000E+00 0. -1.
         11    1    4    4    0    0  0.78174585566E+01  0.30361599484E+01 -0.14325963196E+02  0.16600124917E+02  0.51100000000E-03 0. -1.
        -11    1    4    4    0    0 -0.17925372135E+01 -0.10004577840E+01 -0.34437181813E+00  0.20815133075E+01  0.51100000000E-03 0.  1.
        -12    1    4    4    0    0 -0.16073767398E+01  0.14326860320E+02 -0.25284309280E+02  0.29105650351E+02  0.00000000000E+00 0.  1.
</event>
<event>
 8    1  0.5542925E-011  0.9118800E+02  0.7816164E-02  0.1184000E+00
        -11   -1    0    0    0    0  0.00000000000E+00  0.00000000000E+00  0.45593999997E+02  0.45594000000E+02  0.51100000000E-03 0. -1.
         11   -1    0    0    0    0 -0.00000000000E+00 -0.00000000000E+00 -0.45593999997E+02  0.45594000000E+02  0.51100000000E-03 0.  1.
         23    2    1    2    0    0 -0.35527136788E-14  0.35527136788E-14  0.71054273576E-14  0.91188000000E+02  0.91188000000E+02 0.  0.
    9900012    2    3    3    0    0  0.26654836215E+02 -0.16349306460E+02 -0.30097230886E+02  0.47787269333E+02  0.19999992199E+02 0.  0.
         12    1    3    3    0    0 -0.26654836215E+02  0.16349306460E+02  0.30097230886E+02  0.43400730667E+02  0.00000000000E+00 0. -1.
         11    1    4    4    0    0  0.16267625042E+02 -0.11461453939E+02 -0.10562896781E+02  0.22529432740E+02  0.51100000000E-03 0. -1.
        -11    1    4    4    0    0  0.79605410571E+01 -0.47054267938E+01 -0.49828815770E+01  0.10504302181E+02  0.51100000000E-03 0.  1.
        -12    1    4    4    0    0  0.24266701160E+01 -0.18242572675E+00 -0.14551452528E+02  0.14753534412E+02  0.00000000000E+00 0.  1.
</event>
<event>
 8    1  0.5542925E-011  0.9118800E+02  0.7816164E-02  0.1184000E+00
        -11   -1    0    0    0    0  0.00000000000E+00  0.00000000000E+00  0.45593999997E+02  0.45594000000E+02  0.51100000000E-03 0. -1.
         11   -1    0    0    0    0 -0.00000000000E+00 -0.00000000000E+00 -0.45593999997E+02  0.45594000000E+02  0.51100000000E-03 0.  1.
         23    2    1    2    0    0  0.00000000000E+00  0.17763568394E-14  0.00000000000E+00  0.91188000000E+02  0.91188000000E+02 0.  0.
    9900012    2    3    3    0    0  0.23462594670E+02 -0.15840958408E+02 -0.32896716420E+02  0.47787271167E+02  0.20000000561E+02 0.  0.
         12    1    3    3    0    0 -0.23462594670E+02  0.15840958408E+02  0.32896716420E+02  0.43400728833E+02  0.00000000000E+00 0. -1.
         11    1    4    4    0    0  0.40095792408E+01 -0.86282607840E+00  0.10623342814E+01  0.42367144011E+01  0.51100000000E-03 0. -1.
        -11    1    4    4    0    0  0.52831053354E+00 -0.65041873455E+01 -0.84912492778E+01  0.10709102652E+02  0.51100000000E-03 0.  1.
         12    1    4    4    0    0  0.18924704896E+02 -0.84739449846E+01 -0.25467801424E+02  0.32841454115E+02  0.00000000000E+00 0. -1.
</event>
<event>
 8    1  0.5542925E-011  0.9118800E+02  0.7816164E-02  0.1184000E+00
        -11   -1    0    0    0    0  0.00000000000E+00  0.00000000000E+00  0.45593999997E+02  0.45594000000E+02  0.51100000000E-03 0. -1.
         11   -1    0    0    0    0 -0.00000000000E+00 -0.00000000000E+00 -0.45593999997E+02  0.45594000000E+02  0.51100000000E-03 0.  1.
         23    2    1    2    0    0  0.00000000000E+00  0.17763568394E-14  0.00000000000E+00  0.91188000000E+02  0.91188000000E+02 0.  0.
    9900012    2    3    3    0    0  0.16158202332E+02  0.15810777084E+02  0.37048010773E+02  0.47787271010E+02  0.19999999842E+02 0.  0.
        -12    1    3    3    0    0 -0.16158202332E+02 -0.15810777084E+02 -0.37048010773E+02  0.43400728990E+02  0.00000000000E+00 0.  1.
         11    1    4    4    0    0  0.99767446080E+01  0.98508190911E+01  0.10946344689E+02  0.17787538673E+02  0.51100000000E-03 0.  1.
        -11    1    4    4    0    0  0.88935867794E+01  0.38407667103E+01  0.11687943368E+02  0.15180757397E+02  0.51100000000E-03 0. -1.
         12    1    4    4    0    0 -0.27121290549E+01  0.21191912831E+01  0.14413722717E+02  0.14818974940E+02  0.00000000000E+00 0. -1.
</event>
<event>
 8    1  0.5542925E-011  0.9118800E+02  0.7816164E-02  0.1184000E+00
        -11   -1    0    0    0    0  0.00000000000E+00  0.00000000000E+00  0.45593999997E+02  0.45594000000E+02  0.51100000000E-03 0. -1.
         11   -1    0    0    0    0 -0.00000000000E+00 -0.00000000000E+00 -0.45593999997E+02  0.45594000000E+02  0.51100000000E-03 0.  1.
         23    2    1    2    0    0  0.35527136788E-14  0.00000000000E+00  0.00000000000E+00  0.91188000000E+02  0.91188000000E+02 0.  0.
    9900012    2    3    3    0    0 -0.27912537354E+02 -0.47578915760E+01 -0.32891863253E+02  0.47787286388E+02  0.20000069956E+02 0.  0.
         12    1    3    3    0    0  0.27912537354E+02  0.47578915760E+01  0.32891863253E+02  0.43400713612E+02  0.00000000000E+00 0. -1.
         11    1    4    4    0    0  0.16715222696E+01 -0.52452514823E+00 -0.10738376462E+01  0.20548092078E+01  0.51100000000E-03 0. -1.
        -11    1    4    4    0    0 -0.85726297929E+01 -0.64381964342E+01 -0.57086403948E+01  0.12146148785E+02  0.51100000000E-03 0.  1.
        -12    1    4    4    0    0 -0.21011429830E+02  0.22048300064E+01 -0.26109385212E+02  0.33586328395E+02  0.00000000000E+00 0.  1.
</event>
<event>
 8    1  0.5542925E-011  0.9118800E+02  0.7816164E-02  0.1184000E+00
        -11   -1    0    0    0    0  0.00000000000E+00  0.00000000000E+00  0.45593999997E+02  0.45594000000E+02  0.51100000000E-03 0. -1.
         11   -1    0    0    0    0 -0.00000000000E+00 -0.00000000000E+00 -0.45593999997E+02  0.45594000000E+02  0.51100000000E-03 0.  1.
         23    2    1    2    0    0 -0.17763568394E-14 -0.17763568394E-14  0.00000000000E+00  0.91188000000E+02  0.91188000000E+02 0.  0.
    9900012    2    3    3    0    0 -0.20033921005E+01 -0.13876702095E+02  0.41073677753E+02  0.47787269072E+02  0.19999991005E+02 0.  0.
        -12    1    3    3    0    0  0.20033921005E+01  0.13876702095E+02 -0.41073677753E+02  0.43400730928E+02  0.00000000000E+00 0.  1.
         11    1    4    4    0    0 -0.86621005653E+01 -0.52349821474E+01  0.19550772091E+02  0.22015215509E+02  0.51100000000E-03 0. -1.
        -11    1    4    4    0    0 -0.21229012012E+00  0.13215009013E+01  0.34881130886E+00  0.13831490583E+01  0.51100000000E-03 0.  1.
        -12    1    4    4    0    0  0.68709985849E+01 -0.99632208490E+01  0.21174094353E+02  0.24388904504E+02  0.00000000000E+00 0.  1.
</event>
<event>
 8    1  0.5542925E-011  0.9118800E+02  0.7816164E-02  0.1184000E+00
        -11   -1    0    0    0    0  0.00000000000E+00  0.00000000000E+00  0.45593999997E+02  0.45594000000E+02  0.51100000000E-03 0. -1.
         11   -1    0    0    0    0 -0.00000000000E+00 -0.00000000000E+00 -0.45593999997E+02  0.45594000000E+02  0.51100000000E-03 0.  1.
         23    2    1    2    0    0  0.00000000000E+00 -0.44408920985E-15  0.00000000000E+00  0.91188000000E+02  0.91188000000E+02 0.  0.
    9900012    2    3    3    0    0 -0.13975420380E+02  0.25651248902E+01  0.41008915502E+02  0.47787269693E+02  0.19999993839E+02 0.  0.
        -12    1    3    3    0    0  0.13975420380E+02 -0.25651248902E+01 -0.41008915502E+02  0.43400730307E+02  0.00000000000E+00 0.  1.
         11    1    4    4    0    0 -0.51534800091E+00 -0.23703650671E+01  0.14750349475E+02  0.14948478987E+02  0.51100000000E-03 0.  1.
        -11    1    4    4    0    0 -0.49468622279E+01  0.60273099868E+01  0.21829791216E+02  0.23180588784E+02  0.51100000000E-03 0. -1.
         12    1    4    4    0    0 -0.85132101509E+01 -0.10918200294E+01  0.44287748116E+01  0.96582019228E+01  0.00000000000E+00 0. -1.
</event>
<event>
 8    1  0.5542925E-011  0.9118800E+02  0.7816164E-02  0.1184000E+00
        -11   -1    0    0    0    0  0.00000000000E+00  0.00000000000E+00  0.45593999997E+02  0.45594000000E+02  0.51100000000E-03 0. -1.
         11   -1    0    0    0    0 -0.00000000000E+00 -0.00000000000E+00 -0.45593999997E+02  0.45594000000E+02  0.51100000000E-03 0.  1.
         23    2    1    2    0    0  0.17763568394E-14 -0.35527136788E-14  0.00000000000E+00  0.91188000000E+02  0.91188000000E+02 0.  0.
    9900012    2    3    3    0    0  0.90293002909E+01 -0.30685733440E+02 -0.29333948455E+02  0.47787273826E+02  0.20000012681E+02 0.  0.
         12    1    3    3    0    0 -0.90293002909E+01  0.30685733440E+02  0.29333948455E+02  0.43400726174E+02  0.00000000000E+00 0. -1.
         11    1    4    4    0    0 -0.36479770776E+01 -0.83141786442E+01 -0.13126207018E+02  0.15960282398E+02  0.51100000000E-03 0. -1.
        -11    1    4    4    0    0  0.42385177143E+00 -0.55583778017E+01 -0.73263681396E+01  0.92060243585E+01  0.51100000000E-03 0.  1.
        -12    1    4    4    0    0  0.12253425597E+02 -0.16813176994E+02 -0.88813732973E+01  0.22620967069E+02  0.00000000000E+00 0.  1.
</event>
<event>
 8    1  0.5542925E-011  0.9118800E+02  0.7816164E-02  0.1184000E+00
        -11   -1    0    0    0    0  0.00000000000E+00  0.00000000000E+00  0.45593999997E+02  0.45594000000E+02  0.51100000000E-03 0. -1.
         11   -1    0    0    0    0 -0.00000000000E+00 -0.00000000000E+00 -0.45593999997E+02  0.45594000000E+02  0.51100000000E-03 0.  1.
         23    2    1    2    0    0  0.55511151231E-15  0.00000000000E+00  0.00000000000E+00  0.91188000000E+02  0.91188000000E+02 0.  0.
    9900012    2    3    3    0    0 -0.88925567211E+00  0.46077490863E+01 -0.43146275542E+02  0.47787271660E+02  0.20000002805E+02 0.  0.
         12    1    3    3    0    0  0.88925567211E+00 -0.46077490863E+01  0.43146275542E+02  0.43400728340E+02  0.00000000000E+00 0. -1.
         11    1    4    4    0    0  0.12390150921E+01  0.35182768150E+01 -0.36276367533E+01  0.52031892931E+01  0.51100000000E-03 0. -1.
        -11    1    4    4    0    0 -0.44846312487E+01 -0.79032877519E+00 -0.20491644935E+01  0.49935570881E+01  0.51100000000E-03 0.  1.
        -12    1    4    4    0    0  0.23563604845E+01  0.18798010464E+01 -0.37469474296E+02  0.37590525278E+02  0.00000000000E+00 0.  1.
</event>
<event>
 8    1  0.5542925E-011  0.9118800E+02  0.7816164E-02  0.1184000E+00
        -11   -1    0    0    0    0  0.00000000000E+00  0.00000000000E+00  0.45593999997E+02  0.45594000000E+02  0.51100000000E-03 0. -1.
         11   -1    0    0    0    0 -0.00000000000E+00 -0.00000000000E+00 -0.45593999997E+02  0.45594000000E+02  0.51100000000E-03 0.  1.
         23    2    1    2    0    0  0.00000000000E+00  0.88817841970E-15  0.00000000000E+00  0.91188000000E+02  0.91188000000E+02 0.  0.
    9900012    2    3    3    0    0  0.37683191692E+02 -0.54831031660E+01  0.20821525968E+02  0.47787270743E+02  0.19999998625E+02 0.  0.
        -12    1    3    3    0    0 -0.37683191692E+02  0.54831031660E+01 -0.20821525968E+02  0.43400729257E+02  0.00000000000E+00 0.  1.
         11    1    4    4    0    0  0.72578126609E+01 -0.83543537212E+01  0.73684325249E+00  0.11091168061E+02  0.51100000000E-03 0. -1.
        -11    1    4    4    0    0  0.29146585753E+01  0.54629932981E+00  0.30553754205E+01  0.42578159648E+01  0.51100000000E-03 0.  1.
        -12    1    4    4    0    0  0.27510720455E+02  0.23249512255E+01  0.17029307295E+02  0.32438286717E+02  0.00000000000E+00 0.  1.
</event>
<event>
 8    1  0.5542925E-011  0.9118800E+02  0.7816164E-02  0.1184000E+00
        -11   -1    0    0    0    0  0.00000000000E+00  0.00000000000E+00  0.45593999997E+02  0.45594000000E+02  0.51100000000E-03 0. -1.
         11   -1    0    0    0    0 -0.00000000000E+00 -0.00000000000E+00 -0.45593999997E+02  0.45594000000E+02  0.51100000000E-03 0.  1.
         23    2    1    2    0    0  0.00000000000E+00  0.00000000000E+00 -0.35527136788E-14  0.91188000000E+02  0.91188000000E+02 0.  0.
    9900012    2    3    3    0    0  0.19428604861E+01 -0.31447010757E+02  0.29848513573E+02  0.47787274719E+02  0.20000016753E+02 0.  0.
        -12    1    3    3    0    0 -0.19428604861E+01  0.31447010757E+02 -0.29848513573E+02  0.43400725281E+02  0.00000000000E+00 0.  1.
         11    1    4    4    0    0  0.15369686354E+01 -0.14256836964E+02  0.21950780267E+02  0.26219390295E+02  0.51100000000E-03 0. -1.
        -11    1    4    4    0    0 -0.32564015903E+01 -0.29454212563E+01  0.48594506487E+01  0.65493448957E+01  0.51100000000E-03 0.  1.
        -12    1    4    4    0    0  0.36622934410E+01 -0.14244752536E+02  0.30382826571E+01  0.15018539529E+02  0.00000000000E+00 0.  1.
</event>
<event>
 8    1  0.5542925E-011  0.9118800E+02  0.7816164E-02  0.1184000E+00
        -11   -1    0    0    0    0  0.00000000000E+00  0.00000000000E+00  0.45593999997E+02  0.45594000000E+02  0.51100000000E-03 0. -1.
         11   -1    0    0    0    0 -0.00000000000E+00 -0.00000000000E+00 -0.45593999997E+02  0.45594000000E+02  0.51100000000E-03 0.  1.
         23    2    1    2    0    0  0.00000000000E+00  0.00000000000E+00 -0.71054273576E-14  0.91188000000E+02  0.91188000000E+02 0.  0.
    9900012    2    3    3    0    0  0.60055734011E+01 -0.47593701593E+01 -0.42718900171E+02  0.47787274798E+02  0.20000017116E+02 0.  0.
         12    1    3    3    0    0 -0.60055734011E+01  0.47593701593E+01  0.42718900171E+02  0.43400725202E+02  0.00000000000E+00 0. -1.
         11    1    4    4    0    0 -0.43683219961E+01 -0.36675077833E+01 -0.11942021411E+02  0.13234225555E+02  0.51100000000E-03 0. -1.
        -11    1    4    4    0    0 -0.86888759462E+00  0.34360823729E+01 -0.59505402244E+01  0.69260780351E+01  0.51100000000E-03 0.  1.
        -12    1    4    4    0    0  0.11242782992E+02 -0.45279447489E+01 -0.24826338536E+02  0.27626971208E+02  0.00000000000E+00 0.  1.
</event>
<event>
 8    1  0.5542925E-011  0.9118800E+02  0.7816164E-02  0.1184000E+00
        -11   -1    0    0    0    0  0.00000000000E+00  0.00000000000E+00  0.45593999997E+02  0.45594000000E+02  0.51100000000E-03 0. -1.
         11   -1    0    0    0    0 -0.00000000000E+00 -0.00000000000E+00 -0.45593999997E+02  0.45594000000E+02  0.51100000000E-03 0.  1.
         23    2    1    2    0    0  0.13322676296E-14  0.00000000000E+00  0.00000000000E+00  0.91188000000E+02  0.91188000000E+02 0.  0.
    9900012    2    3    3    0    0 -0.36696433807E+01  0.34871190988E+02 -0.25576489995E+02  0.47787273233E+02  0.20000009977E+02 0.  0.
         12    1    3    3    0    0  0.36696433807E+01 -0.34871190988E+02  0.25576489995E+02  0.43400726767E+02  0.00000000000E+00 0. -1.
         11    1    4    4    0    0  0.37189655039E+01  0.86021099266E+01 -0.72806900408E+01  0.11867411147E+02  0.51100000000E-03 0. -1.
        -11    1    4    4    0    0  0.33623991756E+01  0.72882862737E+01 -0.94026623923E+01  0.12362641520E+02  0.51100000000E-03 0.  1.
        -12    1    4    4    0    0 -0.10751008060E+02  0.18980794787E+02 -0.88931375623E+01  0.23557220566E+02  0.00000000000E+00 0.  1.
</event>
<event>
 8    1  0.5542925E-011  0.9118800E+02  0.7816164E-02  0.1184000E+00
        -11   -1    0    0    0    0  0.00000000000E+00  0.00000000000E+00  0.45593999997E+02  0.45594000000E+02  0.51100000000E-03 0. -1.
         11   -1    0    0    0    0 -0.00000000000E+00 -0.00000000000E+00 -0.45593999997E+02  0.45594000000E+02  0.51100000000E-03 0.  1.
         23    2    1    2    0    0  0.00000000000E+00  0.00000000000E+00 -0.35527136788E-14  0.91188000000E+02  0.91188000000E+02 0.  0.
    9900012    2    3    3    0    0  0.14428491697E+02  0.36492386933E+02 -0.18540432702E+02  0.47787270496E+02  0.19999997497E+02 0.  0.
         12    1    3    3    0    0 -0.14428491697E+02 -0.36492386933E+02  0.18540432702E+02  0.43400729504E+02  0.00000000000E+00 0. -1.
         11    1    4    4    0    0  0.92283973717E+01  0.68071928773E+01 -0.46690756439E+01  0.12381496701E+02  0.51100000000E-03 0. -1.
        -11    1    4    4    0    0 -0.56648667537E+00 -0.10763981910E+01 -0.12566244829E+00  0.12228374917E+01  0.51100000000E-03 0.  1.
        -12    1    4    4    0    0  0.57665810011E+01  0.30761592247E+02 -0.13745694610E+02  0.34182936303E+02  0.00000000000E+00 0.  1.
</event>
<event>
 8    1  0.5542925E-011  0.9118800E+02  0.7816164E-02  0.1184000E+00
        -11   -1    0    0    0    0  0.00000000000E+00  0.00000000000E+00  0.45593999997E+02  0.45594000000E+02  0.51100000000E-03 0. -1.
         11   -1    0    0    0    0 -0.00000000000E+00 -0.00000000000E+00 -0.45593999997E+02  0.45594000000E+02  0.51100000000E-03 0.  1.
         23    2    1    2    0    0 -0.17763568394E-14  0.00000000000E+00 -0.71054273576E-14  0.91188000000E+02  0.91188000000E+02 0.  0.
    9900012    2    3    3    0    0  0.55142160635E+01 -0.66467021388E+01  0.42532790165E+02  0.47787268815E+02  0.19999989836E+02 0.  0.
        -12    1    3    3    0    0 -0.55142160635E+01  0.66467021388E+01 -0.42532790165E+02  0.43400731185E+02  0.00000000000E+00 0.  1.
         11    1    4    4    0    0  0.92593407814E+01 -0.32257401947E+01  0.29728869350E+02  0.31304096611E+02  0.51100000000E-03 0. -1.
        -11    1    4    4    0    0 -0.19412705018E+00  0.26826035929E+01  0.13057952135E+01  0.29898409237E+01  0.51100000000E-03 0.  1.
        -12    1    4    4    0    0 -0.35509976677E+01 -0.61035655370E+01  0.11498125602E+02  0.13493331281E+02  0.00000000000E+00 0.  1.
</event>
<event>
 8    1  0.5542925E-011  0.9118800E+02  0.7816164E-02  0.1184000E+00
        -11   -1    0    0    0    0  0.00000000000E+00  0.00000000000E+00  0.45593999997E+02  0.45594000000E+02  0.51100000000E-03 0. -1.
         11   -1    0    0    0    0 -0.00000000000E+00 -0.00000000000E+00 -0.45593999997E+02  0.45594000000E+02  0.51100000000E-03 0.  1.
         23    2    1    2    0    0  0.00000000000E+00  0.22204460493E-15  0.00000000000E+00  0.91188000000E+02  0.91188000000E+02 0.  0.
    9900012    2    3    3    0    0  0.25526405264E+02  0.19492550287E+01 -0.35046053194E+02  0.47787276443E+02  0.20000024612E+02 0.  0.
         12    1    3    3    0    0 -0.25526405264E+02 -0.19492550287E+01  0.35046053194E+02  0.43400723557E+02  0.00000000000E+00 0. -1.
         11    1    4    4    0    0 -0.16612102037E+01 -0.13008806512E+01 -0.89411897099E+00  0.22915843439E+01  0.51100000000E-03 0. -1.
        -11    1    4    4    0    0  0.92485087413E+01  0.24270618009E+01 -0.39234218484E+01  0.10335317227E+02  0.51100000000E-03 0.  1.
         12    1    4    4    0    0  0.17939106726E+02  0.82307387910E+00 -0.30228512374E+02  0.35160374872E+02  0.00000000000E+00 0. -1.
</event>
<event>
 8    1  0.5542925E-011  0.9118800E+02  0.7816164E-02  0.1184000E+00
        -11   -1    0    0    0    0  0.00000000000E+00  0.00000000000E+00  0.45593999997E+02  0.45594000000E+02  0.51100000000E-03 0. -1.
         11   -1    0    0    0    0 -0.00000000000E+00 -0.00000000000E+00 -0.45593999997E+02  0.45594000000E+02  0.51100000000E-03 0.  1.
         23    2    1    2    0    0  0.00000000000E+00  0.00000000000E+00  0.00000000000E+00  0.91188000000E+02  0.91188000000E+02 0.  0.
    9900012    2    3    3    0    0  0.17974405559E+02 -0.22141453771E+02  0.32715441419E+02  0.47787270311E+02  0.19999996656E+02 0.  0.
        -12    1    3    3    0    0 -0.17974405559E+02  0.22141453771E+02 -0.32715441419E+02  0.43400729689E+02  0.00000000000E+00 0.  1.
         11    1    4    4    0    0  0.11083715236E+01 -0.78737322680E-01 -0.11479101977E+01  0.15976185663E+01  0.51100000000E-03 0. -1.
        -11    1    4    4    0    0  0.10859269527E+02 -0.97996271000E+01  0.73581756693E+01  0.16373734314E+02  0.51100000000E-03 0.  1.
         12    1    4    4    0    0  0.60067645091E+01 -0.12263089348E+02  0.26505175947E+02  0.29815917430E+02  0.00000000000E+00 0. -1.
</event>
<event>
 8    1  0.5542925E-011  0.9118800E+02  0.7816164E-02  0.1184000E+00
        -11   -1    0    0    0    0  0.00000000000E+00  0.00000000000E+00  0.45593999997E+02  0.45594000000E+02  0.51100000000E-03 0. -1.
         11   -1    0    0    0    0 -0.00000000000E+00 -0.00000000000E+00 -0.45593999997E+02  0.45594000000E+02  0.51100000000E-03 0.  1.
         23    2    1    2    0    0 -0.88817841970E-15  0.00000000000E+00  0.00000000000E+00  0.91188000000E+02  0.91188000000E+02 0.  0.
    9900012    2    3    3    0    0 -0.55541364725E+01  0.10069743190E+02 -0.41849437580E+02  0.47787267453E+02  0.19999983624E+02 0.  0.
         12    1    3    3    0    0  0.55541364725E+01 -0.10069743190E+02  0.41849437580E+02  0.43400732547E+02  0.00000000000E+00 0. -1.
         11    1    4    4    0    0 -0.19681492192E+01 -0.54668805223E+00 -0.35029069849E+01  0.40549767917E+01  0.51100000000E-03 0. -1.
        -11    1    4    4    0    0 -0.34466047368E+01  0.49186022336E+00 -0.31067336263E+02  0.31261804065E+02  0.51100000000E-03 0.  1.
        -12    1    4    4    0    0 -0.13938251648E+00  0.10124571019E+02 -0.72791943323E+01  0.12470486596E+02  0.00000000000E+00 0.  1.
</event>
<event>
 8    1  0.5542925E-011  0.9118800E+02  0.7816164E-02  0.1184000E+00
        -11   -1    0    0    0    0  0.00000000000E+00  0.00000000000E+00  0.45593999997E+02  0.45594000000E+02  0.51100000000E-03 0. -1.
         11   -1    0    0    0    0 -0.00000000000E+00 -0.00000000000E+00 -0.45593999997E+02  0.45594000000E+02  0.51100000000E-03 0.  1.
         23    2    1    2    0    0 -0.17763568394E-14  0.26645352591E-14  0.00000000000E+00  0.91188000000E+02  0.91188000000E+02 0.  0.
    9900012    2    3    3    0    0 -0.14226886799E+02  0.67952352333E+01 -0.40435673548E+02  0.47787271605E+02  0.20000002558E+02 0.  0.
         12    1    3    3    0    0  0.14226886799E+02 -0.67952352333E+01  0.40435673548E+02  0.43400728395E+02  0.00000000000E+00 0. -1.
         11    1    4    4    0    0 -0.14717064920E+01  0.99008684775E-01  0.21331951835E-01  0.14751874565E+01  0.51100000000E-03 0. -1.
        -11    1    4    4    0    0 -0.16766294952E+00  0.80541698276E+01 -0.25361476990E+02  0.26610191241E+02  0.51100000000E-03 0.  1.
        -12    1    4    4    0    0 -0.12587517357E+02 -0.13579432790E+01 -0.15095528510E+02  0.19701892908E+02  0.00000000000E+00 0.  1.
</event>
<event>
 8    1  0.5542925E-011  0.9118800E+02  0.7816164E-02  0.1184000E+00
        -11   -1    0    0    0    0  0.00000000000E+00  0.00000000000E+00  0.45593999997E+02  0.45594000000E+02  0.51100000000E-03 0.  1.
         11   -1    0    0    0    0 -0.00000000000E+00 -0.00000000000E+00 -0.45593999997E+02  0.45594000000E+02  0.51100000000E-03 0. -1.
         23    2    1    2    0    0  0.00000000000E+00 -0.44408920985E-15  0.00000000000E+00  0.91188000000E+02  0.91188000000E+02 0.  0.
    9900012    2    3    3    0    0 -0.42131461369E+02  0.34430479673E+01  0.98340703082E+01  0.47787267803E+02  0.19999985223E+02 0.  0.
         12    1    3    3    0    0  0.42131461369E+02 -0.34430479673E+01 -0.98340703082E+01  0.43400732197E+02  0.00000000000E+00 0. -1.
         11    1    4    4    0    0 -0.13897281411E+01  0.86662518977E+00 -0.19435213053E+01  0.25415858929E+01  0.51100000000E-03 0.  1.
        -11    1    4    4    0    0 -0.49602590505E+01 -0.25726941986E+01 -0.28206662887E+01  0.62593197602E+01  0.51100000000E-03 0. -1.
        -12    1    4    4    0    0 -0.35781474177E+02  0.51491169762E+01  0.14598257902E+02  0.38986362150E+02  0.00000000000E+00 0.  1.
</event>
<event>
 8    1  0.5542925E-011  0.9118800E+02  0.7816164E-02  0.1184000E+00
        -11   -1    0    0    0    0  0.00000000000E+00  0.00000000000E+00  0.45593999997E+02  0.45594000000E+02  0.51100000000E-03 0.  1.
         11   -1    0    0    0    0 -0.00000000000E+00 -0.00000000000E+00 -0.45593999997E+02  0.45594000000E+02  0.51100000000E-03 0. -1.
         23    2    1    2    0    0  0.00000000000E+00  0.71054273576E-14  0.00000000000E+00  0.91188000000E+02  0.91188000000E+02 0.  0.
    9900012    2    3    3    0    0 -0.36937861794E+01  0.34512357800E+02 -0.26055239258E+02  0.47787281226E+02  0.20000046424E+02 0.  0.
         12    1    3    3    0    0  0.36937861794E+01 -0.34512357800E+02  0.26055239258E+02  0.43400718774E+02  0.00000000000E+00 0. -1.
         11    1    4    4    0    0 -0.55134834454E+01  0.99302058083E+01 -0.60937900542E+01  0.12889599085E+02  0.51100000000E-03 0. -1.
        -11    1    4    4    0    0 -0.51247291515E+01  0.10917559393E+02 -0.38508262643E+01  0.12660363943E+02  0.51100000000E-03 0.  1.
        -12    1    4    4    0    0  0.69444264175E+01  0.13664592598E+02 -0.16110622940E+02  0.22237318198E+02  0.00000000000E+00 0.  1.
</event>
<event>
 8    1  0.5542925E-011  0.9118800E+02  0.7816164E-02  0.1184000E+00
        -11   -1    0    0    0    0  0.00000000000E+00  0.00000000000E+00  0.45593999997E+02  0.45594000000E+02  0.51100000000E-03 0. -1.
         11   -1    0    0    0    0 -0.00000000000E+00 -0.00000000000E+00 -0.45593999997E+02  0.45594000000E+02  0.51100000000E-03 0.  1.
         23    2    1    2    0    0  0.00000000000E+00  0.00000000000E+00  0.00000000000E+00  0.91188000000E+02  0.91188000000E+02 0.  0.
    9900012    2    3    3    0    0 -0.21159145479E+01  0.11893965276E+02  0.41685485982E+02  0.47787271367E+02  0.20000001470E+02 0.  0.
        -12    1    3    3    0    0  0.21159145479E+01 -0.11893965276E+02 -0.41685485982E+02  0.43400728633E+02  0.00000000000E+00 0.  1.
         11    1    4    4    0    0 -0.10852358206E+01  0.95844165363E+01  0.17203050447E+02  0.19722670257E+02  0.51100000000E-03 0.  1.
        -11    1    4    4    0    0  0.98035683127E+00  0.61214550302E+01  0.45980630054E+01  0.77185163643E+01  0.51100000000E-03 0. -1.
        -12    1    4    4    0    0 -0.20110355586E+01 -0.38119062909E+01  0.19884372529E+02  0.20346084746E+02  0.00000000000E+00 0.  1.
</event>
<event>
 8    1  0.5542925E-011  0.9118800E+02  0.7816164E-02  0.1184000E+00
        -11   -1    0    0    0    0  0.00000000000E+00  0.00000000000E+00  0.45593999997E+02  0.45594000000E+02  0.51100000000E-03 0. -1.
         11   -1    0    0    0    0 -0.00000000000E+00 -0.00000000000E+00 -0.45593999997E+02  0.45594000000E+02  0.51100000000E-03 0.  1.
         23    2    1    2    0    0  0.00000000000E+00  0.00000000000E+00  0.00000000000E+00  0.91188000000E+02  0.91188000000E+02 0.  0.
    9900012    2    3    3    0    0 -0.27938711482E+02  0.16082225252E+02  0.29058784268E+02  0.47787279828E+02  0.20000040049E+02 0.  0.
        -12    1    3    3    0    0  0.27938711482E+02 -0.16082225252E+02 -0.29058784268E+02  0.43400720172E+02  0.00000000000E+00 0.  1.
         11    1    4    4    0    0  0.18794949358E+00  0.46251044121E+01  0.16747956384E+01  0.49225863655E+01  0.51100000000E-03 0. -1.
        -11    1    4    4    0    0 -0.81855485414E+01  0.14626645714E+01  0.10935332768E+01  0.83867996197E+01  0.51100000000E-03 0.  1.
         12    1    4    4    0    0 -0.19941112434E+02  0.99944562687E+01  0.26290455352E+02  0.34477893843E+02  0.00000000000E+00 0. -1.
</event>
<event>
 8    1  0.5542925E-011  0.9118800E+02  0.7816164E-02  0.1184000E+00
        -11   -1    0    0    0    0  0.00000000000E+00  0.00000000000E+00  0.45593999997E+02  0.45594000000E+02  0.51100000000E-03 0. -1.
         11   -1    0    0    0    0 -0.00000000000E+00 -0.00000000000E+00 -0.45593999997E+02  0.45594000000E+02  0.51100000000E-03 0.  1.
         23    2    1    2    0    0  0.00000000000E+00 -0.35527136788E-14  0.17763568394E-14  0.91188000000E+02  0.91188000000E+02 0.  0.
    9900012    2    3    3    0    0 -0.37283189391E+02 -0.18235628432E+02  0.12690500559E+02  0.47787272357E+02  0.20000005986E+02 0.  0.
        -12    1    3    3    0    0  0.37283189391E+02  0.18235628432E+02 -0.12690500559E+02  0.43400727643E+02  0.00000000000E+00 0.  1.
         11    1    4    4    0    0 -0.19153767861E+02 -0.53906723155E+01  0.33274474297E+01  0.20174193366E+02  0.51100000000E-03 0. -1.
        -11    1    4    4    0    0 -0.16164881576E+02 -0.77533454337E+01  0.11978167318E+02  0.21561406595E+02  0.51100000000E-03 0.  1.
        -12    1    4    4    0    0 -0.19645399532E+01 -0.50916106827E+01 -0.26151141890E+01  0.60516723964E+01  0.00000000000E+00 0.  1.
</event>
<event>
 8    1  0.5542925E-011  0.9118800E+02  0.7816164E-02  0.1184000E+00
        -11   -1    0    0    0    0  0.00000000000E+00  0.00000000000E+00  0.45593999997E+02  0.45594000000E+02  0.51100000000E-03 0. -1.
         11   -1    0    0    0    0 -0.00000000000E+00 -0.00000000000E+00 -0.45593999997E+02  0.45594000000E+02  0.51100000000E-03 0.  1.
         23    2    1    2    0    0  0.00000000000E+00  0.00000000000E+00  0.00000000000E+00  0.91188000000E+02  0.91188000000E+02 0.  0.
    9900012    2    3    3    0    0 -0.95835578658E+01 -0.19681850903E+02 -0.37475373255E+02  0.47787269166E+02  0.19999991434E+02 0.  0.
         12    1    3    3    0    0  0.95835578658E+01  0.19681850903E+02  0.37475373255E+02  0.43400730834E+02  0.00000000000E+00 0. -1.
         11    1    4    4    0    0 -0.45447295342E+01 -0.11852396846E+02 -0.21969061442E+02  0.25372692771E+02  0.51100000000E-03 0. -1.
        -11    1    4    4    0    0 -0.15482390167E+01 -0.57283023823E-01 -0.13594744640E+02  0.13682741227E+02  0.51100000000E-03 0.  1.
         12    1    4    4    0    0 -0.34905893149E+01 -0.77721710336E+01 -0.19115671728E+01  0.87318351677E+01  0.00000000000E+00 0. -1.
</event>
<event>
 8    1  0.5542925E-011  0.9118800E+02  0.7816164E-02  0.1184000E+00
        -11   -1    0    0    0    0  0.00000000000E+00  0.00000000000E+00  0.45593999997E+02  0.45594000000E+02  0.51100000000E-03 0. -1.
         11   -1    0    0    0    0 -0.00000000000E+00 -0.00000000000E+00 -0.45593999997E+02  0.45594000000E+02  0.51100000000E-03 0.  1.
         23    2    1    2    0    0 -0.44408920985E-15  0.13322676296E-14  0.00000000000E+00  0.91188000000E+02  0.91188000000E+02 0.  0.
    9900012    2    3    3    0    0 -0.31597966828E+01  0.18864148015E+01  0.43244424824E+02  0.47787272423E+02  0.20000006285E+02 0.  0.
        -12    1    3    3    0    0  0.31597966828E+01 -0.18864148015E+01 -0.43244424824E+02  0.43400727577E+02  0.00000000000E+00 0.  1.
         11    1    4    4    0    0 -0.59247407264E+01 -0.41843730049E+00  0.12215626038E+02  0.13583046868E+02  0.51100000000E-03 0. -1.
        -11    1    4    4    0    0 -0.20100570522E+01  0.70377905364E+01  0.19886942779E+02  0.21191066947E+02  0.51100000000E-03 0.  1.
         12    1    4    4    0    0  0.47750010958E+01 -0.47329384344E+01  0.11141856006E+02  0.13013158608E+02  0.00000000000E+00 0. -1.
</event>
<event>
 8    1  0.5542925E-011  0.9118800E+02  0.7816164E-02  0.1184000E+00
        -11   -1    0    0    0    0  0.00000000000E+00  0.00000000000E+00  0.45593999997E+02  0.45594000000E+02  0.51100000000E-03 0. -1.
         11   -1    0    0    0    0 -0.00000000000E+00 -0.00000000000E+00 -0.45593999997E+02  0.45594000000E+02  0.51100000000E-03 0.  1.
         23    2    1    2    0    0  0.00000000000E+00  0.00000000000E+00  0.00000000000E+00  0.91188000000E+02  0.91188000000E+02 0.  0.
    9900012    2    3    3    0    0 -0.29312072159E+02  0.10889393270E+02  0.30097292528E+02  0.47787268698E+02  0.19999989301E+02 0.  0.
        -12    1    3    3    0    0  0.29312072159E+02 -0.10889393270E+02 -0.30097292528E+02  0.43400731302E+02  0.00000000000E+00 0.  1.
         11    1    4    4    0    0 -0.48967852836E+01  0.54556639929E+01  0.69415294135E+01  0.10095920294E+02  0.51100000000E-03 0. -1.
        -11    1    4    4    0    0 -0.11767334586E+02 -0.28115224214E+01  0.18096072242E+02  0.21767927150E+02  0.51100000000E-03 0.  1.
         12    1    4    4    0    0 -0.12647952290E+02  0.82452516983E+01  0.50596908726E+01  0.15923421254E+02  0.00000000000E+00 0. -1.
</event>
<event>
 8    1  0.5542925E-011  0.9118800E+02  0.7816164E-02  0.1184000E+00
        -11   -1    0    0    0    0  0.00000000000E+00  0.00000000000E+00  0.45593999997E+02  0.45594000000E+02  0.51100000000E-03 0.  1.
         11   -1    0    0    0    0 -0.00000000000E+00 -0.00000000000E+00 -0.45593999997E+02  0.45594000000E+02  0.51100000000E-03 0. -1.
         23    2    1    2    0    0  0.00000000000E+00  0.00000000000E+00  0.00000000000E+00  0.91188000000E+02  0.91188000000E+02 0.  0.
    9900012    2    3    3    0    0 -0.41950375656E+02  0.52615481829E+01  0.98033339800E+01  0.47787271158E+02  0.20000000516E+02 0.  0.
        -12    1    3    3    0    0  0.41950375656E+02 -0.52615481829E+01 -0.98033339800E+01  0.43400728842E+02  0.00000000000E+00 0.  1.
         11    1    4    4    0    0 -0.21166284509E+02 -0.18996898071E+00 -0.10012176715E+01  0.21190802845E+02  0.51100000000E-03 0. -1.
        -11    1    4    4    0    0 -0.16877616903E+02 -0.20738641173E+00  0.50169973376E+01  0.17608725791E+02  0.51100000000E-03 0.  1.
         12    1    4    4    0    0 -0.39064742433E+01  0.56589035753E+01  0.57875543139E+01  0.89877425211E+01  0.00000000000E+00 0. -1.
</event>
<event>
 8    1  0.5542925E-011  0.9118800E+02  0.7816164E-02  0.1184000E+00
        -11   -1    0    0    0    0  0.00000000000E+00  0.00000000000E+00  0.45593999997E+02  0.45594000000E+02  0.51100000000E-03 0. -1.
         11   -1    0    0    0    0 -0.00000000000E+00 -0.00000000000E+00 -0.45593999997E+02  0.45594000000E+02  0.51100000000E-03 0.  1.
         23    2    1    2    0    0  0.00000000000E+00  0.00000000000E+00  0.00000000000E+00  0.91188000000E+02  0.91188000000E+02 0.  0.
    9900012    2    3    3    0    0 -0.10767206484E+02  0.39682548070E+02 -0.13891939176E+02  0.47787270388E+02  0.19999997005E+02 0.  0.
         12    1    3    3    0    0  0.10767206484E+02 -0.39682548070E+02  0.13891939176E+02  0.43400729612E+02  0.00000000000E+00 0. -1.
         11    1    4    4    0    0 -0.18278240844E+01  0.29880767884E+00 -0.25892969931E+01  0.31835021740E+01  0.51100000000E-03 0. -1.
        -11    1    4    4    0    0  0.39478795960E+01  0.15644902305E+02 -0.40614678858E+01  0.16638637056E+02  0.51100000000E-03 0.  1.
         12    1    4    4    0    0 -0.12887261996E+02  0.23738838086E+02 -0.72411742969E+01  0.27965131157E+02  0.00000000000E+00 0. -1.
</event>
<event>
 8    1  0.5542925E-011  0.9118800E+02  0.7816164E-02  0.1184000E+00
        -11   -1    0    0    0    0  0.00000000000E+00  0.00000000000E+00  0.45593999997E+02  0.45594000000E+02  0.51100000000E-03 0. -1.
         11   -1    0    0    0    0 -0.00000000000E+00 -0.00000000000E+00 -0.45593999997E+02  0.45594000000E+02  0.51100000000E-03 0.  1.
         23    2    1    2    0    0  0.71054273576E-14  0.88817841970E-15 -0.35527136788E-14  0.91188000000E+02  0.91188000000E+02 0.  0.
    9900012    2    3    3    0    0 -0.34828269242E+02 -0.63506642712E+01  0.25105452998E+02  0.47787273678E+02  0.20000012005E+02 0.  0.
        -12    1    3    3    0    0  0.34828269242E+02  0.63506642712E+01 -0.25105452998E+02  0.43400726322E+02  0.00000000000E+00 0.  1.
         11    1    4    4    0    0 -0.22300968676E+02 -0.87263868066E+01  0.10544143119E+02  0.26166046414E+02  0.51100000000E-03 0. -1.
        -11    1    4    4    0    0 -0.13065396458E+02  0.38458376458E-01  0.99475896259E+01  0.16421345964E+02  0.51100000000E-03 0.  1.
        -12    1    4    4    0    0  0.53809589260E+00  0.23372641589E+01  0.46137202540E+01  0.51998812987E+01  0.00000000000E+00 0.  1.
</event>
<event>
 8    1  0.6680484E-011  0.9118800E+02  0.7816164E-02  0.1184000E+00
        -11   -1    0    0    0    0  0.00000000000E+00  0.00000000000E+00  0.45593999997E+02  0.45594000000E+02  0.51100000000E-03 0.  1.
         11   -1    0    0    0    0 -0.00000000000E+00 -0.00000000000E+00 -0.45593999997E+02  0.45594000000E+02  0.51100000000E-03 0. -1.
         23    2    1    2    0    0 -0.35527136788E-14  0.00000000000E+00  0.00000000000E+00  0.91188000000E+02  0.91188000000E+02 0.  0.
    9900012    2    3    3    0    0 -0.25686267054E+02  0.10207575952E+02  0.33461094358E+02  0.47787265471E+02  0.19999974590E+02 0.  0.
        -12    1    3    3    0    0  0.25686267054E+02 -0.10207575952E+02 -0.33461094358E+02  0.43400734529E+02  0.00000000000E+00 0.  1.
         11    1    4    4    0    0 -0.33613147777E+01  0.53795695628E+01  0.74676858442E+01  0.97981905393E+01  0.51100000000E-03 0. -1.
        -11    1    4    4    0    0  0.89610649077E+00 -0.23009681387E+01  0.61373383329E+01  0.66154654629E+01  0.51100000000E-03 0.  1.
         12    1    4    4    0    0 -0.23221058768E+02  0.71289745282E+01  0.19856070181E+02  0.31373609469E+02  0.00000000000E+00 0. -1.
</event>
<event>
 8    1  0.5542925E-011  0.9118800E+02  0.7816164E-02  0.1184000E+00
        -11   -1    0    0    0    0  0.00000000000E+00  0.00000000000E+00  0.45593999997E+02  0.45594000000E+02  0.51100000000E-03 0. -1.
         11   -1    0    0    0    0 -0.00000000000E+00 -0.00000000000E+00 -0.45593999997E+02  0.45594000000E+02  0.51100000000E-03 0.  1.
         23    2    1    2    0    0  0.00000000000E+00  0.00000000000E+00  0.00000000000E+00  0.91188000000E+02  0.91188000000E+02 0.  0.
    9900012    2    3    3    0    0 -0.25365089189E+02  0.12909006867E+02  0.32765734322E+02  0.47787267822E+02  0.19999985310E+02 0.  0.
        -12    1    3    3    0    0  0.25365089189E+02 -0.12909006867E+02 -0.32765734322E+02  0.43400732178E+02  0.00000000000E+00 0.  1.
         11    1    4    4    0    0  0.14330547910E+01  0.43177286477E+00  0.44138806557E+01  0.46607313315E+01  0.51100000000E-03 0.  1.
        -11    1    4    4    0    0  0.11308032356E+01 -0.64706214633E+00  0.13137746573E+00  0.13094524346E+01  0.51100000000E-03 0. -1.
         12    1    4    4    0    0 -0.27928947216E+02  0.13124296149E+02  0.28220476201E+02  0.41817084056E+02  0.00000000000E+00 0. -1.
</event>
<event>
 8    1  0.5542925E-011  0.9118800E+02  0.7816164E-02  0.1184000E+00
        -11   -1    0    0    0    0  0.00000000000E+00  0.00000000000E+00  0.45593999997E+02  0.45594000000E+02  0.51100000000E-03 0. -1.
         11   -1    0    0    0    0 -0.00000000000E+00 -0.00000000000E+00 -0.45593999997E+02  0.45594000000E+02  0.51100000000E-03 0.  1.
         23    2    1    2    0    0  0.00000000000E+00 -0.35527136788E-14  0.00000000000E+00  0.91188000000E+02  0.91188000000E+02 0.  0.
    9900012    2    3    3    0    0  0.47140042175E+01  0.26822212557E+02 -0.33793051151E+02  0.47787271569E+02  0.20000002393E+02 0.  0.
         12    1    3    3    0    0 -0.47140042175E+01 -0.26822212557E+02  0.33793051151E+02  0.43400728431E+02  0.00000000000E+00 0. -1.
         11    1    4    4    0    0  0.17363012950E+01 -0.12475696345E+01 -0.59645597719E+01  0.63361775317E+01  0.51100000000E-03 0. -1.
        -11    1    4    4    0    0 -0.22990828537E-01  0.48305211081E+01  0.30166685438E+00  0.48399861473E+01  0.51100000000E-03 0.  1.
        -12    1    4    4    0    0  0.30006937511E+01  0.23239261084E+02 -0.28130158233E+02  0.36611107890E+02  0.00000000000E+00 0.  1.
</event>
<event>
 8    1  0.5542925E-011  0.9118800E+02  0.7816164E-02  0.1184000E+00
        -11   -1    0    0    0    0  0.00000000000E+00  0.00000000000E+00  0.45593999997E+02  0.45594000000E+02  0.51100000000E-03 0. -1.
         11   -1    0    0    0    0 -0.00000000000E+00 -0.00000000000E+00 -0.45593999997E+02  0.45594000000E+02  0.51100000000E-03 0.  1.
         23    2    1    2    0    0 -0.17763568394E-14  0.17763568394E-14  0.00000000000E+00  0.91188000000E+02  0.91188000000E+02 0.  0.
    9900012    2    3    3    0    0 -0.10764549240E+02 -0.15194898170E+02 -0.39202843552E+02  0.47787269669E+02  0.19999993728E+02 0.  0.
         12    1    3    3    0    0  0.10764549240E+02  0.15194898170E+02  0.39202843552E+02  0.43400730331E+02  0.00000000000E+00 0. -1.
         11    1    4    4    0    0 -0.24758599461E+00 -0.24159340697E+01 -0.98044602222E-01  0.24305656254E+01  0.51100000000E-03 0. -1.
        -11    1    4    4    0    0 -0.14266367759E+02 -0.12467005574E+02 -0.34925001321E+02  0.39732998811E+02  0.51100000000E-03 0.  1.
         12    1    4    4    0    0  0.37494045132E+01 -0.31195852643E+00 -0.41797976286E+01  0.56237052325E+01  0.00000000000E+00 0. -1.
</event>
<event>
 8    1  0.5542925E-011  0.9118800E+02  0.7816164E-02  0.1184000E+00
        -11   -1    0    0    0    0  0.00000000000E+00  0.00000000000E+00  0.45593999997E+02  0.45594000000E+02  0.51100000000E-03 0. -1.
         11   -1    0    0    0    0 -0.00000000000E+00 -0.00000000000E+00 -0.45593999997E+02  0.45594000000E+02  0.51100000000E-03 0.  1.
         23    2    1    2    0    0 -0.35527136788E-14  0.00000000000E+00  0.00000000000E+00  0.91188000000E+02  0.91188000000E+02 0.  0.
    9900012    2    3    3    0    0  0.15856122987E+02  0.17079069807E+02  0.36613001943E+02  0.47787272207E+02  0.20000005301E+02 0.  0.
        -12    1    3    3    0    0 -0.15856122987E+02 -0.17079069807E+02 -0.36613001943E+02  0.43400727793E+02  0.00000000000E+00 0.  1.
         11    1    4    4    0    0  0.18920297744E+01  0.51906559654E+01  0.12031481124E+02  0.13239306036E+02  0.51100000000E-03 0. -1.
        -11    1    4    4    0    0  0.17525166313E+02  0.10565421945E+02  0.21137974021E+02  0.29420631216E+02  0.51100000000E-03 0.  1.
         12    1    4    4    0    0 -0.35610731008E+01  0.13229918971E+01  0.34435467988E+01  0.51273349554E+01  0.00000000000E+00 0. -1.
</event>
<event>
 8    1  0.5542925E-011  0.9118800E+02  0.7816164E-02  0.1184000E+00
        -11   -1    0    0    0    0  0.00000000000E+00  0.00000000000E+00  0.45593999997E+02  0.45594000000E+02  0.51100000000E-03 0.  1.
         11   -1    0    0    0    0 -0.00000000000E+00 -0.00000000000E+00 -0.45593999997E+02  0.45594000000E+02  0.51100000000E-03 0. -1.
         23    2    1    2    0    0  0.00000000000E+00  0.00000000000E+00 -0.14484941024E-15  0.91188000000E+02  0.91188000000E+02 0.  0.
    9900012    2    3    3    0    0  0.23284663506E+02 -0.36625778512E+02 -0.68203785280E-02  0.47787271289E+02  0.20000001114E+02 0.  0.
         12    1    3    3    0    0 -0.23284663506E+02  0.36625778512E+02  0.68203785280E-02  0.43400728711E+02  0.00000000000E+00 0. -1.
         11    1    4    4    0    0  0.42440554551E+01 -0.37056758638E+01  0.96501756914E+00  0.57162312307E+01  0.51100000000E-03 0. -1.
        -11    1    4    4    0    0 -0.88675098617E+00 -0.15184874303E+02 -0.21852505174E+01  0.15366914296E+02  0.51100000000E-03 0.  1.
        -12    1    4    4    0    0  0.19927359037E+02 -0.17735228345E+02  0.12134125697E+01  0.26704125762E+02  0.00000000000E+00 0.  1.
</event>
<event>
 8    1  0.5542925E-011  0.9118800E+02  0.7816164E-02  0.1184000E+00
        -11   -1    0    0    0    0  0.00000000000E+00  0.00000000000E+00  0.45593999997E+02  0.45594000000E+02  0.51100000000E-03 0. -1.
         11   -1    0    0    0    0 -0.00000000000E+00 -0.00000000000E+00 -0.45593999997E+02  0.45594000000E+02  0.51100000000E-03 0.  1.
         23    2    1    2    0    0  0.00000000000E+00  0.00000000000E+00  0.00000000000E+00  0.91188000000E+02  0.91188000000E+02 0.  0.
    9900012    2    3    3    0    0 -0.35634746002E+02  0.14570246348E+02 -0.20037373859E+02  0.47787267836E+02  0.19999985370E+02 0.  0.
         12    1    3    3    0    0  0.35634746002E+02 -0.14570246348E+02  0.20037373859E+02  0.43400732164E+02  0.00000000000E+00 0. -1.
         11    1    4    4    0    0 -0.65131064580E+01  0.75174549149E+00  0.12929272719E+01  0.66826146237E+01  0.51100000000E-03 0.  1.
        -11    1    4    4    0    0 -0.19634523978E+02  0.95854010513E+01 -0.61292150090E+01  0.22692768056E+02  0.51100000000E-03 0. -1.
         12    1    4    4    0    0 -0.94871155663E+01  0.42330998049E+01 -0.15201086122E+02  0.18411885156E+02  0.00000000000E+00 0. -1.
</event>
<event>
 8    1  0.5542925E-011  0.9118800E+02  0.7816164E-02  0.1184000E+00
        -11   -1    0    0    0    0  0.00000000000E+00  0.00000000000E+00  0.45593999997E+02  0.45594000000E+02  0.51100000000E-03 0. -1.
         11   -1    0    0    0    0 -0.00000000000E+00 -0.00000000000E+00 -0.45593999997E+02  0.45594000000E+02  0.51100000000E-03 0.  1.
         23    2    1    2    0    0  0.00000000000E+00  0.00000000000E+00  0.00000000000E+00  0.91188000000E+02  0.91188000000E+02 0.  0.
    9900012    2    3    3    0    0  0.27868643630E+02  0.14855442979E+02 -0.29770417773E+02  0.47787271224E+02  0.20000000819E+02 0.  0.
         12    1    3    3    0    0 -0.27868643630E+02 -0.14855442979E+02  0.29770417773E+02  0.43400728776E+02  0.00000000000E+00 0. -1.
         11    1    4    4    0    0  0.21230249198E+02  0.10885594025E+02 -0.17235768427E+02  0.29432827792E+02  0.51100000000E-03 0. -1.
        -11    1    4    4    0    0  0.81869682095E+01 -0.35746002717E+00 -0.10522932565E+02  0.13337403651E+02  0.51100000000E-03 0.  1.
        -12    1    4    4    0    0 -0.15485737770E+01  0.43273089808E+01 -0.20117167817E+01  0.50170397814E+01  0.00000000000E+00 0.  1.
</event>
<event>
 8    1  0.5542925E-011  0.9118800E+02  0.7816164E-02  0.1184000E+00
        -11   -1    0    0    0    0  0.00000000000E+00  0.00000000000E+00  0.45593999997E+02  0.45594000000E+02  0.51100000000E-03 0. -1.
         11   -1    0    0    0    0 -0.00000000000E+00 -0.00000000000E+00 -0.45593999997E+02  0.45594000000E+02  0.51100000000E-03 0.  1.
         23    2    1    2    0    0  0.22204460493E-15  0.00000000000E+00  0.00000000000E+00  0.91188000000E+02  0.91188000000E+02 0.  0.
    9900012    2    3    3    0    0 -0.16631403432E+01  0.64975726011E+01 -0.42879355205E+02  0.47787267422E+02  0.19999983482E+02 0.  0.
         12    1    3    3    0    0  0.16631403432E+01 -0.64975726011E+01  0.42879355205E+02  0.43400732578E+02  0.00000000000E+00 0. -1.
         11    1    4    4    0    0  0.19728437384E+01  0.27390094769E+01 -0.15176877439E+01  0.37010352173E+01  0.51100000000E-03 0. -1.
        -11    1    4    4    0    0 -0.23859632226E+01 -0.41377769797E+01 -0.52392463715E+01  0.70896912229E+01  0.51100000000E-03 0.  1.
        -12    1    4    4    0    0 -0.12500208589E+01  0.78963401039E+01 -0.36122421090E+02  0.36996540981E+02  0.00000000000E+00 0.  1.
</event>
<event>
 8    1  0.5542925E-011  0.9118800E+02  0.7816164E-02  0.1184000E+00
        -11   -1    0    0    0    0  0.00000000000E+00  0.00000000000E+00  0.45593999997E+02  0.45594000000E+02  0.51100000000E-03 0.  1.
         11   -1    0    0    0    0 -0.00000000000E+00 -0.00000000000E+00 -0.45593999997E+02  0.45594000000E+02  0.51100000000E-03 0. -1.
         23    2    1    2    0    0  0.00000000000E+00  0.00000000000E+00  0.00000000000E+00  0.91188000000E+02  0.91188000000E+02 0.  0.
    9900012    2    3    3    0    0 -0.32070608030E+02 -0.26795120447E+02 -0.11709858362E+02  0.47787272333E+02  0.20000005876E+02 0.  0.
         12    1    3    3    0    0  0.32070608030E+02  0.26795120447E+02  0.11709858362E+02  0.43400727667E+02  0.00000000000E+00 0. -1.
         11    1    4    4    0    0 -0.16615087368E+02 -0.83493675522E+01 -0.19381961472E+01  0.18695712646E+02  0.51100000000E-03 0.  1.
        -11    1    4    4    0    0 -0.15634410622E+02 -0.12575798163E+02 -0.32682238232E+01  0.20328964120E+02  0.51100000000E-03 0. -1.
         12    1    4    4    0    0  0.17888996100E+00 -0.58699547309E+01 -0.65034383921E+01  0.87625955676E+01  0.00000000000E+00 0. -1.
</event>
<event>
 8    1  0.5542925E-011  0.9118800E+02  0.7816164E-02  0.1184000E+00
        -11   -1    0    0    0    0  0.00000000000E+00  0.00000000000E+00  0.45593999997E+02  0.45594000000E+02  0.51100000000E-03 0. -1.
         11   -1    0    0    0    0 -0.00000000000E+00 -0.00000000000E+00 -0.45593999997E+02  0.45594000000E+02  0.51100000000E-03 0.  1.
         23    2    1    2    0    0 -0.35527136788E-14  0.00000000000E+00  0.00000000000E+00  0.91188000000E+02  0.91188000000E+02 0.  0.
    9900012    2    3    3    0    0  0.26442817009E+02 -0.27666782856E+02  0.20468266683E+02  0.47787269753E+02  0.19999994112E+02 0.  0.
        -12    1    3    3    0    0 -0.26442817009E+02  0.27666782856E+02 -0.20468266683E+02  0.43400730247E+02  0.00000000000E+00 0.  1.
         11    1    4    4    0    0  0.44127700854E+01 -0.23163213934E+01  0.55715926303E+01  0.74753280412E+01  0.51100000000E-03 0.  1.
        -11    1    4    4    0    0  0.49238817547E+01  0.46201777155E+00  0.66115413993E+01  0.82565460026E+01  0.51100000000E-03 0. -1.
         12    1    4    4    0    0  0.17106165169E+02 -0.25812479234E+02  0.82851326531E+01  0.32055395709E+02  0.00000000000E+00 0. -1.
</event>
<event>
 8    1  0.5542925E-011  0.9118800E+02  0.7816164E-02  0.1184000E+00
        -11   -1    0    0    0    0  0.00000000000E+00  0.00000000000E+00  0.45593999997E+02  0.45594000000E+02  0.51100000000E-03 0. -1.
         11   -1    0    0    0    0 -0.00000000000E+00 -0.00000000000E+00 -0.45593999997E+02  0.45594000000E+02  0.51100000000E-03 0.  1.
         23    2    1    2    0    0  0.00000000000E+00  0.00000000000E+00  0.00000000000E+00  0.91188000000E+02  0.91188000000E+02 0.  0.
    9900012    2    3    3    0    0 -0.45327876789E+01  0.24351402743E+02  0.35638266964E+02  0.47787273602E+02  0.20000011661E+02 0.  0.
        -12    1    3    3    0    0  0.45327876789E+01 -0.24351402743E+02 -0.35638266964E+02  0.43400726398E+02  0.00000000000E+00 0.  1.
         11    1    4    4    0    0  0.27886994976E+00  0.49765299263E+01  0.63829373199E+01  0.80984879852E+01  0.51100000000E-03 0. -1.
        -11    1    4    4    0    0 -0.28789644493E+01  0.16386130046E+01 -0.18763713692E+01  0.38071326028E+01  0.51100000000E-03 0.  1.
        -12    1    4    4    0    0 -0.19326931794E+01  0.17736259812E+02  0.31131701013E+02  0.35881653014E+02  0.00000000000E+00 0.  1.
</event>
<event>
 8    1  0.5542925E-011  0.9118800E+02  0.7816164E-02  0.1184000E+00
        -11   -1    0    0    0    0  0.00000000000E+00  0.00000000000E+00  0.45593999997E+02  0.45594000000E+02  0.51100000000E-03 0. -1.
         11   -1    0    0    0    0 -0.00000000000E+00 -0.00000000000E+00 -0.45593999997E+02  0.45594000000E+02  0.51100000000E-03 0.  1.
         23    2    1    2    0    0  0.00000000000E+00 -0.17763568394E-14  0.00000000000E+00  0.91188000000E+02  0.91188000000E+02 0.  0.
    9900012    2    3    3    0    0 -0.32091171142E+02 -0.12375100468E+02  0.26469532163E+02  0.47787279847E+02  0.20000040133E+02 0.  0.
        -12    1    3    3    0    0  0.32091171142E+02  0.12375100468E+02 -0.26469532163E+02  0.43400720153E+02  0.00000000000E+00 0.  1.
         11    1    4    4    0    0 -0.22891273745E+01 -0.35434122198E+01  0.36099848333E+00  0.42339336866E+01  0.51100000000E-03 0. -1.
        -11    1    4    4    0    0 -0.15230667441E+02  0.15037497643E+01  0.54603465719E+01  0.16249611657E+02  0.51100000000E-03 0.  1.
         12    1    4    4    0    0 -0.14571376327E+02 -0.10335438013E+02  0.20648187108E+02  0.27303734503E+02  0.00000000000E+00 0. -1.
</event>
<event>
 8    1  0.5542925E-011  0.9118800E+02  0.7816164E-02  0.1184000E+00
        -11   -1    0    0    0    0  0.00000000000E+00  0.00000000000E+00  0.45593999997E+02  0.45594000000E+02  0.51100000000E-03 0. -1.
         11   -1    0    0    0    0 -0.00000000000E+00 -0.00000000000E+00 -0.45593999997E+02  0.45594000000E+02  0.51100000000E-03 0.  1.
         23    2    1    2    0    0 -0.35527136788E-14  0.17763568394E-14  0.00000000000E+00  0.91188000000E+02  0.91188000000E+02 0.  0.
    9900012    2    3    3    0    0 -0.31601216717E+02 -0.27735680199E+01  0.29619075596E+02  0.47787317785E+02  0.20000213109E+02 0.  0.
        -12    1    3    3    0    0  0.31601216717E+02  0.27735680199E+01 -0.29619075596E+02  0.43400682215E+02  0.00000000000E+00 0.  1.
         11    1    4    4    0    0 -0.10566988402E+02 -0.32236071185E+01  0.90651180334E+01  0.14290880027E+02  0.51100000000E-03 0. -1.
        -11    1    4    4    0    0 -0.18076478034E+02 -0.62468164285E+01  0.14654218684E+02  0.24094146574E+02  0.51100000000E-03 0.  1.
         12    1    4    4    0    0 -0.29577502805E+01  0.66968555271E+01  0.58997388790E+01  0.94022911842E+01  0.00000000000E+00 0. -1.
</event>
<event>
 8    1  0.5542925E-011  0.9118800E+02  0.7816164E-02  0.1184000E+00
        -11   -1    0    0    0    0  0.00000000000E+00  0.00000000000E+00  0.45593999997E+02  0.45594000000E+02  0.51100000000E-03 0. -1.
         11   -1    0    0    0    0 -0.00000000000E+00 -0.00000000000E+00 -0.45593999997E+02  0.45594000000E+02  0.51100000000E-03 0.  1.
         23    2    1    2    0    0  0.88817841970E-15  0.00000000000E+00  0.00000000000E+00  0.91188000000E+02  0.91188000000E+02 0.  0.
    9900012    2    3    3    0    0 -0.52387612516E+01  0.96847902811E+01  0.41980758683E+02  0.47787264040E+02  0.19999968063E+02 0.  0.
        -12    1    3    3    0    0  0.52387612516E+01 -0.96847902811E+01 -0.41980758683E+02  0.43400735960E+02  0.00000000000E+00 0.  1.
         11    1    4    4    0    0 -0.49328897496E+01 -0.11695783528E+01  0.11253871583E+02  0.12343052324E+02  0.51100000000E-03 0. -1.
        -11    1    4    4    0    0  0.45348067691E+01  0.97934222277E+00  0.18166552148E+02  0.18749592018E+02  0.51100000000E-03 0.  1.
        -12    1    4    4    0    0 -0.48406782711E+01  0.98750264112E+01  0.12560334952E+02  0.16694619698E+02  0.00000000000E+00 0.  1.
</event>
<event>
 8    1  0.5542925E-011  0.9118800E+02  0.7816164E-02  0.1184000E+00
        -11   -1    0    0    0    0  0.00000000000E+00  0.00000000000E+00  0.45593999997E+02  0.45594000000E+02  0.51100000000E-03 0. -1.
         11   -1    0    0    0    0 -0.00000000000E+00 -0.00000000000E+00 -0.45593999997E+02  0.45594000000E+02  0.51100000000E-03 0.  1.
         23    2    1    2    0    0  0.00000000000E+00  0.35527136788E-14  0.00000000000E+00  0.91188000000E+02  0.91188000000E+02 0.  0.
    9900012    2    3    3    0    0 -0.23136314436E+02  0.22877731155E+02 -0.28721830060E+02  0.47787272466E+02  0.20000006481E+02 0.  0.
         12    1    3    3    0    0  0.23136314436E+02 -0.22877731155E+02  0.28721830060E+02  0.43400727534E+02  0.00000000000E+00 0. -1.
         11    1    4    4    0    0 -0.13985696914E+02  0.11055968676E+02 -0.51270425929E+01  0.18550491302E+02  0.51100000000E-03 0. -1.
        -11    1    4    4    0    0 -0.33264319110E+01 -0.74775147400E+00 -0.44792434290E+01  0.56292009631E+01  0.51100000000E-03 0.  1.
         12    1    4    4    0    0 -0.58241856108E+01  0.12569513953E+02 -0.19115544038E+02  0.23607580201E+02  0.00000000000E+00 0. -1.
</event>
<event>
 8    1  0.5542925E-011  0.9118800E+02  0.7816164E-02  0.1184000E+00
        -11   -1    0    0    0    0  0.00000000000E+00  0.00000000000E+00  0.45593999997E+02  0.45594000000E+02  0.51100000000E-03 0. -1.
         11   -1    0    0    0    0 -0.00000000000E+00 -0.00000000000E+00 -0.45593999997E+02  0.45594000000E+02  0.51100000000E-03 0.  1.
         23    2    1    2    0    0  0.00000000000E+00  0.00000000000E+00  0.00000000000E+00  0.91188000000E+02  0.91188000000E+02 0.  0.
    9900012    2    3    3    0    0 -0.44125845064E+01 -0.65631538173E+01 -0.42674081428E+02  0.47787272866E+02  0.20000008306E+02 0.  0.
         12    1    3    3    0    0  0.44125845064E+01  0.65631538173E+01  0.42674081428E+02  0.43400727134E+02  0.00000000000E+00 0. -1.
         11    1    4    4    0    0  0.15166955452E+01  0.65976579731E+01 -0.12681068591E+02  0.14374941981E+02  0.51100000000E-03 0. -1.
        -11    1    4    4    0    0 -0.10310271188E-02 -0.26248843980E+01 -0.48897862028E+01  0.55497773412E+01  0.51100000000E-03 0.  1.
         12    1    4    4    0    0 -0.59282490245E+01 -0.10535927392E+02 -0.25103226634E+02  0.27862553543E+02  0.00000000000E+00 0. -1.
</event>
<event>
 8    1  0.5542925E-011  0.9118800E+02  0.7816164E-02  0.1184000E+00
        -11   -1    0    0    0    0  0.00000000000E+00  0.00000000000E+00  0.45593999997E+02  0.45594000000E+02  0.51100000000E-03 0.  1.
         11   -1    0    0    0    0 -0.00000000000E+00 -0.00000000000E+00 -0.45593999997E+02  0.45594000000E+02  0.51100000000E-03 0. -1.
         23    2    1    2    0    0  0.71054273576E-14  0.00000000000E+00  0.00000000000E+00  0.91188000000E+02  0.91188000000E+02 0.  0.
    9900012    2    3    3    0    0  0.34057070670E+02 -0.16935663903E+02 -0.20902669751E+02  0.47787281375E+02  0.20000047100E+02 0.  0.
         12    1    3    3    0    0 -0.34057070670E+02  0.16935663903E+02  0.20902669751E+02  0.43400718625E+02  0.00000000000E+00 0. -1.
         11    1    4    4    0    0  0.64232856473E+01  0.24477454629E+00 -0.39769562627E+01  0.75587495303E+01  0.51100000000E-03 0. -1.
        -11    1    4    4    0    0  0.60893249035E+01 -0.44514987247E+00 -0.10586624181E+02  0.12221073930E+02  0.51100000000E-03 0.  1.
         12    1    4    4    0    0  0.21544460119E+02 -0.16735288577E+02 -0.63390893072E+01  0.28007457914E+02  0.00000000000E+00 0. -1.
</event>
<event>
 8    1  0.5542925E-011  0.9118800E+02  0.7816164E-02  0.1184000E+00
        -11   -1    0    0    0    0  0.00000000000E+00  0.00000000000E+00  0.45593999997E+02  0.45594000000E+02  0.51100000000E-03 0.  1.
         11   -1    0    0    0    0 -0.00000000000E+00 -0.00000000000E+00 -0.45593999997E+02  0.45594000000E+02  0.51100000000E-03 0. -1.
         23    2    1    2    0    0  0.00000000000E+00  0.71054273576E-14  0.17763568394E-14  0.91188000000E+02  0.91188000000E+02 0.  0.
    9900012    2    3    3    0    0  0.14054365789E+02  0.37992928377E+02  0.15576762470E+02  0.47787270358E+02  0.19999996871E+02 0.  0.
        -12    1    3    3    0    0 -0.14054365789E+02 -0.37992928377E+02 -0.15576762470E+02  0.43400729642E+02  0.00000000000E+00 0.  1.
         11    1    4    4    0    0  0.29761414626E+01  0.74225729073E+01  0.26065216848E+01  0.84110618904E+01  0.51100000000E-03 0. -1.
        -11    1    4    4    0    0 -0.32845875241E+01  0.62711652852E+01  0.80568705890E+01  0.10725166348E+02  0.51100000000E-03 0.  1.
         12    1    4    4    0    0  0.14362811850E+02  0.24299190185E+02  0.49133701966E+01  0.28651042120E+02  0.00000000000E+00 0. -1.
</event>
<event>
 8    1  0.7121480E-011  0.9118800E+02  0.7816164E-02  0.1184000E+00
        -11   -1    0    0    0    0  0.00000000000E+00  0.00000000000E+00  0.45593999997E+02  0.45594000000E+02  0.51100000000E-03 0. -1.
         11   -1    0    0    0    0 -0.00000000000E+00 -0.00000000000E+00 -0.45593999997E+02  0.45594000000E+02  0.51100000000E-03 0.  1.
         23    2    1    2    0    0  0.35527136788E-14  0.00000000000E+00  0.00000000000E+00  0.91188000000E+02  0.91188000000E+02 0.  0.
    9900012    2    3    3    0    0  0.20699447948E+02  0.42544477842E+01  0.37908521505E+02  0.47787268739E+02  0.19999989488E+02 0.  0.
        -12    1    3    3    0    0 -0.20699447948E+02 -0.42544477842E+01 -0.37908521505E+02  0.43400731261E+02  0.00000000000E+00 0.  1.
         11    1    4    4    0    0  0.17022740670E+02  0.53637856643E+01  0.24029051490E+02  0.29932243690E+02  0.51100000000E-03 0. -1.
        -11    1    4    4    0    0  0.54513686712E+00  0.45855586016E+01  0.70467870824E+01  0.84250655985E+01  0.51100000000E-03 0.  1.
         12    1    4    4    0    0  0.31315704111E+01 -0.56948964816E+01  0.68326829329E+01  0.94299594505E+01  0.00000000000E+00 0. -1.
</event>
<event>
 8    1  0.5542925E-011  0.9118800E+02  0.7816164E-02  0.1184000E+00
        -11   -1    0    0    0    0  0.00000000000E+00  0.00000000000E+00  0.45593999997E+02  0.45594000000E+02  0.51100000000E-03 0. -1.
         11   -1    0    0    0    0 -0.00000000000E+00 -0.00000000000E+00 -0.45593999997E+02  0.45594000000E+02  0.51100000000E-03 0.  1.
         23    2    1    2    0    0  0.00000000000E+00  0.00000000000E+00  0.00000000000E+00  0.91188000000E+02  0.91188000000E+02 0.  0.
    9900012    2    3    3    0    0  0.37752239872E+02 -0.12987441956E+02 -0.17021045045E+02  0.47787294495E+02  0.20000106922E+02 0.  0.
         12    1    3    3    0    0 -0.37752239872E+02  0.12987441956E+02  0.17021045045E+02  0.43400705505E+02  0.00000000000E+00 0. -1.
         11    1    4    4    0    0  0.31017488063E+02 -0.13027373803E+02 -0.79160921044E+01  0.34560983036E+02  0.51100000000E-03 0. -1.
        -11    1    4    4    0    0  0.69999206824E+01 -0.21803370161E+01 -0.65531966185E+01  0.98334706612E+01  0.51100000000E-03 0.  1.
        -12    1    4    4    0    0 -0.26516887385E+00  0.22202688631E+01 -0.25517563216E+01  0.33928407981E+01  0.00000000000E+00 0.  1.
</event>
<event>
 8    1  0.5542925E-011  0.9118800E+02  0.7816164E-02  0.1184000E+00
        -11   -1    0    0    0    0  0.00000000000E+00  0.00000000000E+00  0.45593999997E+02  0.45594000000E+02  0.51100000000E-03 0. -1.
         11   -1    0    0    0    0 -0.00000000000E+00 -0.00000000000E+00 -0.45593999997E+02  0.45594000000E+02  0.51100000000E-03 0.  1.
         23    2    1    2    0    0 -0.33306690739E-15  0.88817841970E-15  0.71054273576E-14  0.91188000000E+02  0.91188000000E+02 0.  0.
    9900012    2    3    3    0    0  0.66551437389E+00 -0.49309152577E+01 -0.43114565380E+02  0.47787279009E+02  0.20000036314E+02 0.  0.
         12    1    3    3    0    0 -0.66551437389E+00  0.49309152577E+01  0.43114565380E+02  0.43400720991E+02  0.00000000000E+00 0. -1.
         11    1    4    4    0    0 -0.27225646815E+01  0.20330744990E+01  0.35521709170E+00  0.34164206133E+01  0.51100000000E-03 0. -1.
        -11    1    4    4    0    0  0.14400078198E+01 -0.23168659611E+00 -0.35075102698E+01  0.37986747366E+01  0.51100000000E-03 0.  1.
         12    1    4    4    0    0  0.19480712356E+01 -0.67323031606E+01 -0.39962272201E+02  0.40572183659E+02  0.00000000000E+00 0. -1.
</event>
<event>
 8    1  0.5542925E-011  0.9118800E+02  0.7816164E-02  0.1184000E+00
        -11   -1    0    0    0    0  0.00000000000E+00  0.00000000000E+00  0.45593999997E+02  0.45594000000E+02  0.51100000000E-03 0. -1.
         11   -1    0    0    0    0 -0.00000000000E+00 -0.00000000000E+00 -0.45593999997E+02  0.45594000000E+02  0.51100000000E-03 0.  1.
         23    2    1    2    0    0  0.35527136788E-14  0.00000000000E+00  0.00000000000E+00  0.91188000000E+02  0.91188000000E+02 0.  0.
    9900012    2    3    3    0    0  0.20532115436E+02 -0.34994490834E+02  0.15409122607E+02  0.47787271751E+02  0.20000003222E+02 0.  0.
        -12    1    3    3    0    0 -0.20532115436E+02  0.34994490834E+02 -0.15409122607E+02  0.43400728249E+02  0.00000000000E+00 0.  1.
         11    1    4    4    0    0  0.30600253152E+01 -0.62881908746E+01  0.65079737053E+01  0.95529483100E+01  0.51100000000E-03 0. -1.
        -11    1    4    4    0    0 -0.28115752017E+01 -0.27927847495E+01  0.25686691090E+01  0.47225695362E+01  0.51100000000E-03 0.  1.
        -12    1    4    4    0    0  0.20283665322E+02 -0.25913515210E+02  0.63324797922E+01  0.33511753905E+02  0.00000000000E+00 0.  1.
</event>
<event>
 8    1  0.5542925E-011  0.9118800E+02  0.7816164E-02  0.1184000E+00
        -11   -1    0    0    0    0  0.00000000000E+00  0.00000000000E+00  0.45593999997E+02  0.45594000000E+02  0.51100000000E-03 0. -1.
         11   -1    0    0    0    0 -0.00000000000E+00 -0.00000000000E+00 -0.45593999997E+02  0.45594000000E+02  0.51100000000E-03 0.  1.
         23    2    1    2    0    0 -0.17763568394E-14 -0.35527136788E-14 -0.71054273576E-14  0.91188000000E+02  0.91188000000E+02 0.  0.
    9900012    2    3    3    0    0  0.10330977128E+02  0.18010327219E+02  0.38111969488E+02  0.47787271974E+02  0.20000004238E+02 0.  0.
        -12    1    3    3    0    0 -0.10330977128E+02 -0.18010327219E+02 -0.38111969488E+02  0.43400728026E+02  0.00000000000E+00 0.  1.
         11    1    4    4    0    0  0.18763467403E+01  0.47207438253E+00  0.14742506978E+01  0.24324774805E+01  0.51100000000E-03 0.  1.
        -11    1    4    4    0    0  0.14257803363E+02  0.11898675907E+02  0.27009146073E+02  0.32777391856E+02  0.51100000000E-03 0. -1.
        -12    1    4    4    0    0 -0.58031729747E+01  0.56395769299E+01  0.96285727173E+01  0.12577402637E+02  0.00000000000E+00 0.  1.
</event>
<event>
 8    1  0.5542925E-011  0.9118800E+02  0.7816164E-02  0.1184000E+00
        -11   -1    0    0    0    0  0.00000000000E+00  0.00000000000E+00  0.45593999997E+02  0.45594000000E+02  0.51100000000E-03 0. -1.
         11   -1    0    0    0    0 -0.00000000000E+00 -0.00000000000E+00 -0.45593999997E+02  0.45594000000E+02  0.51100000000E-03 0.  1.
         23    2    1    2    0    0  0.00000000000E+00  0.00000000000E+00  0.22204460493E-15  0.91188000000E+02  0.91188000000E+02 0.  0.
    9900012    2    3    3    0    0 -0.14802340440E+02 -0.40772250426E+02 -0.14621046758E+01  0.47787269161E+02  0.19999991412E+02 0.  0.
         12    1    3    3    0    0  0.14802340440E+02  0.40772250426E+02  0.14621046758E+01  0.43400730839E+02  0.00000000000E+00 0. -1.
         11    1    4    4    0    0 -0.17375324447E+01  0.16945322311E+01  0.16129906324E+01  0.29141375259E+01  0.51100000000E-03 0. -1.
        -11    1    4    4    0    0 -0.49985732120E+01 -0.92477410648E+01  0.34702778936E+00  0.10517931237E+02  0.51100000000E-03 0.  1.
         12    1    4    4    0    0 -0.80662347829E+01 -0.33219041592E+02 -0.34221230976E+01  0.34355200398E+02  0.00000000000E+00 0. -1.
</event>
<event>
 8    1  0.5542925E-011  0.9118800E+02  0.7816164E-02  0.1184000E+00
        -11   -1    0    0    0    0  0.00000000000E+00  0.00000000000E+00  0.45593999997E+02  0.45594000000E+02  0.51100000000E-03 0.  1.
         11   -1    0    0    0    0 -0.00000000000E+00 -0.00000000000E+00 -0.45593999997E+02  0.45594000000E+02  0.51100000000E-03 0. -1.
         23    2    1    2    0    0  0.00000000000E+00  0.00000000000E+00  0.00000000000E+00  0.91188000000E+02  0.91188000000E+02 0.  0.
    9900012    2    3    3    0    0  0.31769845741E+02  0.17328303688E+02 -0.23958930559E+02  0.47787267741E+02  0.19999984938E+02 0.  0.
         12    1    3    3    0    0 -0.31769845741E+02 -0.17328303688E+02  0.23958930559E+02  0.43400732259E+02  0.00000000000E+00 0. -1.
         11    1    4    4    0    0  0.92395787266E+01  0.23666698415E+01 -0.12250216050E+02  0.15525422208E+02  0.51100000000E-03 0. -1.
        -11    1    4    4    0    0  0.15467141549E+02  0.27533145335E+01 -0.41015341278E+01  0.16236865186E+02  0.51100000000E-03 0.  1.
         12    1    4    4    0    0  0.70631254660E+01  0.12208319313E+02 -0.76071803807E+01  0.16024980347E+02  0.00000000000E+00 0. -1.
</event>
<event>
 8    1  0.5542925E-011  0.9118800E+02  0.7816164E-02  0.1184000E+00
        -11   -1    0    0    0    0  0.00000000000E+00  0.00000000000E+00  0.45593999997E+02  0.45594000000E+02  0.51100000000E-03 0. -1.
         11   -1    0    0    0    0 -0.00000000000E+00 -0.00000000000E+00 -0.45593999997E+02  0.45594000000E+02  0.51100000000E-03 0.  1.
         23    2    1    2    0    0  0.00000000000E+00  0.17763568394E-14  0.00000000000E+00  0.91188000000E+02  0.91188000000E+02 0.  0.
    9900012    2    3    3    0    0 -0.19819352894E+02  0.85947686332E+01  0.37642349138E+02  0.47787271370E+02  0.20000001485E+02 0.  0.
        -12    1    3    3    0    0  0.19819352894E+02 -0.85947686332E+01 -0.37642349138E+02  0.43400728630E+02  0.00000000000E+00 0.  1.
         11    1    4    4    0    0 -0.14791105666E+02  0.50213200348E+01  0.19908746624E+02  0.25305111225E+02  0.51100000000E-03 0. -1.
        -11    1    4    4    0    0 -0.76398321290E+01 -0.23541714409E+00  0.15647696183E+02  0.17414730899E+02  0.51100000000E-03 0.  1.
        -12    1    4    4    0    0  0.26115849016E+01  0.38088657424E+01  0.20859063314E+01  0.50674292462E+01  0.00000000000E+00 0.  1.
</event>
<event>
 8    1  0.5542925E-011  0.9118800E+02  0.7816164E-02  0.1184000E+00
        -11   -1    0    0    0    0  0.00000000000E+00  0.00000000000E+00  0.45593999997E+02  0.45594000000E+02  0.51100000000E-03 0. -1.
         11   -1    0    0    0    0 -0.00000000000E+00 -0.00000000000E+00 -0.45593999997E+02  0.45594000000E+02  0.51100000000E-03 0.  1.
         23    2    1    2    0    0  0.00000000000E+00  0.35527136788E-14  0.00000000000E+00  0.91188000000E+02  0.91188000000E+02 0.  0.
    9900012    2    3    3    0    0 -0.18502486169E+02  0.21718537618E+02  0.32704530435E+02  0.47787272107E+02  0.20000004844E+02 0.  0.
        -12    1    3    3    0    0  0.18502486169E+02 -0.21718537618E+02 -0.32704530435E+02  0.43400727893E+02  0.00000000000E+00 0.  1.
         11    1    4    4    0    0 -0.80592216876E+01  0.35035615292E+01  0.68865255931E+01  0.11164686857E+02  0.51100000000E-03 0. -1.
        -11    1    4    4    0    0 -0.82246513456E+01  0.18909648100E+02  0.27032501982E+02  0.33999644773E+02  0.51100000000E-03 0.  1.
        -12    1    4    4    0    0 -0.22186131356E+01 -0.69467201131E+00 -0.12144971396E+01  0.26229404779E+01  0.00000000000E+00 0.  1.
</event>
<event>
 8    1  0.5542925E-011  0.9118800E+02  0.7816164E-02  0.1184000E+00
        -11   -1    0    0    0    0  0.00000000000E+00  0.00000000000E+00  0.45593999997E+02  0.45594000000E+02  0.51100000000E-03 0. -1.
         11   -1    0    0    0    0 -0.00000000000E+00 -0.00000000000E+00 -0.45593999997E+02  0.45594000000E+02  0.51100000000E-03 0.  1.
         23    2    1    2    0    0  0.00000000000E+00  0.17763568394E-14  0.00000000000E+00  0.91188000000E+02  0.91188000000E+02 0.  0.
    9900012    2    3    3    0    0 -0.10472075814E+02  0.11413598403E+02  0.40542430919E+02  0.47787270684E+02  0.19999998357E+02 0.  0.
        -12    1    3    3    0    0  0.10472075814E+02 -0.11413598403E+02 -0.40542430919E+02  0.43400729316E+02  0.00000000000E+00 0.  1.
         11    1    4    4    0    0 -0.55850122341E+01  0.18553582725E+01  0.13628375673E+02  0.14844774829E+02  0.51100000000E-03 0. -1.
        -11    1    4    4    0    0  0.45176610183E+01  0.61130272071E+01  0.17981197706E+02  0.19521829676E+02  0.51100000000E-03 0.  1.
        -12    1    4    4    0    0 -0.94047245984E+01  0.34452129239E+01  0.89328575398E+01  0.13420666179E+02  0.00000000000E+00 0.  1.
</event>
<event>
 8    1  0.5542925E-011  0.9118800E+02  0.7816164E-02  0.1184000E+00
        -11   -1    0    0    0    0  0.00000000000E+00  0.00000000000E+00  0.45593999997E+02  0.45594000000E+02  0.51100000000E-03 0. -1.
         11   -1    0    0    0    0 -0.00000000000E+00 -0.00000000000E+00 -0.45593999997E+02  0.45594000000E+02  0.51100000000E-03 0.  1.
         23    2    1    2    0    0  0.00000000000E+00  0.17763568394E-14  0.00000000000E+00  0.91188000000E+02  0.91188000000E+02 0.  0.
    9900012    2    3    3    0    0  0.13994748773E+02 -0.87791133806E+01 -0.40133494754E+02  0.47787271594E+02  0.20000002508E+02 0.  0.
         12    1    3    3    0    0 -0.13994748773E+02  0.87791133806E+01  0.40133494754E+02  0.43400728406E+02  0.00000000000E+00 0. -1.
         11    1    4    4    0    0  0.85340316517E+00  0.35547719691E+01 -0.64270010189E+01  0.73939869538E+01  0.51100000000E-03 0. -1.
        -11    1    4    4    0    0  0.19827244555E+01  0.18942263423E+01 -0.81744027597E+00  0.28613805354E+01  0.51100000000E-03 0.  1.
        -12    1    4    4    0    0  0.11158621152E+02 -0.14228111692E+02 -0.32889053459E+02  0.37531904105E+02  0.00000000000E+00 0.  1.
</event>
<event>
 8    1  0.5542925E-011  0.9118800E+02  0.7816164E-02  0.1184000E+00
        -11   -1    0    0    0    0  0.00000000000E+00  0.00000000000E+00  0.45593999997E+02  0.45594000000E+02  0.51100000000E-03 0. -1.
         11   -1    0    0    0    0 -0.00000000000E+00 -0.00000000000E+00 -0.45593999997E+02  0.45594000000E+02  0.51100000000E-03 0.  1.
         23    2    1    2    0    0  0.35527136788E-14 -0.35527136788E-14 -0.35527136788E-14  0.91188000000E+02  0.91188000000E+02 0.  0.
    9900012    2    3    3    0    0 -0.26850227791E+02  0.26218183644E+02  0.21801274179E+02  0.47787269110E+02  0.19999991179E+02 0.  0.
        -12    1    3    3    0    0  0.26850227791E+02 -0.26218183644E+02 -0.21801274179E+02  0.43400730890E+02  0.00000000000E+00 0.  1.
         11    1    4    4    0    0 -0.18940219320E+02  0.18641365178E+02  0.17219900399E+02  0.31666344494E+02  0.51100000000E-03 0. -1.
        -11    1    4    4    0    0 -0.81671079408E+01  0.56941319449E+01  0.76197117389E+01  0.12537336159E+02  0.51100000000E-03 0.  1.
         12    1    4    4    0    0  0.25709946998E+00  0.18826865212E+01 -0.30383379592E+01  0.35835884570E+01  0.00000000000E+00 0. -1.
</event>
<event>
 8    1  0.5542925E-011  0.9118800E+02  0.7816164E-02  0.1184000E+00
        -11   -1    0    0    0    0  0.00000000000E+00  0.00000000000E+00  0.45593999997E+02  0.45594000000E+02  0.51100000000E-03 0. -1.
         11   -1    0    0    0    0 -0.00000000000E+00 -0.00000000000E+00 -0.45593999997E+02  0.45594000000E+02  0.51100000000E-03 0.  1.
         23    2    1    2    0    0 -0.17763568394E-14  0.00000000000E+00  0.00000000000E+00  0.91188000000E+02  0.91188000000E+02 0.  0.
    9900012    2    3    3    0    0 -0.10259077061E+02  0.23451637011E+02  0.35048469881E+02  0.47787272107E+02  0.20000004845E+02 0.  0.
        -12    1    3    3    0    0  0.10259077061E+02 -0.23451637011E+02 -0.35048469881E+02  0.43400727893E+02  0.00000000000E+00 0.  1.
         11    1    4    4    0    0 -0.61053526745E+01  0.17269454621E+02  0.19997746365E+02  0.27118614532E+02  0.51100000000E-03 0. -1.
        -11    1    4    4    0    0 -0.36126460789E+01  0.52622035283E+01  0.17157840957E+02  0.18306651912E+02  0.51100000000E-03 0.  1.
        -12    1    4    4    0    0 -0.54107830742E+00  0.91997886186E+00 -0.21071174412E+01  0.23620056630E+01  0.00000000000E+00 0.  1.
</event>
<event>
 8    1  0.5542925E-011  0.9118800E+02  0.7816164E-02  0.1184000E+00
        -11   -1    0    0    0    0  0.00000000000E+00  0.00000000000E+00  0.45593999997E+02  0.45594000000E+02  0.51100000000E-03 0. -1.
         11   -1    0    0    0    0 -0.00000000000E+00 -0.00000000000E+00 -0.45593999997E+02  0.45594000000E+02  0.51100000000E-03 0.  1.
         23    2    1    2    0    0  0.00000000000E+00  0.00000000000E+00  0.00000000000E+00  0.91188000000E+02  0.91188000000E+02 0.  0.
    9900012    2    3    3    0    0  0.78130096096E+01 -0.25005520146E+02  0.34602080138E+02  0.47787272969E+02  0.20000008775E+02 0.  0.
        -12    1    3    3    0    0 -0.78130096096E+01  0.25005520146E+02 -0.34602080138E+02  0.43400727031E+02  0.00000000000E+00 0.  1.
         11    1    4    4    0    0 -0.33217972612E+01 -0.10529627695E+02  0.88278740792E+01  0.14136433690E+02  0.51100000000E-03 0. -1.
        -11    1    4    4    0    0  0.21361536258E+00 -0.41214227116E+01  0.39599958926E+00  0.41459103496E+01  0.51100000000E-03 0.  1.
        -12    1    4    4    0    0  0.10921191508E+02 -0.10354469740E+02  0.25378206470E+02  0.29504928930E+02  0.00000000000E+00 0.  1.
</event>
<event>
 8    1  0.5542925E-011  0.9118800E+02  0.7816164E-02  0.1184000E+00
        -11   -1    0    0    0    0  0.00000000000E+00  0.00000000000E+00  0.45593999997E+02  0.45594000000E+02  0.51100000000E-03 0. -1.
         11   -1    0    0    0    0 -0.00000000000E+00 -0.00000000000E+00 -0.45593999997E+02  0.45594000000E+02  0.51100000000E-03 0.  1.
         23    2    1    2    0    0  0.00000000000E+00 -0.35527136788E-14  0.17763568394E-14  0.91188000000E+02  0.91188000000E+02 0.  0.
    9900012    2    3    3    0    0 -0.31167721260E+02 -0.25797331850E+02  0.15706492796E+02  0.47787273104E+02  0.20000009392E+02 0.  0.
        -12    1    3    3    0    0  0.31167721260E+02  0.25797331850E+02 -0.15706492796E+02  0.43400726896E+02  0.00000000000E+00 0.  1.
         11    1    4    4    0    0 -0.28151671710E+02 -0.17993959314E+02  0.94393470588E+01  0.34718877646E+02  0.51100000000E-03 0. -1.
        -11    1    4    4    0    0 -0.51600814492E+01 -0.77436505101E+01  0.53677593860E+01  0.10742597678E+02  0.51100000000E-03 0.  1.
        -12    1    4    4    0    0  0.21440318992E+01 -0.59722025866E-01  0.89938635137E+00  0.23257977801E+01  0.00000000000E+00 0.  1.
</event>
<event>
 8    1  0.5542925E-011  0.9118800E+02  0.7816164E-02  0.1184000E+00
        -11   -1    0    0    0    0  0.00000000000E+00  0.00000000000E+00  0.45593999997E+02  0.45594000000E+02  0.51100000000E-03 0. -1.
         11   -1    0    0    0    0 -0.00000000000E+00 -0.00000000000E+00 -0.45593999997E+02  0.45594000000E+02  0.51100000000E-03 0.  1.
         23    2    1    2    0    0  0.00000000000E+00  0.71054273576E-14  0.00000000000E+00  0.91188000000E+02  0.91188000000E+02 0.  0.
    9900012    2    3    3    0    0  0.17828759765E+02 -0.38667006081E+02 -0.84036415768E+01  0.47787271598E+02  0.20000002524E+02 0.  0.
         12    1    3    3    0    0 -0.17828759765E+02  0.38667006081E+02  0.84036415768E+01  0.43400728402E+02  0.00000000000E+00 0. -1.
         11    1    4    4    0    0  0.29415820278E+00  0.13786735560E+01  0.65879354311E+00  0.15560459555E+01  0.51100000000E-03 0. -1.
        -11    1    4    4    0    0  0.44113434176E+01 -0.15014131766E+02  0.22082779766E+01  0.15803815847E+02  0.51100000000E-03 0.  1.
        -12    1    4    4    0    0  0.13123258145E+02 -0.25031547871E+02 -0.11270713097E+02  0.30427409795E+02  0.00000000000E+00 0.  1.
</event>
<event>
 8    1  0.5542925E-011  0.9118800E+02  0.7816164E-02  0.1184000E+00
        -11   -1    0    0    0    0  0.00000000000E+00  0.00000000000E+00  0.45593999997E+02  0.45594000000E+02  0.51100000000E-03 0. -1.
         11   -1    0    0    0    0 -0.00000000000E+00 -0.00000000000E+00 -0.45593999997E+02  0.45594000000E+02  0.51100000000E-03 0.  1.
         23    2    1    2    0    0  0.17763568394E-14  0.00000000000E+00  0.00000000000E+00  0.91188000000E+02  0.91188000000E+02 0.  0.
    9900012    2    3    3    0    0 -0.10251771883E+02  0.25327587109E+02  0.33719988669E+02  0.47787272687E+02  0.20000007487E+02 0.  0.
        -12    1    3    3    0    0  0.10251771883E+02 -0.25327587109E+02 -0.33719988669E+02  0.43400727313E+02  0.00000000000E+00 0.  1.
         11    1    4    4    0    0 -0.64659904334E+01  0.93915440694E+01  0.10596468936E+02  0.15565837159E+02  0.51100000000E-03 0. -1.
        -11    1    4    4    0    0 -0.21572660764E+01  0.43023277657E+01  0.19264598015E+02  0.19856700584E+02  0.51100000000E-03 0.  1.
         12    1    4    4    0    0 -0.16285153728E+01  0.11633715274E+02  0.38589217178E+01  0.12364734944E+02  0.00000000000E+00 0. -1.
</event>
<event>
 8    1  0.5542925E-011  0.9118800E+02  0.7816164E-02  0.1184000E+00
        -11   -1    0    0    0    0  0.00000000000E+00  0.00000000000E+00  0.45593999997E+02  0.45594000000E+02  0.51100000000E-03 0. -1.
         11   -1    0    0    0    0 -0.00000000000E+00 -0.00000000000E+00 -0.45593999997E+02  0.45594000000E+02  0.51100000000E-03 0.  1.
         23    2    1    2    0    0  0.00000000000E+00  0.35527136788E-14  0.00000000000E+00  0.91188000000E+02  0.91188000000E+02 0.  0.
    9900012    2    3    3    0    0  0.25050897038E+01  0.29719320960E+02  0.31529474229E+02  0.47787294270E+02  0.20000105892E+02 0.  0.
        -12    1    3    3    0    0 -0.25050897038E+01 -0.29719320960E+02 -0.31529474229E+02  0.43400705730E+02  0.00000000000E+00 0.  1.
         11    1    4    4    0    0 -0.34816633116E+01  0.18926484492E+02  0.15680457310E+02  0.24823588305E+02  0.51100000000E-03 0. -1.
        -11    1    4    4    0    0  0.36093673850E+01  0.11110330824E+02  0.16733121161E+02  0.20407457656E+02  0.51100000000E-03 0.  1.
         12    1    4    4    0    0  0.23773856305E+01 -0.31749435538E+00 -0.88410424240E+00  0.25562483082E+01  0.00000000000E+00 0. -1.
</event>
<event>
 8    1  0.5542925E-011  0.9118800E+02  0.7816164E-02  0.1184000E+00
        -11   -1    0    0    0    0  0.00000000000E+00  0.00000000000E+00  0.45593999997E+02  0.45594000000E+02  0.51100000000E-03 0. -1.
         11   -1    0    0    0    0 -0.00000000000E+00 -0.00000000000E+00 -0.45593999997E+02  0.45594000000E+02  0.51100000000E-03 0.  1.
         23    2    1    2    0    0  0.00000000000E+00 -0.55511151231E-15  0.71054273576E-14  0.91188000000E+02  0.91188000000E+02 0.  0.
    9900012    2    3    3    0    0  0.93549292503E+01 -0.53756258383E+00 -0.42377113719E+02  0.47787269108E+02  0.19999991170E+02 0.  0.
         12    1    3    3    0    0 -0.93549292503E+01  0.53756258383E+00  0.42377113719E+02  0.43400730892E+02  0.00000000000E+00 0. -1.
         11    1    4    4    0    0 -0.14200003763E+01  0.65953028533E+01 -0.77325040709E+01  0.10261873136E+02  0.51100000000E-03 0. -1.
        -11    1    4    4    0    0  0.16102315679E+01 -0.19739191601E+01 -0.15264179437E+02  0.15475282766E+02  0.51100000000E-03 0.  1.
         12    1    4    4    0    0  0.91646980587E+01 -0.51589462771E+01 -0.19380430211E+02  0.22050113206E+02  0.00000000000E+00 0. -1.
</event>
<event>
 8    1  0.5542925E-011  0.9118800E+02  0.7816164E-02  0.1184000E+00
        -11   -1    0    0    0    0  0.00000000000E+00  0.00000000000E+00  0.45593999997E+02  0.45594000000E+02  0.51100000000E-03 0. -1.
         11   -1    0    0    0    0 -0.00000000000E+00 -0.00000000000E+00 -0.45593999997E+02  0.45594000000E+02  0.51100000000E-03 0.  1.
         23    2    1    2    0    0  0.15543122345E-14  0.35527136788E-14  0.00000000000E+00  0.91188000000E+02  0.91188000000E+02 0.  0.
    9900012    2    3    3    0    0 -0.17019100831E+01 -0.29209993413E+02  0.32054688282E+02  0.47787271274E+02  0.20000001048E+02 0.  0.
        -12    1    3    3    0    0  0.17019100831E+01  0.29209993413E+02 -0.32054688282E+02  0.43400728726E+02  0.00000000000E+00 0.  1.
         11    1    4    4    0    0  0.22865325264E+01 -0.28944093205E+01  0.18283618394E+01  0.41168851801E+01  0.51100000000E-03 0.  1.
        -11    1    4    4    0    0  0.61884523698E+01 -0.60963577583E+01  0.10649581339E+02  0.13743220278E+02  0.51100000000E-03 0. -1.
         12    1    4    4    0    0 -0.10176894979E+02 -0.20219226334E+02  0.19576745103E+02  0.29927165816E+02  0.00000000000E+00 0. -1.
</event>
<event>
 8    1  0.5542925E-011  0.9118800E+02  0.7816164E-02  0.1184000E+00
        -11   -1    0    0    0    0  0.00000000000E+00  0.00000000000E+00  0.45593999997E+02  0.45594000000E+02  0.51100000000E-03 0. -1.
         11   -1    0    0    0    0 -0.00000000000E+00 -0.00000000000E+00 -0.45593999997E+02  0.45594000000E+02  0.51100000000E-03 0.  1.
         23    2    1    2    0    0  0.00000000000E+00 -0.35527136788E-14  0.00000000000E+00  0.91188000000E+02  0.91188000000E+02 0.  0.
    9900012    2    3    3    0    0 -0.17741912951E+02 -0.29526733566E+02  0.26401132329E+02  0.47787271221E+02  0.20000000807E+02 0.  0.
        -12    1    3    3    0    0  0.17741912951E+02  0.29526733566E+02 -0.26401132329E+02  0.43400728779E+02  0.00000000000E+00 0.  1.
         11    1    4    4    0    0 -0.10576020797E+02 -0.19242968487E+02  0.20981951068E+02  0.30370813670E+02  0.51100000000E-03 0. -1.
        -11    1    4    4    0    0 -0.78443956886E-02 -0.90112035701E+01  0.14309685123E+01  0.91241176264E+01  0.51100000000E-03 0.  1.
        -12    1    4    4    0    0 -0.71580477587E+01 -0.12725615094E+01  0.39882127487E+01  0.82923399255E+01  0.00000000000E+00 0.  1.
</event>
<event>
 8    1  0.5542925E-011  0.9118800E+02  0.7816164E-02  0.1184000E+00
        -11   -1    0    0    0    0  0.00000000000E+00  0.00000000000E+00  0.45593999997E+02  0.45594000000E+02  0.51100000000E-03 0. -1.
         11   -1    0    0    0    0 -0.00000000000E+00 -0.00000000000E+00 -0.45593999997E+02  0.45594000000E+02  0.51100000000E-03 0.  1.
         23    2    1    2    0    0  0.00000000000E+00  0.00000000000E+00  0.00000000000E+00  0.91188000000E+02  0.91188000000E+02 0.  0.
    9900012    2    3    3    0    0  0.43023304336E+02 -0.17026561666E+00  0.57087124060E+01  0.47787273005E+02  0.20000008940E+02 0.  0.
        -12    1    3    3    0    0 -0.43023304336E+02  0.17026561666E+00 -0.57087124060E+01  0.43400726995E+02  0.00000000000E+00 0.  1.
         11    1    4    4    0    0  0.33587085677E+02  0.13819323393E+01 -0.21215393528E+01  0.33682383983E+02  0.51100000000E-03 0. -1.
        -11    1    4    4    0    0  0.74112303879E+01  0.16846242406E+01  0.36107249484E+01  0.84143704226E+01  0.51100000000E-03 0.  1.
        -12    1    4    4    0    0  0.20249882704E+01 -0.32368221966E+01  0.42195268104E+01  0.56905185995E+01  0.00000000000E+00 0.  1.
</event>
<event>
 8    1  0.5542925E-011  0.9118800E+02  0.7816164E-02  0.1184000E+00
        -11   -1    0    0    0    0  0.00000000000E+00  0.00000000000E+00  0.45593999997E+02  0.45594000000E+02  0.51100000000E-03 0. -1.
         11   -1    0    0    0    0 -0.00000000000E+00 -0.00000000000E+00 -0.45593999997E+02  0.45594000000E+02  0.51100000000E-03 0.  1.
         23    2    1    2    0    0  0.00000000000E+00  0.35527136788E-14  0.00000000000E+00  0.91188000000E+02  0.91188000000E+02 0.  0.
    9900012    2    3    3    0    0 -0.15389502702E+02 -0.30451078364E+02 -0.26823737758E+02  0.47787333251E+02  0.20000283621E+02 0.  0.
         12    1    3    3    0    0  0.15389502702E+02  0.30451078364E+02  0.26823737758E+02  0.43400666749E+02  0.00000000000E+00 0. -1.
         11    1    4    4    0    0 -0.58244277917E+01 -0.22224155816E+02 -0.15571965846E+02  0.27754696565E+02  0.51100000000E-03 0.  1.
        -11    1    4    4    0    0  0.10979180019E+01 -0.18979488568E+01 -0.63174166835E+01  0.66871060718E+01  0.51100000000E-03 0. -1.
         12    1    4    4    0    0 -0.10662992913E+02 -0.63289736918E+01 -0.49343552284E+01  0.13345530614E+02  0.00000000000E+00 0. -1.
</event>
<event>
 8    1  0.5542925E-011  0.9118800E+02  0.7816164E-02  0.1184000E+00
        -11   -1    0    0    0    0  0.00000000000E+00  0.00000000000E+00  0.45593999997E+02  0.45594000000E+02  0.51100000000E-03 0. -1.
         11   -1    0    0    0    0 -0.00000000000E+00 -0.00000000000E+00 -0.45593999997E+02  0.45594000000E+02  0.51100000000E-03 0.  1.
         23    2    1    2    0    0  0.44408920985E-15  0.00000000000E+00 -0.71054273576E-14  0.91188000000E+02  0.91188000000E+02 0.  0.
    9900012    2    3    3    0    0  0.38478052005E+01  0.18217608154E+02 -0.39203777013E+02  0.47787274386E+02  0.20000015234E+02 0.  0.
         12    1    3    3    0    0 -0.38478052005E+01 -0.18217608154E+02  0.39203777013E+02  0.43400725614E+02  0.00000000000E+00 0. -1.
         11    1    4    4    0    0  0.63097014469E+01  0.66840741230E+01 -0.17628040360E+02  0.19880568061E+02  0.51100000000E-03 0. -1.
        -11    1    4    4    0    0  0.51101212208E+01  0.20332460574E+01 -0.57658541072E+01  0.79682182618E+01  0.51100000000E-03 0.  1.
        -12    1    4    4    0    0 -0.75720174673E+01  0.95002879738E+01 -0.15809882546E+02  0.19938488063E+02  0.00000000000E+00 0.  1.
</event>
<event>
 8    1  0.5542925E-011  0.9118800E+02  0.7816164E-02  0.1184000E+00
        -11   -1    0    0    0    0  0.00000000000E+00  0.00000000000E+00  0.45593999997E+02  0.45594000000E+02  0.51100000000E-03 0. -1.
         11   -1    0    0    0    0 -0.00000000000E+00 -0.00000000000E+00 -0.45593999997E+02  0.45594000000E+02  0.51100000000E-03 0.  1.
         23    2    1    2    0    0  0.00000000000E+00  0.35527136788E-14 -0.35527136788E-14  0.91188000000E+02  0.91188000000E+02 0.  0.
    9900012    2    3    3    0    0 -0.17449509362E+02 -0.30582724285E+02  0.25373905276E+02  0.47787268778E+02  0.19999989665E+02 0.  0.
        -12    1    3    3    0    0  0.17449509362E+02  0.30582724285E+02 -0.25373905276E+02  0.43400731222E+02  0.00000000000E+00 0.  1.
         11    1    4    4    0    0 -0.14957251136E+02 -0.25279011409E+02  0.13612348882E+02  0.32373504934E+02  0.51100000000E-03 0. -1.
        -11    1    4    4    0    0  0.17057255613E+01 -0.29567072901E+01  0.89257575605E+00  0.35282161826E+01  0.51100000000E-03 0.  1.
         12    1    4    4    0    0 -0.41979837870E+01 -0.23470055862E+01  0.10868980638E+02  0.11885547661E+02  0.00000000000E+00 0. -1.
</event>
<event>
 8    1  0.5542925E-011  0.9118800E+02  0.7816164E-02  0.1184000E+00
        -11   -1    0    0    0    0  0.00000000000E+00  0.00000000000E+00  0.45593999997E+02  0.45594000000E+02  0.51100000000E-03 0. -1.
         11   -1    0    0    0    0 -0.00000000000E+00 -0.00000000000E+00 -0.45593999997E+02  0.45594000000E+02  0.51100000000E-03 0.  1.
         23    2    1    2    0    0  0.00000000000E+00  0.35527136788E-14  0.35527136788E-14  0.91188000000E+02  0.91188000000E+02 0.  0.
    9900012    2    3    3    0    0 -0.30337154499E+02 -0.25866867637E+02 -0.17151839159E+02  0.47787269926E+02  0.19999994898E+02 0.  0.
         12    1    3    3    0    0  0.30337154499E+02  0.25866867637E+02  0.17151839159E+02  0.43400730074E+02  0.00000000000E+00 0. -1.
         11    1    4    4    0    0 -0.38542885868E+01 -0.51313092256E+01 -0.53799658062E+01  0.83743601079E+01  0.51100000000E-03 0. -1.
        -11    1    4    4    0    0 -0.90991440652E+01 -0.42879404671E+01  0.39198384848E+01  0.10795646816E+02  0.51100000000E-03 0.  1.
        -12    1    4    4    0    0 -0.17383721847E+02 -0.16447617944E+02 -0.15691711838E+02  0.28617263002E+02  0.00000000000E+00 0.  1.
</event>
<event>
 8    1  0.5542925E-011  0.9118800E+02  0.7816164E-02  0.1184000E+00
        -11   -1    0    0    0    0  0.00000000000E+00  0.00000000000E+00  0.45593999997E+02  0.45594000000E+02  0.51100000000E-03 0. -1.
         11   -1    0    0    0    0 -0.00000000000E+00 -0.00000000000E+00 -0.45593999997E+02  0.45594000000E+02  0.51100000000E-03 0.  1.
         23    2    1    2    0    0  0.00000000000E+00  0.35527136788E-14  0.17763568394E-14  0.91188000000E+02  0.91188000000E+02 0.  0.
    9900012    2    3    3    0    0  0.34927668841E+02  0.22121025565E+02  0.13203829146E+02  0.47787275043E+02  0.20000018230E+02 0.  0.
        -12    1    3    3    0    0 -0.34927668841E+02 -0.22121025565E+02 -0.13203829146E+02  0.43400724957E+02  0.00000000000E+00 0.  1.
         11    1    4    4    0    0  0.12377617491E+02  0.11796375099E+01 -0.35752400998E+00  0.12438841710E+02  0.51100000000E-03 0. -1.
        -11    1    4    4    0    0 -0.95131480016E+00  0.86735103085E+00 -0.51471107314E+00  0.13864434390E+01  0.51100000000E-03 0.  1.
        -12    1    4    4    0    0  0.23501366150E+02  0.20074037024E+02  0.14076064229E+02  0.33961989894E+02  0.00000000000E+00 0.  1.
</event>
<event>
 8    1  0.5542925E-011  0.9118800E+02  0.7816164E-02  0.1184000E+00
        -11   -1    0    0    0    0  0.00000000000E+00  0.00000000000E+00  0.45593999997E+02  0.45594000000E+02  0.51100000000E-03 0. -1.
         11   -1    0    0    0    0 -0.00000000000E+00 -0.00000000000E+00 -0.45593999997E+02  0.45594000000E+02  0.51100000000E-03 0.  1.
         23    2    1    2    0    0  0.00000000000E+00  0.00000000000E+00  0.35527136788E-14  0.91188000000E+02  0.91188000000E+02 0.  0.
    9900012    2    3    3    0    0  0.13418175858E+02 -0.29942273278E+02 -0.28408391382E+02  0.47787264138E+02  0.19999968510E+02 0.  0.
         12    1    3    3    0    0 -0.13418175858E+02  0.29942273278E+02  0.28408391382E+02  0.43400735862E+02  0.00000000000E+00 0. -1.
         11    1    4    4    0    0  0.12741764657E+02 -0.14392016502E+02 -0.14076478930E+02  0.23824986147E+02  0.51100000000E-03 0.  1.
        -11    1    4    4    0    0  0.44727215714E+00 -0.10937334936E+02 -0.15705376065E+02  0.19143776678E+02  0.51100000000E-03 0. -1.
        -12    1    4    4    0    0  0.22913904356E+00 -0.46129218405E+01  0.13734636125E+01  0.48185013129E+01  0.00000000000E+00 0.  1.
</event>
<event>
 8    1  0.5542925E-011  0.9118800E+02  0.7816164E-02  0.1184000E+00
        -11   -1    0    0    0    0  0.00000000000E+00  0.00000000000E+00  0.45593999997E+02  0.45594000000E+02  0.51100000000E-03 0.  1.
         11   -1    0    0    0    0 -0.00000000000E+00 -0.00000000000E+00 -0.45593999997E+02  0.45594000000E+02  0.51100000000E-03 0. -1.
         23    2    1    2    0    0  0.00000000000E+00  0.00000000000E+00 -0.44408920985E-15  0.91188000000E+02  0.91188000000E+02 0.  0.
    9900012    2    3    3    0    0  0.10334041735E+02  0.42107134074E+02 -0.19544657679E+01  0.47787273106E+02  0.20000009398E+02 0.  0.
         12    1    3    3    0    0 -0.10334041735E+02 -0.42107134074E+02  0.19544657679E+01  0.43400726894E+02  0.00000000000E+00 0. -1.
         11    1    4    4    0    0  0.35482934729E+01  0.59004334021E+01 -0.37398232781E+01  0.78352906337E+01  0.51100000000E-03 0. -1.
        -11    1    4    4    0    0  0.51127522124E+01  0.24160563070E+02  0.84283015951E+01  0.26094239041E+02  0.51100000000E-03 0.  1.
        -12    1    4    4    0    0  0.16729960499E+01  0.12046137601E+02 -0.66429440850E+01  0.13857743431E+02  0.00000000000E+00 0.  1.
</event>
<event>
 8    1  0.5542925E-011  0.9118800E+02  0.7816164E-02  0.1184000E+00
        -11   -1    0    0    0    0  0.00000000000E+00  0.00000000000E+00  0.45593999997E+02  0.45594000000E+02  0.51100000000E-03 0. -1.
         11   -1    0    0    0    0 -0.00000000000E+00 -0.00000000000E+00 -0.45593999997E+02  0.45594000000E+02  0.51100000000E-03 0.  1.
         23    2    1    2    0    0  0.00000000000E+00 -0.71054273576E-14  0.35527136788E-14  0.91188000000E+02  0.91188000000E+02 0.  0.
    9900012    2    3    3    0    0  0.99223498585E+01 -0.32573661974E+02 -0.26909602439E+02  0.47787272074E+02  0.20000004694E+02 0.  0.
         12    1    3    3    0    0 -0.99223498585E+01  0.32573661974E+02  0.26909602439E+02  0.43400727926E+02  0.00000000000E+00 0. -1.
         11    1    4    4    0    0 -0.69260867805E+00 -0.68423467693E+01 -0.13237477503E+01  0.70035508465E+01  0.51100000000E-03 0. -1.
        -11    1    4    4    0    0 -0.14559562963E+01 -0.18562494974E+00 -0.65570221611E+01  0.67192860663E+01  0.51100000000E-03 0.  1.
        -12    1    4    4    0    0  0.12070914833E+02 -0.25545690255E+02 -0.19028832528E+02  0.34064435161E+02  0.00000000000E+00 0.  1.
</event>
<event>
 8    1  0.5542925E-011  0.9118800E+02  0.7816164E-02  0.1184000E+00
        -11   -1    0    0    0    0  0.00000000000E+00  0.00000000000E+00  0.45593999997E+02  0.45594000000E+02  0.51100000000E-03 0. -1.
         11   -1    0    0    0    0 -0.00000000000E+00 -0.00000000000E+00 -0.45593999997E+02  0.45594000000E+02  0.51100000000E-03 0.  1.
         23    2    1    2    0    0  0.22204460493E-15  0.00000000000E+00  0.00000000000E+00  0.91188000000E+02  0.91188000000E+02 0.  0.
    9900012    2    3    3    0    0 -0.16119766031E+01 -0.96932869848E+01  0.42273689126E+02  0.47787273353E+02  0.20000010528E+02 0.  0.
        -12    1    3    3    0    0  0.16119766031E+01  0.96932869848E+01 -0.42273689126E+02  0.43400726647E+02  0.00000000000E+00 0.  1.
         11    1    4    4    0    0 -0.66250505871E+00 -0.97866141926E+01  0.15103445901E+02  0.18009186785E+02  0.51100000000E-03 0. -1.
        -11    1    4    4    0    0  0.55207926145E+01 -0.28702538615E+00  0.10018164578E+02  0.11442253119E+02  0.51100000000E-03 0.  1.
        -12    1    4    4    0    0 -0.64702641589E+01  0.38035259396E+00  0.17152078647E+02  0.18335833450E+02  0.00000000000E+00 0.  1.
</event>
<event>
 8    1  0.5542925E-011  0.9118800E+02  0.7816164E-02  0.1184000E+00
        -11   -1    0    0    0    0  0.00000000000E+00  0.00000000000E+00  0.45593999997E+02  0.45594000000E+02  0.51100000000E-03 0. -1.
         11   -1    0    0    0    0 -0.00000000000E+00 -0.00000000000E+00 -0.45593999997E+02  0.45594000000E+02  0.51100000000E-03 0.  1.
         23    2    1    2    0    0 -0.44408920985E-15 -0.17763568394E-14 -0.71054273576E-14  0.91188000000E+02  0.91188000000E+02 0.  0.
    9900012    2    3    3    0    0 -0.23191837403E+01 -0.10361237992E+02 -0.42081944243E+02  0.47787263863E+02  0.19999967258E+02 0.  0.
         12    1    3    3    0    0  0.23191837403E+01  0.10361237992E+02  0.42081944243E+02  0.43400736137E+02  0.00000000000E+00 0. -1.
         11    1    4    4    0    0  0.30444912356E+01  0.28670348053E+01 -0.33322608951E+01  0.53472215582E+01  0.51100000000E-03 0. -1.
        -11    1    4    4    0    0 -0.37240390107E+01 -0.11255611778E+00 -0.53452352590E+01  0.65155717837E+01  0.51100000000E-03 0.  1.
        -12    1    4    4    0    0 -0.16396359653E+01 -0.13115716680E+02 -0.33404448089E+02  0.35924470521E+02  0.00000000000E+00 0.  1.
</event>
<event>
 8    1  0.5542925E-011  0.9118800E+02  0.7816164E-02  0.1184000E+00
        -11   -1    0    0    0    0  0.00000000000E+00  0.00000000000E+00  0.45593999997E+02  0.45594000000E+02  0.51100000000E-03 0. -1.
         11   -1    0    0    0    0 -0.00000000000E+00 -0.00000000000E+00 -0.45593999997E+02  0.45594000000E+02  0.51100000000E-03 0.  1.
         23    2    1    2    0    0  0.00000000000E+00  0.17763568394E-14 -0.14210854715E-13  0.91188000000E+02  0.91188000000E+02 0.  0.
    9900012    2    3    3    0    0 -0.86693902000E+01 -0.95940068501E+01  0.41429698998E+02  0.47787271286E+02  0.20000001100E+02 0.  0.
        -12    1    3    3    0    0  0.86693902000E+01  0.95940068501E+01 -0.41429698998E+02  0.43400728714E+02  0.00000000000E+00 0.  1.
         11    1    4    4    0    0  0.10313717455E+01 -0.68506354072E+01  0.34308021206E+02  0.35000503604E+02  0.51100000000E-03 0. -1.
        -11    1    4    4    0    0 -0.34360946810E+01 -0.22356794137E+01  0.41540186960E+01  0.58361700357E+01  0.51100000000E-03 0.  1.
         12    1    4    4    0    0 -0.62646672645E+01 -0.50769202922E+00  0.29676590954E+01  0.69505976461E+01  0.00000000000E+00 0. -1.
</event>
<event>
 8    1  0.5542925E-011  0.9118800E+02  0.7816164E-02  0.1184000E+00
        -11   -1    0    0    0    0  0.00000000000E+00  0.00000000000E+00  0.45593999997E+02  0.45594000000E+02  0.51100000000E-03 0. -1.
         11   -1    0    0    0    0 -0.00000000000E+00 -0.00000000000E+00 -0.45593999997E+02  0.45594000000E+02  0.51100000000E-03 0.  1.
         23    2    1    2    0    0  0.00000000000E+00  0.00000000000E+00 -0.71054273576E-14  0.91188000000E+02  0.91188000000E+02 0.  0.
    9900012    2    3    3    0    0 -0.11159372022E+02  0.22052491337E+01 -0.41883513192E+02  0.47787269764E+02  0.19999994163E+02 0.  0.
         12    1    3    3    0    0  0.11159372022E+02 -0.22052491337E+01  0.41883513192E+02  0.43400730236E+02  0.00000000000E+00 0. -1.
         11    1    4    4    0    0  0.28563792117E+01  0.28494741459E+01 -0.11298943039E+02  0.11997688076E+02  0.51100000000E-03 0. -1.
        -11    1    4    4    0    0 -0.40295519449E+01  0.44005955369E+01 -0.17938146443E+02  0.18904486981E+02  0.51100000000E-03 0.  1.
         12    1    4    4    0    0 -0.99861992884E+01 -0.50448205491E+01 -0.12646423711E+02  0.16885094707E+02  0.00000000000E+00 0. -1.
</event>
<event>
 8    1  0.5542925E-011  0.9118800E+02  0.7816164E-02  0.1184000E+00
        -11   -1    0    0    0    0  0.00000000000E+00  0.00000000000E+00  0.45593999997E+02  0.45594000000E+02  0.51100000000E-03 0. -1.
         11   -1    0    0    0    0 -0.00000000000E+00 -0.00000000000E+00 -0.45593999997E+02  0.45594000000E+02  0.51100000000E-03 0.  1.
         23    2    1    2    0    0  0.88817841970E-15  0.71054273576E-14 -0.35527136788E-14  0.91188000000E+02  0.91188000000E+02 0.  0.
    9900012    2    3    3    0    0  0.67063701971E+01  0.38387874155E+02 -0.19105343606E+02  0.47787326760E+02  0.20000254028E+02 0.  0.
         12    1    3    3    0    0 -0.67063701971E+01 -0.38387874155E+02  0.19105343606E+02  0.43400673240E+02  0.00000000000E+00 0. -1.
         11    1    4    4    0    0  0.41074875085E+01  0.61239799050E+01  0.28232428184E+01  0.78959029745E+01  0.51100000000E-03 0. -1.
        -11    1    4    4    0    0  0.39947758266E+01  0.74822959295E+01 -0.62059053029E+01  0.10509816705E+02  0.51100000000E-03 0.  1.
        -12    1    4    4    0    0 -0.13958931380E+01  0.24781598321E+02 -0.15722681121E+02  0.29381607081E+02  0.00000000000E+00 0.  1.
</event>
<event>
 8    1  0.5542925E-011  0.9118800E+02  0.7816164E-02  0.1184000E+00
        -11   -1    0    0    0    0  0.00000000000E+00  0.00000000000E+00  0.45593999997E+02  0.45594000000E+02  0.51100000000E-03 0. -1.
         11   -1    0    0    0    0 -0.00000000000E+00 -0.00000000000E+00 -0.45593999997E+02  0.45594000000E+02  0.51100000000E-03 0.  1.
         23    2    1    2    0    0  0.00000000000E+00 -0.35527136788E-14  0.00000000000E+00  0.91188000000E+02  0.91188000000E+02 0.  0.
    9900012    2    3    3    0    0 -0.15081175983E+02 -0.31161080958E+02  0.26175730169E+02  0.47787266303E+02  0.19999978384E+02 0.  0.
        -12    1    3    3    0    0  0.15081175983E+02  0.31161080958E+02 -0.26175730169E+02  0.43400733697E+02  0.00000000000E+00 0.  1.
         11    1    4    4    0    0  0.24117652755E+01 -0.30951343614E+01  0.17664186911E+01  0.43031039626E+01  0.51100000000E-03 0. -1.
        -11    1    4    4    0    0 -0.19561337037E+01 -0.10029300384E+02  0.12896418150E+01  0.10299344714E+02  0.51100000000E-03 0.  1.
         12    1    4    4    0    0 -0.15536807555E+02 -0.18036646213E+02  0.23119669663E+02  0.33184817627E+02  0.00000000000E+00 0. -1.
</event>
<event>
 8    1  0.5542925E-011  0.9118800E+02  0.7816164E-02  0.1184000E+00
        -11   -1    0    0    0    0  0.00000000000E+00  0.00000000000E+00  0.45593999997E+02  0.45594000000E+02  0.51100000000E-03 0. -1.
         11   -1    0    0    0    0 -0.00000000000E+00 -0.00000000000E+00 -0.45593999997E+02  0.45594000000E+02  0.51100000000E-03 0.  1.
         23    2    1    2    0    0  0.17763568394E-14  0.00000000000E+00  0.71054273576E-14  0.91188000000E+02  0.91188000000E+02 0.  0.
    9900012    2    3    3    0    0  0.99122816384E+01  0.16522027046E+02 -0.38889489414E+02  0.47787273141E+02  0.20000009559E+02 0.  0.
         12    1    3    3    0    0 -0.99122816384E+01 -0.16522027046E+02  0.38889489414E+02  0.43400726859E+02  0.00000000000E+00 0. -1.
         11    1    4    4    0    0  0.92426349027E+01  0.10914544974E+02 -0.13624949197E+02  0.19753299290E+02  0.51100000000E-03 0. -1.
        -11    1    4    4    0    0  0.42129560649E+01  0.63678406484E+01 -0.21468375330E+02  0.22785730905E+02  0.51100000000E-03 0.  1.
        -12    1    4    4    0    0 -0.35433093292E+01 -0.76035857688E+00 -0.37961648873E+01  0.52482429460E+01  0.00000000000E+00 0.  1.
</event>
<event>
 8    1  0.5542925E-011  0.9118800E+02  0.7816164E-02  0.1184000E+00
        -11   -1    0    0    0    0  0.00000000000E+00  0.00000000000E+00  0.45593999997E+02  0.45594000000E+02  0.51100000000E-03 0. -1.
         11   -1    0    0    0    0 -0.00000000000E+00 -0.00000000000E+00 -0.45593999997E+02  0.45594000000E+02  0.51100000000E-03 0.  1.
         23    2    1    2    0    0 -0.44408920985E-15  0.00000000000E+00 -0.71054273576E-14  0.91188000000E+02  0.91188000000E+02 0.  0.
    9900012    2    3    3    0    0 -0.28508667894E+01 -0.28828698204E+02  0.32317129820E+02  0.47787329943E+02  0.20000268539E+02 0.  0.
        -12    1    3    3    0    0  0.28508667894E+01  0.28828698204E+02 -0.32317129820E+02  0.43400670057E+02  0.00000000000E+00 0.  1.
         11    1    4    4    0    0  0.19327008291E+01 -0.88383478091E+01  0.13234896161E+02  0.16031662457E+02  0.51100000000E-03 0. -1.
        -11    1    4    4    0    0  0.35547063894E+01 -0.39370765409E+01  0.10434358008E+02  0.11705226888E+02  0.51100000000E-03 0.  1.
        -12    1    4    4    0    0 -0.83382740080E+01 -0.16053273854E+02  0.86478756511E+01  0.20050440597E+02  0.00000000000E+00 0.  1.
</event>
<event>
 8    1  0.5542925E-011  0.9118800E+02  0.7816164E-02  0.1184000E+00
        -11   -1    0    0    0    0  0.00000000000E+00  0.00000000000E+00  0.45593999997E+02  0.45594000000E+02  0.51100000000E-03 0. -1.
         11   -1    0    0    0    0 -0.00000000000E+00 -0.00000000000E+00 -0.45593999997E+02  0.45594000000E+02  0.51100000000E-03 0.  1.
         23    2    1    2    0    0  0.00000000000E+00  0.00000000000E+00  0.00000000000E+00  0.91188000000E+02  0.91188000000E+02 0.  0.
    9900012    2    3    3    0    0 -0.25509185087E+02 -0.19895918428E+02 -0.28931881090E+02  0.47787310636E+02  0.20000180511E+02 0.  0.
         12    1    3    3    0    0  0.25509185087E+02  0.19895918428E+02  0.28931881090E+02  0.43400689364E+02  0.00000000000E+00 0. -1.
         11    1    4    4    0    0 -0.17657676885E+01 -0.45763926201E+01 -0.13784312242E+02  0.14631082298E+02  0.51100000000E-03 0. -1.
        -11    1    4    4    0    0 -0.32784465704E+01 -0.63556662915E+01 -0.35981884146E+01  0.80056021667E+01  0.51100000000E-03 0.  1.
        -12    1    4    4    0    0 -0.20464970828E+02 -0.89638595160E+01 -0.11549380433E+02  0.25150626171E+02  0.00000000000E+00 0.  1.
</event>
<event>
 8    1  0.1033785E-010  0.9118800E+02  0.7816164E-02  0.1184000E+00
        -11   -1    0    0    0    0  0.00000000000E+00  0.00000000000E+00  0.45593999997E+02  0.45594000000E+02  0.51100000000E-03 0. -1.
         11   -1    0    0    0    0 -0.00000000000E+00 -0.00000000000E+00 -0.45593999997E+02  0.45594000000E+02  0.51100000000E-03 0.  1.
         23    2    1    2    0    0 -0.17763568394E-14  0.00000000000E+00  0.00000000000E+00  0.91188000000E+02  0.91188000000E+02 0.  0.
    9900012    2    3    3    0    0  0.15262162227E+02 -0.78692243159E+01  0.39859317482E+02  0.47787268701E+02  0.19999989314E+02 0.  0.
        -12    1    3    3    0    0 -0.15262162227E+02  0.78692243159E+01 -0.39859317482E+02  0.43400731299E+02  0.00000000000E+00 0.  1.
         11    1    4    4    0    0 -0.14946261162E+01  0.23034361943E+01  0.82921985707E+01  0.87350033158E+01  0.51100000000E-03 0. -1.
        -11    1    4    4    0    0  0.37861748388E+01 -0.31909334573E+01  0.90237332033E+00  0.50330362714E+01  0.51100000000E-03 0.  1.
         12    1    4    4    0    0  0.12970613504E+02 -0.69817270529E+01  0.30664745591E+02  0.34019229114E+02  0.00000000000E+00 0. -1.
</event>
<event>
 8    1  0.5542925E-011  0.9118800E+02  0.7816164E-02  0.1184000E+00
        -11   -1    0    0    0    0  0.00000000000E+00  0.00000000000E+00  0.45593999997E+02  0.45594000000E+02  0.51100000000E-03 0. -1.
         11   -1    0    0    0    0 -0.00000000000E+00 -0.00000000000E+00 -0.45593999997E+02  0.45594000000E+02  0.51100000000E-03 0.  1.
         23    2    1    2    0    0 -0.35527136788E-14 -0.71054273576E-14  0.00000000000E+00  0.91188000000E+02  0.91188000000E+02 0.  0.
    9900012    2    3    3    0    0 -0.22780414895E+02 -0.32946962190E+02 -0.16708487258E+02  0.47787272278E+02  0.20000005626E+02 0.  0.
         12    1    3    3    0    0  0.22780414895E+02  0.32946962190E+02  0.16708487258E+02  0.43400727722E+02  0.00000000000E+00 0. -1.
         11    1    4    4    0    0  0.30075852376E+01 -0.91387226775E+00 -0.45909326725E+00  0.31767118806E+01  0.51100000000E-03 0. -1.
        -11    1    4    4    0    0 -0.28755452394E+01 -0.13014811109E+01 -0.63568854229E+00  0.32197381400E+01  0.51100000000E-03 0.  1.
        -12    1    4    4    0    0 -0.22912454893E+02 -0.30731608811E+02 -0.15613705448E+02  0.41390822258E+02  0.00000000000E+00 0.  1.
</event>
<event>
 8    1  0.5542925E-011  0.9118800E+02  0.7816164E-02  0.1184000E+00
        -11   -1    0    0    0    0  0.00000000000E+00  0.00000000000E+00  0.45593999997E+02  0.45594000000E+02  0.51100000000E-03 0. -1.
         11   -1    0    0    0    0 -0.00000000000E+00 -0.00000000000E+00 -0.45593999997E+02  0.45594000000E+02  0.51100000000E-03 0.  1.
         23    2    1    2    0    0  0.35527136788E-14  0.17763568394E-14  0.00000000000E+00  0.91188000000E+02  0.91188000000E+02 0.  0.
    9900012    2    3    3    0    0  0.31843481656E+02 -0.89990976567E+01  0.28082601360E+02  0.47787267498E+02  0.19999983830E+02 0.  0.
        -12    1    3    3    0    0 -0.31843481656E+02  0.89990976567E+01 -0.28082601360E+02  0.43400732502E+02  0.00000000000E+00 0.  1.
         11    1    4    4    0    0  0.83594836066E+01 -0.67334324271E+01  0.13375478793E+02  0.17150029493E+02  0.51100000000E-03 0. -1.
        -11    1    4    4    0    0  0.14629357456E+02 -0.76508215217E+01  0.87907805025E+01  0.18703769450E+02  0.51100000000E-03 0.  1.
         12    1    4    4    0    0  0.88546405935E+01  0.53851562922E+01  0.59163420644E+01  0.11933468555E+02  0.00000000000E+00 0. -1.
</event>
<event>
 8    1  0.5542925E-011  0.9118800E+02  0.7816164E-02  0.1184000E+00
        -11   -1    0    0    0    0  0.00000000000E+00  0.00000000000E+00  0.45593999997E+02  0.45594000000E+02  0.51100000000E-03 0. -1.
         11   -1    0    0    0    0 -0.00000000000E+00 -0.00000000000E+00 -0.45593999997E+02  0.45594000000E+02  0.51100000000E-03 0.  1.
         23    2    1    2    0    0  0.00000000000E+00  0.00000000000E+00  0.00000000000E+00  0.91188000000E+02  0.91188000000E+02 0.  0.
    9900012    2    3    3    0    0  0.27727903519E+02  0.27381150592E+02 -0.19106522606E+02  0.47787271350E+02  0.20000001392E+02 0.  0.
         12    1    3    3    0    0 -0.27727903519E+02 -0.27381150592E+02  0.19106522606E+02  0.43400728650E+02  0.00000000000E+00 0. -1.
         11    1    4    4    0    0  0.35713677054E+01 -0.34478865097E+00  0.83802682093E+00  0.36845400954E+01  0.51100000000E-03 0. -1.
        -11    1    4    4    0    0  0.19356885439E+01  0.11895410039E+02 -0.61833354157E+01  0.13545527205E+02  0.51100000000E-03 0.  1.
        -12    1    4    4    0    0  0.22220847270E+02  0.15830529204E+02 -0.13761214012E+02  0.30557204049E+02  0.00000000000E+00 0.  1.
</event>
<event>
 8    1  0.5542925E-011  0.9118800E+02  0.7816164E-02  0.1184000E+00
        -11   -1    0    0    0    0  0.00000000000E+00  0.00000000000E+00  0.45593999997E+02  0.45594000000E+02  0.51100000000E-03 0. -1.
         11   -1    0    0    0    0 -0.00000000000E+00 -0.00000000000E+00 -0.45593999997E+02  0.45594000000E+02  0.51100000000E-03 0.  1.
         23    2    1    2    0    0 -0.35527136788E-14  0.35527136788E-14  0.00000000000E+00  0.91188000000E+02  0.91188000000E+02 0.  0.
    9900012    2    3    3    0    0 -0.27939175121E+02  0.16071533419E+02  0.29064267209E+02  0.47787270498E+02  0.19999997510E+02 0.  0.
        -12    1    3    3    0    0  0.27939175121E+02 -0.16071533419E+02 -0.29064267209E+02  0.43400729502E+02  0.00000000000E+00 0.  1.
         11    1    4    4    0    0 -0.49396584472E+01  0.79219291840E+00  0.46012234995E+01  0.67969885352E+01  0.51100000000E-03 0. -1.
        -11    1    4    4    0    0 -0.47080067518E+01 -0.39796494771E+01  0.62902332676E+01  0.88073816970E+01  0.51100000000E-03 0.  1.
        -12    1    4    4    0    0 -0.18291509922E+02  0.19258989978E+02  0.18172810442E+02  0.32182900266E+02  0.00000000000E+00 0.  1.
</event>
<event>
 8    1  0.5542925E-011  0.9118800E+02  0.7816164E-02  0.1184000E+00
        -11   -1    0    0    0    0  0.00000000000E+00  0.00000000000E+00  0.45593999997E+02  0.45594000000E+02  0.51100000000E-03 0. -1.
         11   -1    0    0    0    0 -0.00000000000E+00 -0.00000000000E+00 -0.45593999997E+02  0.45594000000E+02  0.51100000000E-03 0.  1.
         23    2    1    2    0    0  0.00000000000E+00 -0.44408920985E-15  0.00000000000E+00  0.91188000000E+02  0.91188000000E+02 0.  0.
    9900012    2    3    3    0    0  0.20701377702E+02  0.37931584778E+01 -0.37956399981E+02  0.47787269712E+02  0.19999993925E+02 0.  0.
         12    1    3    3    0    0 -0.20701377702E+02 -0.37931584778E+01  0.37956399981E+02  0.43400730288E+02  0.00000000000E+00 0. -1.
         11    1    4    4    0    0  0.58301128022E+01 -0.51534892531E+01 -0.33847113761E+01  0.84855723512E+01  0.51100000000E-03 0. -1.
        -11    1    4    4    0    0  0.33725064716E+01  0.43545658269E+01 -0.59031930081E+01  0.80736442449E+01  0.51100000000E-03 0.  1.
         12    1    4    4    0    0  0.11498758428E+02  0.45920819040E+01 -0.28668495597E+02  0.31228053116E+02  0.00000000000E+00 0. -1.
</event>
<event>
 8    1  0.5542925E-011  0.9118800E+02  0.7816164E-02  0.1184000E+00
        -11   -1    0    0    0    0  0.00000000000E+00  0.00000000000E+00  0.45593999997E+02  0.45594000000E+02  0.51100000000E-03 0. -1.
         11   -1    0    0    0    0 -0.00000000000E+00 -0.00000000000E+00 -0.45593999997E+02  0.45594000000E+02  0.51100000000E-03 0.  1.
         23    2    1    2    0    0  0.00000000000E+00  0.17763568394E-14  0.00000000000E+00  0.91188000000E+02  0.91188000000E+02 0.  0.
    9900012    2    3    3    0    0 -0.87050088377E+01  0.15679574309E+02 -0.39522107891E+02  0.47787271417E+02  0.20000001701E+02 0.  0.
         12    1    3    3    0    0  0.87050088377E+01 -0.15679574309E+02  0.39522107891E+02  0.43400728583E+02  0.00000000000E+00 0. -1.
         11    1    4    4    0    0 -0.11981304611E+00  0.63588195570E+00  0.15577639577E+01  0.16868105515E+01  0.51100000000E-03 0. -1.
        -11    1    4    4    0    0  0.26958845970E+01  0.39308645517E+01 -0.64340565438E+01  0.80072825449E+01  0.51100000000E-03 0.  1.
        -12    1    4    4    0    0 -0.11281080389E+02  0.11112827802E+02 -0.34645815305E+02  0.38093178321E+02  0.00000000000E+00 0.  1.
</event>
<event>
 8    1  0.5542925E-011  0.9118800E+02  0.7816164E-02  0.1184000E+00
        -11   -1    0    0    0    0  0.00000000000E+00  0.00000000000E+00  0.45593999997E+02  0.45594000000E+02  0.51100000000E-03 0. -1.
         11   -1    0    0    0    0 -0.00000000000E+00 -0.00000000000E+00 -0.45593999997E+02  0.45594000000E+02  0.51100000000E-03 0.  1.
         23    2    1    2    0    0  0.35527136788E-14  0.00000000000E+00  0.35527136788E-14  0.91188000000E+02  0.91188000000E+02 0.  0.
    9900012    2    3    3    0    0 -0.22296949163E+02 -0.19258243252E+02 -0.31868315423E+02  0.47787269557E+02  0.19999993216E+02 0.  0.
         12    1    3    3    0    0  0.22296949163E+02  0.19258243252E+02  0.31868315423E+02  0.43400730443E+02  0.00000000000E+00 0. -1.
         11    1    4    4    0    0 -0.16330605763E+00 -0.50239896210E+00 -0.17389847545E+00  0.55616052221E+00  0.51100000000E-03 0. -1.
        -11    1    4    4    0    0 -0.23789272496E+02 -0.11287261034E+02 -0.19226978434E+02  0.32603810321E+02  0.51100000000E-03 0.  1.
         12    1    4    4    0    0  0.16556293908E+01 -0.74685832563E+01 -0.12467438514E+02  0.14627298713E+02  0.00000000000E+00 0. -1.
</event>
<event>
 8    1  0.5542925E-011  0.9118800E+02  0.7816164E-02  0.1184000E+00
        -11   -1    0    0    0    0  0.00000000000E+00  0.00000000000E+00  0.45593999997E+02  0.45594000000E+02  0.51100000000E-03 0. -1.
         11   -1    0    0    0    0 -0.00000000000E+00 -0.00000000000E+00 -0.45593999997E+02  0.45594000000E+02  0.51100000000E-03 0.  1.
         23    2    1    2    0    0  0.35527136788E-14  0.00000000000E+00  0.00000000000E+00  0.91188000000E+02  0.91188000000E+02 0.  0.
    9900012    2    3    3    0    0 -0.13450489323E+02 -0.32622085898E+02 -0.25268697603E+02  0.47787271551E+02  0.20000002308E+02 0.  0.
         12    1    3    3    0    0  0.13450489323E+02  0.32622085898E+02  0.25268697603E+02  0.43400728449E+02  0.00000000000E+00 0. -1.
         11    1    4    4    0    0 -0.10650962128E+02 -0.66414476437E+01 -0.58406367274E+01  0.13844307808E+02  0.51100000000E-03 0. -1.
        -11    1    4    4    0    0 -0.56461314395E+01 -0.11837862049E+02 -0.11707012115E+02  0.17580327388E+02  0.51100000000E-03 0.  1.
         12    1    4    4    0    0  0.28466042441E+01 -0.14142776205E+02 -0.77210487604E+01  0.16362636355E+02  0.00000000000E+00 0. -1.
</event>
<event>
 8    1  0.5542925E-011  0.9118800E+02  0.7816164E-02  0.1184000E+00
        -11   -1    0    0    0    0  0.00000000000E+00  0.00000000000E+00  0.45593999997E+02  0.45594000000E+02  0.51100000000E-03 0. -1.
         11   -1    0    0    0    0 -0.00000000000E+00 -0.00000000000E+00 -0.45593999997E+02  0.45594000000E+02  0.51100000000E-03 0.  1.
         23    2    1    2    0    0  0.00000000000E+00  0.35527136788E-14  0.71054273576E-14  0.91188000000E+02  0.91188000000E+02 0.  0.
    9900012    2    3    3    0    0 -0.10568852502E+02  0.29103485243E+02  0.30412330092E+02  0.47787270534E+02  0.19999997674E+02 0.  0.
        -12    1    3    3    0    0  0.10568852502E+02 -0.29103485243E+02 -0.30412330092E+02  0.43400729466E+02  0.00000000000E+00 0.  1.
         11    1    4    4    0    0 -0.77516106851E+01  0.23302551949E+02  0.20225332149E+02  0.31814469292E+02  0.51100000000E-03 0. -1.
        -11    1    4    4    0    0 -0.38053972127E+01  0.45978732325E+01  0.12108633495E+02  0.13499647832E+02  0.51100000000E-03 0.  1.
         12    1    4    4    0    0  0.98815539535E+00  0.12030600618E+01 -0.19216355517E+01  0.24731534104E+01  0.00000000000E+00 0. -1.
</event>
<event>
 8    1  0.5542925E-011  0.9118800E+02  0.7816164E-02  0.1184000E+00
        -11   -1    0    0    0    0  0.00000000000E+00  0.00000000000E+00  0.45593999997E+02  0.45594000000E+02  0.51100000000E-03 0. -1.
         11   -1    0    0    0    0 -0.00000000000E+00 -0.00000000000E+00 -0.45593999997E+02  0.45594000000E+02  0.51100000000E-03 0.  1.
         23    2    1    2    0    0  0.00000000000E+00  0.00000000000E+00  0.00000000000E+00  0.91188000000E+02  0.91188000000E+02 0.  0.
    9900012    2    3    3    0    0 -0.42595051326E+01 -0.66611573316E+01  0.42674450429E+02  0.47787272812E+02  0.20000008060E+02 0.  0.
        -12    1    3    3    0    0  0.42595051326E+01  0.66611573316E+01 -0.42674450429E+02  0.43400727188E+02  0.00000000000E+00 0.  1.
         11    1    4    4    0    0  0.40148226596E+01 -0.46352082817E+00  0.11258205339E+02  0.11961640367E+02  0.51100000000E-03 0.  1.
        -11    1    4    4    0    0 -0.42506820832E+01 -0.69348293417E+01  0.30589306042E+02  0.31652263751E+02  0.51100000000E-03 0. -1.
        -12    1    4    4    0    0 -0.40236457090E+01  0.73719283830E+00  0.82693904854E+00  0.41733686947E+01  0.00000000000E+00 0.  1.
</event>
<event>
 8    1  0.5542925E-011  0.9118800E+02  0.7816164E-02  0.1184000E+00
        -11   -1    0    0    0    0  0.00000000000E+00  0.00000000000E+00  0.45593999997E+02  0.45594000000E+02  0.51100000000E-03 0.  1.
         11   -1    0    0    0    0 -0.00000000000E+00 -0.00000000000E+00 -0.45593999997E+02  0.45594000000E+02  0.51100000000E-03 0. -1.
         23    2    1    2    0    0  0.71054273576E-14  0.00000000000E+00  0.00000000000E+00  0.91188000000E+02  0.91188000000E+02 0.  0.
    9900012    2    3    3    0    0 -0.42064051551E+02 -0.10329501346E+02  0.27460869431E+01  0.47787262398E+02  0.19999960577E+02 0.  0.
         12    1    3    3    0    0  0.42064051551E+02  0.10329501346E+02 -0.27460869431E+01  0.43400737602E+02  0.00000000000E+00 0. -1.
         11    1    4    4    0    0 -0.17851629426E+01  0.25672651741E+01  0.98690715409E+00  0.32789698379E+01  0.51100000000E-03 0. -1.
        -11    1    4    4    0    0 -0.74588469981E+01  0.29793129319E+00 -0.43079344184E+01  0.86186693179E+01  0.51100000000E-03 0.  1.
        -12    1    4    4    0    0 -0.32820041610E+02 -0.13194697813E+02  0.60671142074E+01  0.35889623242E+02  0.00000000000E+00 0.  1.
</event>
<event>
 8    1  0.5542925E-011  0.9118800E+02  0.7816164E-02  0.1184000E+00
        -11   -1    0    0    0    0  0.00000000000E+00  0.00000000000E+00  0.45593999997E+02  0.45594000000E+02  0.51100000000E-03 0.  1.
         11   -1    0    0    0    0 -0.00000000000E+00 -0.00000000000E+00 -0.45593999997E+02  0.45594000000E+02  0.51100000000E-03 0. -1.
         23    2    1    2    0    0  0.00000000000E+00  0.00000000000E+00  0.00000000000E+00  0.91188000000E+02  0.91188000000E+02 0.  0.
    9900012    2    3    3    0    0  0.37299015217E+02 -0.21791684024E+02  0.41867736117E+01  0.47787273025E+02  0.20000009029E+02 0.  0.
         12    1    3    3    0    0 -0.37299015217E+02  0.21791684024E+02 -0.41867736117E+01  0.43400726975E+02  0.00000000000E+00 0. -1.
         11    1    4    4    0    0  0.11744057664E+02 -0.31046942135E+01  0.22831079927E+01  0.12360202221E+02  0.51100000000E-03 0. -1.
        -11    1    4    4    0    0  0.18640680271E+02 -0.41447862554E+01  0.27988502687E+01  0.19299942414E+02  0.51100000000E-03 0.  1.
         12    1    4    4    0    0  0.69142772809E+01 -0.14542203555E+02 -0.89518464969E+00  0.16127128390E+02  0.00000000000E+00 0. -1.
</event>
<event>
 8    1  0.5542925E-011  0.9118800E+02  0.7816164E-02  0.1184000E+00
        -11   -1    0    0    0    0  0.00000000000E+00  0.00000000000E+00  0.45593999997E+02  0.45594000000E+02  0.51100000000E-03 0. -1.
         11   -1    0    0    0    0 -0.00000000000E+00 -0.00000000000E+00 -0.45593999997E+02  0.45594000000E+02  0.51100000000E-03 0.  1.
         23    2    1    2    0    0  0.88817841970E-15  0.00000000000E+00  0.00000000000E+00  0.91188000000E+02  0.91188000000E+02 0.  0.
    9900012    2    3    3    0    0 -0.21551964393E+01  0.17172569562E+02 -0.39800524692E+02  0.47787265181E+02  0.19999973266E+02 0.  0.
         12    1    3    3    0    0  0.21551964393E+01 -0.17172569562E+02  0.39800524692E+02  0.43400734819E+02  0.00000000000E+00 0. -1.
         11    1    4    4    0    0  0.19256824521E+00 -0.98808727523E+00 -0.14945075884E+01  0.18019301278E+01  0.51100000000E-03 0. -1.
        -11    1    4    4    0    0 -0.50038049760E+01 -0.59843917362E+00 -0.15704124209E+02  0.16492898809E+02  0.51100000000E-03 0.  1.
         12    1    4    4    0    0  0.26560402916E+01  0.18759096011E+02 -0.22601892894E+02  0.29492436244E+02  0.00000000000E+00 0. -1.
</event>
<event>
 8    1  0.5542925E-011  0.9118800E+02  0.7816164E-02  0.1184000E+00
        -11   -1    0    0    0    0  0.00000000000E+00  0.00000000000E+00  0.45593999997E+02  0.45594000000E+02  0.51100000000E-03 0. -1.
         11   -1    0    0    0    0 -0.00000000000E+00 -0.00000000000E+00 -0.45593999997E+02  0.45594000000E+02  0.51100000000E-03 0.  1.
         23    2    1    2    0    0  0.35527136788E-14  0.00000000000E+00  0.71054273576E-14  0.91188000000E+02  0.91188000000E+02 0.  0.
    9900012    2    3    3    0    0  0.22325037749E+02  0.18325362302E+02  0.32394395738E+02  0.47787273172E+02  0.20000009701E+02 0.  0.
        -12    1    3    3    0    0 -0.22325037749E+02 -0.18325362302E+02 -0.32394395738E+02  0.43400726828E+02  0.00000000000E+00 0.  1.
         11    1    4    4    0    0  0.51826923773E+01 -0.87584099389E+00  0.51238801017E+01  0.73404049808E+01  0.51100000000E-03 0. -1.
        -11    1    4    4    0    0  0.89942591200E+01  0.94572249953E+00  0.43582089110E+01  0.10039176925E+02  0.51100000000E-03 0.  1.
         12    1    4    4    0    0  0.81480862513E+01  0.18255480797E+02  0.22912306725E+02  0.30407691266E+02  0.00000000000E+00 0. -1.
</event>
<event>
 8    1  0.5542925E-011  0.9118800E+02  0.7816164E-02  0.1184000E+00
        -11   -1    0    0    0    0  0.00000000000E+00  0.00000000000E+00  0.45593999997E+02  0.45594000000E+02  0.51100000000E-03 0. -1.
         11   -1    0    0    0    0 -0.00000000000E+00 -0.00000000000E+00 -0.45593999997E+02  0.45594000000E+02  0.51100000000E-03 0.  1.
         23    2    1    2    0    0  0.00000000000E+00  0.17763568394E-14  0.00000000000E+00  0.91188000000E+02  0.91188000000E+02 0.  0.
    9900012    2    3    3    0    0  0.17449304131E+02 -0.92993999391E+01 -0.38635039410E+02  0.47787270466E+02  0.19999997361E+02 0.  0.
         12    1    3    3    0    0 -0.17449304131E+02  0.92993999391E+01  0.38635039410E+02  0.43400729534E+02  0.00000000000E+00 0. -1.
         11    1    4    4    0    0 -0.73450295670E+00 -0.74784573502E+01 -0.53394122723E+01  0.92182505177E+01  0.51100000000E-03 0. -1.
        -11    1    4    4    0    0  0.64777010077E+01 -0.25230459530E+01 -0.74631177244E+01  0.10199240053E+02  0.51100000000E-03 0.  1.
         12    1    4    4    0    0  0.11706106080E+02  0.70210336408E+00 -0.25832509414E+02  0.28369779895E+02  0.00000000000E+00 0. -1.
</event>
<event>
 8    1  0.5542925E-011  0.9118800E+02  0.7816164E-02  0.1184000E+00
        -11   -1    0    0    0    0  0.00000000000E+00  0.00000000000E+00  0.45593999997E+02  0.45594000000E+02  0.51100000000E-03 0. -1.
         11   -1    0    0    0    0 -0.00000000000E+00 -0.00000000000E+00 -0.45593999997E+02  0.45594000000E+02  0.51100000000E-03 0.  1.
         23    2    1    2    0    0  0.00000000000E+00  0.00000000000E+00  0.71054273576E-14  0.91188000000E+02  0.91188000000E+02 0.  0.
    9900012    2    3    3    0    0  0.25613899779E+02 -0.83597030201E+00 -0.35026454202E+02  0.47787271870E+02  0.20000003765E+02 0.  0.
         12    1    3    3    0    0 -0.25613899779E+02  0.83597030201E+00  0.35026454202E+02  0.43400728130E+02  0.00000000000E+00 0. -1.
         11    1    4    4    0    0  0.17001658670E+01 -0.36473567842E+01 -0.86029975656E+01  0.94976493334E+01  0.51100000000E-03 0. -1.
        -11    1    4    4    0    0  0.13657287433E+02  0.36515521576E+01 -0.23779801943E+02  0.27664676284E+02  0.51100000000E-03 0.  1.
         12    1    4    4    0    0  0.10256446479E+02 -0.84016567543E+00 -0.26436546933E+01  0.10624946253E+02  0.00000000000E+00 0. -1.
</event>
<event>
 8    1  0.5542925E-011  0.9118800E+02  0.7816164E-02  0.1184000E+00
        -11   -1    0    0    0    0  0.00000000000E+00  0.00000000000E+00  0.45593999997E+02  0.45594000000E+02  0.51100000000E-03 0. -1.
         11   -1    0    0    0    0 -0.00000000000E+00 -0.00000000000E+00 -0.45593999997E+02  0.45594000000E+02  0.51100000000E-03 0.  1.
         23    2    1    2    0    0  0.00000000000E+00  0.00000000000E+00  0.00000000000E+00  0.91188000000E+02  0.91188000000E+02 0.  0.
    9900012    2    3    3    0    0  0.40564261132E+02  0.70027290834E+01  0.13752310489E+02  0.47787267984E+02  0.19999986044E+02 0.  0.
        -12    1    3    3    0    0 -0.40564261132E+02 -0.70027290834E+01 -0.13752310489E+02  0.43400732016E+02  0.00000000000E+00 0.  1.
         11    1    4    4    0    0 -0.14424293567E+01 -0.64344565279E+00  0.43738039497E+00  0.16388796869E+01  0.51100000000E-03 0. -1.
        -11    1    4    4    0    0  0.14325415549E+01  0.29286964116E+01  0.28348915816E+00  0.32725837409E+01  0.51100000000E-03 0.  1.
         12    1    4    4    0    0  0.40574148934E+02  0.47174783246E+01  0.13031440936E+02  0.42875804556E+02  0.00000000000E+00 0. -1.
</event>
<event>
 8    1  0.5542925E-011  0.9118800E+02  0.7816164E-02  0.1184000E+00
        -11   -1    0    0    0    0  0.00000000000E+00  0.00000000000E+00  0.45593999997E+02  0.45594000000E+02  0.51100000000E-03 0.  1.
         11   -1    0    0    0    0 -0.00000000000E+00 -0.00000000000E+00 -0.45593999997E+02  0.45594000000E+02  0.51100000000E-03 0. -1.
         23    2    1    2    0    0  0.00000000000E+00 -0.35527136788E-14  0.00000000000E+00  0.91188000000E+02  0.91188000000E+02 0.  0.
    9900012    2    3    3    0    0 -0.33401532622E+02 -0.26209750412E+02  0.90005523291E+01  0.47787270278E+02  0.19999996506E+02 0.  0.
        -12    1    3    3    0    0  0.33401532622E+02  0.26209750412E+02 -0.90005523291E+01  0.43400729722E+02  0.00000000000E+00 0.  1.
         11    1    4    4    0    0 -0.12927866578E+02 -0.21954348096E+02  0.31448938328E+01  0.25671258092E+02  0.51100000000E-03 0. -1.
        -11    1    4    4    0    0 -0.16519174064E+01 -0.27457311718E+00 -0.66654771612E+00  0.18023616821E+01  0.51100000000E-03 0.  1.
         12    1    4    4    0    0 -0.18821748638E+02 -0.39808291991E+01  0.65222062125E+01  0.20313650504E+02  0.00000000000E+00 0. -1.
</event>
<event>
 8    1  0.5542925E-011  0.9118800E+02  0.7816164E-02  0.1184000E+00
        -11   -1    0    0    0    0  0.00000000000E+00  0.00000000000E+00  0.45593999997E+02  0.45594000000E+02  0.51100000000E-03 0. -1.
         11   -1    0    0    0    0 -0.00000000000E+00 -0.00000000000E+00 -0.45593999997E+02  0.45594000000E+02  0.51100000000E-03 0.  1.
         23    2    1    2    0    0 -0.88817841970E-15  0.00000000000E+00  0.00000000000E+00  0.91188000000E+02  0.91188000000E+02 0.  0.
    9900012    2    3    3    0    0  0.41945996268E+01  0.26822172075E+02 -0.33861480527E+02  0.47787269080E+02  0.19999991045E+02 0.  0.
         12    1    3    3    0    0 -0.41945996268E+01 -0.26822172075E+02  0.33861480527E+02  0.43400730920E+02  0.00000000000E+00 0. -1.
         11    1    4    4    0    0  0.65111621371E+01  0.11467269882E+02 -0.11699044680E+02  0.17628419033E+02  0.51100000000E-03 0. -1.
        -11    1    4    4    0    0 -0.23186435737E+00  0.11970184265E+02 -0.57681327370E+01  0.13289485616E+02  0.51100000000E-03 0.  1.
         12    1    4    4    0    0 -0.20846981529E+01  0.33847179286E+01 -0.16394303110E+02  0.16869364431E+02  0.00000000000E+00 0. -1.
</event>
<event>
 8    1  0.5542925E-011  0.9118800E+02  0.7816164E-02  0.1184000E+00
        -11   -1    0    0    0    0  0.00000000000E+00  0.00000000000E+00  0.45593999997E+02  0.45594000000E+02  0.51100000000E-03 0. -1.
         11   -1    0    0    0    0 -0.00000000000E+00 -0.00000000000E+00 -0.45593999997E+02  0.45594000000E+02  0.51100000000E-03 0.  1.
         23    2    1    2    0    0  0.35527136788E-14 -0.88817841970E-15  0.00000000000E+00  0.91188000000E+02  0.91188000000E+02 0.  0.
    9900012    2    3    3    0    0 -0.23621648437E+02  0.55889439838E+01  0.35977835982E+02  0.47787271300E+02  0.20000001166E+02 0.  0.
        -12    1    3    3    0    0  0.23621648437E+02 -0.55889439838E+01 -0.35977835982E+02  0.43400728700E+02  0.00000000000E+00 0.  1.
         11    1    4    4    0    0 -0.84038706746E+01  0.29535789907E+01  0.16392806534E+02  0.18656708646E+02  0.51100000000E-03 0. -1.
        -11    1    4    4    0    0 -0.16526498589E+02  0.51395356941E+01  0.12065727117E+02  0.21097908756E+02  0.51100000000E-03 0.  1.
        -12    1    4    4    0    0  0.13087208267E+01 -0.25041707010E+01  0.75193023312E+01  0.80326538983E+01  0.00000000000E+00 0.  1.
</event>
<event>
 8    1  0.5542925E-011  0.9118800E+02  0.7816164E-02  0.1184000E+00
        -11   -1    0    0    0    0  0.00000000000E+00  0.00000000000E+00  0.45593999997E+02  0.45594000000E+02  0.51100000000E-03 0. -1.
         11   -1    0    0    0    0 -0.00000000000E+00 -0.00000000000E+00 -0.45593999997E+02  0.45594000000E+02  0.51100000000E-03 0.  1.
         23    2    1    2    0    0  0.00000000000E+00  0.00000000000E+00  0.00000000000E+00  0.91188000000E+02  0.91188000000E+02 0.  0.
    9900012    2    3    3    0    0  0.16248297374E+02  0.12386869278E+02 -0.38290749251E+02  0.47787272169E+02  0.20000005129E+02 0.  0.
         12    1    3    3    0    0 -0.16248297374E+02 -0.12386869278E+02  0.38290749251E+02  0.43400727831E+02  0.00000000000E+00 0. -1.
         11    1    4    4    0    0  0.46315764329E+01  0.41672606131E+01 -0.22564080696E+02  0.23408445040E+02  0.51100000000E-03 0.  1.
        -11    1    4    4    0    0  0.98649792817E+01  0.72068733618E+01 -0.17729901277E+02  0.21531517351E+02  0.51100000000E-03 0. -1.
         12    1    4    4    0    0  0.17517416594E+01  0.10127353028E+01  0.20032327223E+01  0.28473097784E+01  0.00000000000E+00 0. -1.
</event>
<event>
 8    1  0.5542925E-011  0.9118800E+02  0.7816164E-02  0.1184000E+00
        -11   -1    0    0    0    0  0.00000000000E+00  0.00000000000E+00  0.45593999997E+02  0.45594000000E+02  0.51100000000E-03 0. -1.
         11   -1    0    0    0    0 -0.00000000000E+00 -0.00000000000E+00 -0.45593999997E+02  0.45594000000E+02  0.51100000000E-03 0.  1.
         23    2    1    2    0    0  0.00000000000E+00  0.00000000000E+00  0.00000000000E+00  0.91188000000E+02  0.91188000000E+02 0.  0.
    9900012    2    3    3    0    0  0.22106335099E+02  0.28657565210E+02 -0.23951561456E+02  0.47787269690E+02  0.19999993826E+02 0.  0.
         12    1    3    3    0    0 -0.22106335099E+02 -0.28657565210E+02  0.23951561456E+02  0.43400730310E+02  0.00000000000E+00 0. -1.
         11    1    4    4    0    0 -0.48436608920E+00  0.56271556163E+00 -0.22561607055E+01  0.23751885614E+01  0.51100000000E-03 0. -1.
        -11    1    4    4    0    0  0.17555990439E+02  0.21967311454E+02 -0.74224454792E+01  0.29083814570E+02  0.51100000000E-03 0.  1.
        -12    1    4    4    0    0  0.50347107491E+01  0.61275381941E+01 -0.14272955271E+02  0.16328266559E+02  0.00000000000E+00 0.  1.
</event>
<event>
 8    1  0.5542925E-011  0.9118800E+02  0.7816164E-02  0.1184000E+00
        -11   -1    0    0    0    0  0.00000000000E+00  0.00000000000E+00  0.45593999997E+02  0.45594000000E+02  0.51100000000E-03 0. -1.
         11   -1    0    0    0    0 -0.00000000000E+00 -0.00000000000E+00 -0.45593999997E+02  0.45594000000E+02  0.51100000000E-03 0.  1.
         23    2    1    2    0    0 -0.17763568394E-14  0.00000000000E+00  0.00000000000E+00  0.91188000000E+02  0.91188000000E+02 0.  0.
    9900012    2    3    3    0    0  0.12390984169E+02 -0.11490855049E+02 -0.39975581735E+02  0.47787269897E+02  0.19999994767E+02 0.  0.
         12    1    3    3    0    0 -0.12390984169E+02  0.11490855049E+02  0.39975581735E+02  0.43400730103E+02  0.00000000000E+00 0. -1.
         11    1    4    4    0    0  0.10926600138E+02 -0.30727879576E+00 -0.22021769404E+02  0.24585429400E+02  0.51100000000E-03 0. -1.
        -11    1    4    4    0    0  0.53709795541E+01 -0.71782907201E+01 -0.94823830358E+01  0.13049554296E+02  0.51100000000E-03 0.  1.
         12    1    4    4    0    0 -0.39065955236E+01 -0.40052855327E+01 -0.84714292958E+01  0.10152286201E+02  0.00000000000E+00 0. -1.
</event>
<event>
 8    1  0.5542925E-011  0.9118800E+02  0.7816164E-02  0.1184000E+00
        -11   -1    0    0    0    0  0.00000000000E+00  0.00000000000E+00  0.45593999997E+02  0.45594000000E+02  0.51100000000E-03 0.  1.
         11   -1    0    0    0    0 -0.00000000000E+00 -0.00000000000E+00 -0.45593999997E+02  0.45594000000E+02  0.51100000000E-03 0. -1.
         23    2    1    2    0    0  0.00000000000E+00  0.71054273576E-14  0.00000000000E+00  0.91188000000E+02  0.91188000000E+02 0.  0.
    9900012    2    3    3    0    0 -0.91396716517E+01 -0.42291313438E+02 -0.33961933321E+01  0.47787275129E+02  0.20000018622E+02 0.  0.
         12    1    3    3    0    0  0.91396716517E+01  0.42291313438E+02  0.33961933321E+01  0.43400724871E+02  0.00000000000E+00 0. -1.
         11    1    4    4    0    0 -0.76761862260E+01 -0.17415899763E+02  0.28006943605E+01  0.19237496944E+02  0.51100000000E-03 0. -1.
        -11    1    4    4    0    0 -0.24109125188E+01 -0.55844228932E+01  0.34153016638E+01  0.69758557854E+01  0.51100000000E-03 0.  1.
         12    1    4    4    0    0  0.94742709311E+00 -0.19290990782E+02 -0.96121893564E+01  0.21573922399E+02  0.00000000000E+00 0. -1.
</event>
<event>
 8    1  0.5542925E-011  0.9118800E+02  0.7816164E-02  0.1184000E+00
        -11   -1    0    0    0    0  0.00000000000E+00  0.00000000000E+00  0.45593999997E+02  0.45594000000E+02  0.51100000000E-03 0. -1.
         11   -1    0    0    0    0 -0.00000000000E+00 -0.00000000000E+00 -0.45593999997E+02  0.45594000000E+02  0.51100000000E-03 0.  1.
         23    2    1    2    0    0  0.88817841970E-15  0.00000000000E+00 -0.35527136788E-14  0.91188000000E+02  0.91188000000E+02 0.  0.
    9900012    2    3    3    0    0 -0.61632915431E+01 -0.30169419434E+02  0.30585015672E+02  0.47787271719E+02  0.20000003077E+02 0.  0.
        -12    1    3    3    0    0  0.61632915431E+01  0.30169419434E+02 -0.30585015672E+02  0.43400728281E+02  0.00000000000E+00 0.  1.
         11    1    4    4    0    0  0.63992326154E+00 -0.66480183557E+01 -0.55063191337E+00  0.67014062407E+01  0.51100000000E-03 0. -1.
        -11    1    4    4    0    0  0.98625233262E+00 -0.16043258491E-01 -0.33448630511E+00  0.10415528787E+01  0.51100000000E-03 0.  1.
         12    1    4    4    0    0 -0.77894671373E+01 -0.23505357820E+02  0.31470133890E+02  0.40044312600E+02  0.00000000000E+00 0. -1.
</event>
<event>
 8    1  0.5542925E-011  0.9118800E+02  0.7816164E-02  0.1184000E+00
        -11   -1    0    0    0    0  0.00000000000E+00  0.00000000000E+00  0.45593999997E+02  0.45594000000E+02  0.51100000000E-03 0. -1.
         11   -1    0    0    0    0 -0.00000000000E+00 -0.00000000000E+00 -0.45593999997E+02  0.45594000000E+02  0.51100000000E-03 0.  1.
         23    2    1    2    0    0  0.00000000000E+00  0.00000000000E+00  0.00000000000E+00  0.91188000000E+02  0.91188000000E+02 0.  0.
    9900012    2    3    3    0    0 -0.78633772484E+01  0.12557824240E+01 -0.42663956915E+02  0.47787275227E+02  0.20000019068E+02 0.  0.
         12    1    3    3    0    0  0.78633772484E+01 -0.12557824240E+01  0.42663956915E+02  0.43400724773E+02  0.00000000000E+00 0. -1.
         11    1    4    4    0    0  0.30876226954E+01  0.22118429931E+01 -0.68133053821E+01  0.78004354895E+01  0.51100000000E-03 0. -1.
        -11    1    4    4    0    0 -0.30916787697E+01 -0.17972240697E+01 -0.32313063697E+00  0.35906692470E+01  0.51100000000E-03 0.  1.
        -12    1    4    4    0    0 -0.78593211741E+01  0.84116350062E+00 -0.35527520896E+02  0.36396170490E+02  0.00000000000E+00 0.  1.
</event>
<event>
 8    1  0.5542925E-011  0.9118800E+02  0.7816164E-02  0.1184000E+00
        -11   -1    0    0    0    0  0.00000000000E+00  0.00000000000E+00  0.45593999997E+02  0.45594000000E+02  0.51100000000E-03 0.  1.
         11   -1    0    0    0    0 -0.00000000000E+00 -0.00000000000E+00 -0.45593999997E+02  0.45594000000E+02  0.51100000000E-03 0. -1.
         23    2    1    2    0    0 -0.35527136788E-14  0.00000000000E+00 -0.35527136788E-14  0.91188000000E+02  0.91188000000E+02 0.  0.
    9900012    2    3    3    0    0  0.31236230020E+02 -0.16256781015E+02 -0.25370026078E+02  0.47787271688E+02  0.20000002935E+02 0.  0.
         12    1    3    3    0    0 -0.31236230020E+02  0.16256781015E+02  0.25370026078E+02  0.43400728312E+02  0.00000000000E+00 0. -1.
         11    1    4    4    0    0  0.55138698348E+01  0.57357578849E+00 -0.46084276872E+01  0.72089774413E+01  0.51100000000E-03 0. -1.
        -11    1    4    4    0    0  0.27892232283E+02 -0.14267478682E+02 -0.19886409078E+02  0.37108042740E+02  0.51100000000E-03 0.  1.
         12    1    4    4    0    0 -0.21698720984E+01 -0.25628781217E+01 -0.87518931275E+00  0.34702515072E+01  0.00000000000E+00 0. -1.
</event>
<event>
 8    1  0.5542925E-011  0.9118800E+02  0.7816164E-02  0.1184000E+00
        -11   -1    0    0    0    0  0.00000000000E+00  0.00000000000E+00  0.45593999997E+02  0.45594000000E+02  0.51100000000E-03 0. -1.
         11   -1    0    0    0    0 -0.00000000000E+00 -0.00000000000E+00 -0.45593999997E+02  0.45594000000E+02  0.51100000000E-03 0.  1.
         23    2    1    2    0    0 -0.11102230246E-14  0.00000000000E+00  0.00000000000E+00  0.91188000000E+02  0.91188000000E+02 0.  0.
    9900012    2    3    3    0    0  0.77750260605E+00 -0.27910595305E+02  0.33226764910E+02  0.47787265594E+02  0.19999975150E+02 0.  0.
        -12    1    3    3    0    0 -0.77750260605E+00  0.27910595305E+02 -0.33226764910E+02  0.43400734406E+02  0.00000000000E+00 0.  1.
         11    1    4    4    0    0  0.48340676867E+01 -0.13940532858E+02  0.10399517407E+02  0.18051499365E+02  0.51100000000E-03 0. -1.
        -11    1    4    4    0    0  0.11874525562E+01  0.19091071504E+01  0.18700259896E+01  0.29243343085E+01  0.51100000000E-03 0.  1.
        -12    1    4    4    0    0 -0.52440176368E+01 -0.15879169598E+02  0.20957221513E+02  0.26811431921E+02  0.00000000000E+00 0.  1.
</event>
<event>
 8    1  0.5542925E-011  0.9118800E+02  0.7816164E-02  0.1184000E+00
        -11   -1    0    0    0    0  0.00000000000E+00  0.00000000000E+00  0.45593999997E+02  0.45594000000E+02  0.51100000000E-03 0.  1.
         11   -1    0    0    0    0 -0.00000000000E+00 -0.00000000000E+00 -0.45593999997E+02  0.45594000000E+02  0.51100000000E-03 0. -1.
         23    2    1    2    0    0  0.00000000000E+00  0.00000000000E+00  0.17763568394E-14  0.91188000000E+02  0.91188000000E+02 0.  0.
    9900012    2    3    3    0    0 -0.40733753807E+02  0.91445305623E+01  0.11864271003E+02  0.47787284973E+02  0.20000063507E+02 0.  0.
         12    1    3    3    0    0  0.40733753807E+02 -0.91445305623E+01 -0.11864271003E+02  0.43400715027E+02  0.00000000000E+00 0. -1.
         11    1    4    4    0    0 -0.77278634752E+01  0.15759766240E+01  0.20454097430E+01  0.81478388232E+01  0.51100000000E-03 0. -1.
        -11    1    4    4    0    0 -0.18472603679E+02  0.11156187856E+02 -0.28011799490E+00  0.21581846087E+02  0.51100000000E-03 0.  1.
         12    1    4    4    0    0 -0.14533286653E+02 -0.35876339176E+01  0.10098979255E+02  0.18057600063E+02  0.00000000000E+00 0. -1.
</event>
<event>
 8    1  0.5542925E-011  0.9118800E+02  0.7816164E-02  0.1184000E+00
        -11   -1    0    0    0    0  0.00000000000E+00  0.00000000000E+00  0.45593999997E+02  0.45594000000E+02  0.51100000000E-03 0.  1.
         11   -1    0    0    0    0 -0.00000000000E+00 -0.00000000000E+00 -0.45593999997E+02  0.45594000000E+02  0.51100000000E-03 0. -1.
         23    2    1    2    0    0  0.88817841970E-15  0.00000000000E+00  0.00000000000E+00  0.91188000000E+02  0.91188000000E+02 0.  0.
    9900012    2    3    3    0    0  0.68593500087E+01 -0.39861727809E+02 -0.15735807901E+02  0.47787266403E+02  0.19999978839E+02 0.  0.
         12    1    3    3    0    0 -0.68593500087E+01  0.39861727809E+02  0.15735807901E+02  0.43400733597E+02  0.00000000000E+00 0. -1.
         11    1    4    4    0    0  0.49106517453E+01 -0.20016527761E+01 -0.27484029430E+01  0.59728413170E+01  0.51100000000E-03 0. -1.
        -11    1    4    4    0    0 -0.30617684567E+01 -0.78377575166E+01  0.69454569954E+00  0.84431784869E+01  0.51100000000E-03 0.  1.
         12    1    4    4    0    0  0.50104667202E+01 -0.30022317516E+02 -0.13681950658E+02  0.33371246599E+02  0.00000000000E+00 0. -1.
</event>
<event>
 8    1  0.5542925E-011  0.9118800E+02  0.7816164E-02  0.1184000E+00
        -11   -1    0    0    0    0  0.00000000000E+00  0.00000000000E+00  0.45593999997E+02  0.45594000000E+02  0.51100000000E-03 0.  1.
         11   -1    0    0    0    0 -0.00000000000E+00 -0.00000000000E+00 -0.45593999997E+02  0.45594000000E+02  0.51100000000E-03 0. -1.
         23    2    1    2    0    0  0.00000000000E+00  0.00000000000E+00 -0.35527136788E-14  0.91188000000E+02  0.91188000000E+02 0.  0.
    9900012    2    3    3    0    0 -0.38118265610E+02  0.44488821782E+01  0.20268898108E+02  0.47787274703E+02  0.20000016682E+02 0.  0.
         12    1    3    3    0    0  0.38118265610E+02 -0.44488821782E+01 -0.20268898108E+02  0.43400725297E+02  0.00000000000E+00 0. -1.
         11    1    4    4    0    0 -0.18014239495E+00  0.10902705359E+00 -0.50232075400E+00  0.54466924082E+00  0.51100000000E-03 0. -1.
        -11    1    4    4    0    0 -0.35247779494E+02  0.95892152878E+01  0.17661616698E+02  0.40574520499E+02  0.51100000000E-03 0.  1.
        -12    1    4    4    0    0 -0.26903437216E+01 -0.52493601632E+01  0.31096021643E+01  0.66680849637E+01  0.00000000000E+00 0.  1.
</event>
<event>
 8    1  0.5542925E-011  0.9118800E+02  0.7816164E-02  0.1184000E+00
        -11   -1    0    0    0    0  0.00000000000E+00  0.00000000000E+00  0.45593999997E+02  0.45594000000E+02  0.51100000000E-03 0.  1.
         11   -1    0    0    0    0 -0.00000000000E+00 -0.00000000000E+00 -0.45593999997E+02  0.45594000000E+02  0.51100000000E-03 0. -1.
         23    2    1    2    0    0  0.00000000000E+00  0.00000000000E+00 -0.35527136788E-14  0.91188000000E+02  0.91188000000E+02 0.  0.
    9900012    2    3    3    0    0  0.18746708831E+02 -0.34781188905E+02 -0.17956985565E+02  0.47787268160E+02  0.19999986849E+02 0.  0.
         12    1    3    3    0    0 -0.18746708831E+02  0.34781188905E+02  0.17956985565E+02  0.43400731840E+02  0.00000000000E+00 0. -1.
         11    1    4    4    0    0  0.35863058301E+01 -0.12355684693E+01 -0.11154447009E+01  0.39537875627E+01  0.51100000000E-03 0. -1.
        -11    1    4    4    0    0  0.11250506372E+02 -0.27476023722E+02 -0.20159678516E+02  0.35887580182E+02  0.51100000000E-03 0.  1.
        -12    1    4    4    0    0  0.39098966297E+01 -0.60695967143E+01  0.33181376525E+01  0.79459004153E+01  0.00000000000E+00 0.  1.
</event>
<event>
 8    1  0.5542925E-011  0.9118800E+02  0.7816164E-02  0.1184000E+00
        -11   -1    0    0    0    0  0.00000000000E+00  0.00000000000E+00  0.45593999997E+02  0.45594000000E+02  0.51100000000E-03 0. -1.
         11   -1    0    0    0    0 -0.00000000000E+00 -0.00000000000E+00 -0.45593999997E+02  0.45594000000E+02  0.51100000000E-03 0.  1.
         23    2    1    2    0    0  0.00000000000E+00  0.00000000000E+00 -0.71054273576E-14  0.91188000000E+02  0.91188000000E+02 0.  0.
    9900012    2    3    3    0    0 -0.17335389646E+02  0.17698204740E+02 -0.35635391497E+02  0.47787270601E+02  0.19999997980E+02 0.  0.
         12    1    3    3    0    0  0.17335389646E+02 -0.17698204740E+02  0.35635391497E+02  0.43400729399E+02  0.00000000000E+00 0. -1.
         11    1    4    4    0    0  0.15013752733E+01  0.10761802923E+01 -0.23731128862E+01  0.30073172039E+01  0.51100000000E-03 0. -1.
        -11    1    4    4    0    0 -0.16685957058E+02  0.47604222904E+01 -0.15220204122E+02  0.23081104764E+02  0.51100000000E-03 0.  1.
        -12    1    4    4    0    0 -0.21508078614E+01  0.11861602158E+02 -0.18042074488E+02  0.21698848634E+02  0.00000000000E+00 0.  1.
</event>
<event>
 8    1  0.5542925E-011  0.9118800E+02  0.7816164E-02  0.1184000E+00
        -11   -1    0    0    0    0  0.00000000000E+00  0.00000000000E+00  0.45593999997E+02  0.45594000000E+02  0.51100000000E-03 0. -1.
         11   -1    0    0    0    0 -0.00000000000E+00 -0.00000000000E+00 -0.45593999997E+02  0.45594000000E+02  0.51100000000E-03 0.  1.
         23    2    1    2    0    0  0.00000000000E+00  0.00000000000E+00  0.00000000000E+00  0.91188000000E+02  0.91188000000E+02 0.  0.
    9900012    2    3    3    0    0  0.76927419357E+01 -0.53714398989E+01 -0.42374438368E+02  0.47787266457E+02  0.19999979084E+02 0.  0.
         12    1    3    3    0    0 -0.76927419357E+01  0.53714398989E+01  0.42374438368E+02  0.43400733543E+02  0.00000000000E+00 0. -1.
         11    1    4    4    0    0  0.10671935731E-01 -0.13754424182E+01 -0.17543965152E+01  0.22293189834E+01  0.51100000000E-03 0. -1.
        -11    1    4    4    0    0  0.20277641898E+01 -0.58782481128E+01 -0.38845428085E+02  0.39339965835E+02  0.51100000000E-03 0.  1.
         12    1    4    4    0    0  0.56543058103E+01  0.18822506321E+01 -0.17746137674E+01  0.62179816389E+01  0.00000000000E+00 0. -1.
</event>
<event>
 8    1  0.5542925E-011  0.9118800E+02  0.7816164E-02  0.1184000E+00
        -11   -1    0    0    0    0  0.00000000000E+00  0.00000000000E+00  0.45593999997E+02  0.45594000000E+02  0.51100000000E-03 0. -1.
         11   -1    0    0    0    0 -0.00000000000E+00 -0.00000000000E+00 -0.45593999997E+02  0.45594000000E+02  0.51100000000E-03 0.  1.
         23    2    1    2    0    0  0.00000000000E+00  0.00000000000E+00  0.71054273576E-14  0.91188000000E+02  0.91188000000E+02 0.  0.
    9900012    2    3    3    0    0  0.18993953222E+02  0.17645546325E+02  0.34806439022E+02  0.47787265427E+02  0.19999974387E+02 0.  0.
        -12    1    3    3    0    0 -0.18993953222E+02 -0.17645546325E+02 -0.34806439022E+02  0.43400734573E+02  0.00000000000E+00 0.  1.
         11    1    4    4    0    0  0.10408904135E+02  0.16824162922E+02  0.13483632042E+02  0.23941722508E+02  0.51100000000E-03 0. -1.
        -11    1    4    4    0    0  0.37924949737E+01 -0.39847631812E+00  0.29568700889E+01  0.48254411701E+01  0.51100000000E-03 0.  1.
        -12    1    4    4    0    0  0.47925541132E+01  0.12198597211E+01  0.18365936890E+02  0.19020101749E+02  0.00000000000E+00 0.  1.
</event>
<event>
 8    1  0.5542925E-011  0.9118800E+02  0.7816164E-02  0.1184000E+00
        -11   -1    0    0    0    0  0.00000000000E+00  0.00000000000E+00  0.45593999997E+02  0.45594000000E+02  0.51100000000E-03 0. -1.
         11   -1    0    0    0    0 -0.00000000000E+00 -0.00000000000E+00 -0.45593999997E+02  0.45594000000E+02  0.51100000000E-03 0.  1.
         23    2    1    2    0    0  0.00000000000E+00  0.00000000000E+00  0.71054273576E-14  0.91188000000E+02  0.91188000000E+02 0.  0.
    9900012    2    3    3    0    0  0.10115760531E+02  0.22241092251E+02 -0.35869618948E+02  0.47787258542E+02  0.19999942998E+02 0.  0.
         12    1    3    3    0    0 -0.10115760531E+02 -0.22241092251E+02  0.35869618948E+02  0.43400741458E+02  0.00000000000E+00 0. -1.
         11    1    4    4    0    0 -0.34673482041E+01  0.36520003163E+01 -0.49254184271E+01  0.70441008526E+01  0.51100000000E-03 0. -1.
        -11    1    4    4    0    0  0.17513485611E+01  0.12363392320E+02 -0.19441982819E+02  0.23106522621E+02  0.51100000000E-03 0.  1.
         12    1    4    4    0    0  0.11831760174E+02  0.62256996142E+01 -0.11502217702E+02  0.17636635069E+02  0.00000000000E+00 0. -1.
</event>
<event>
 8    1  0.5542925E-011  0.9118800E+02  0.7816164E-02  0.1184000E+00
        -11   -1    0    0    0    0  0.00000000000E+00  0.00000000000E+00  0.45593999997E+02  0.45594000000E+02  0.51100000000E-03 0. -1.
         11   -1    0    0    0    0 -0.00000000000E+00 -0.00000000000E+00 -0.45593999997E+02  0.45594000000E+02  0.51100000000E-03 0.  1.
         23    2    1    2    0    0  0.35527136788E-14 -0.35527136788E-14  0.00000000000E+00  0.91188000000E+02  0.91188000000E+02 0.  0.
    9900012    2    3    3    0    0  0.19922648581E+02 -0.16729733462E+02 -0.34739427954E+02  0.47787265412E+02  0.19999974319E+02 0.  0.
         12    1    3    3    0    0 -0.19922648581E+02  0.16729733462E+02  0.34739427954E+02  0.43400734588E+02  0.00000000000E+00 0. -1.
         11    1    4    4    0    0  0.22882121203E+01  0.23487539411E+01 -0.23320076915E+01  0.40237817930E+01  0.51100000000E-03 0. -1.
        -11    1    4    4    0    0  0.17661271712E+02 -0.99836218368E+01 -0.23251004739E+02  0.30857777708E+02  0.51100000000E-03 0.  1.
        -12    1    4    4    0    0 -0.26835251124E-01 -0.90948655666E+01 -0.91564155241E+01  0.12905705911E+02  0.00000000000E+00 0.  1.
</event>
<event>
 8    1  0.5542925E-011  0.9118800E+02  0.7816164E-02  0.1184000E+00
        -11   -1    0    0    0    0  0.00000000000E+00  0.00000000000E+00  0.45593999997E+02  0.45594000000E+02  0.51100000000E-03 0. -1.
         11   -1    0    0    0    0 -0.00000000000E+00 -0.00000000000E+00 -0.45593999997E+02  0.45594000000E+02  0.51100000000E-03 0.  1.
         23    2    1    2    0    0  0.00000000000E+00  0.88817841970E-15 -0.35527136788E-14  0.91188000000E+02  0.91188000000E+02 0.  0.
    9900012    2    3    3    0    0  0.32092242309E+02  0.76133333158E+01 -0.28209014578E+02  0.47787270006E+02  0.19999995263E+02 0.  0.
         12    1    3    3    0    0 -0.32092242309E+02 -0.76133333158E+01  0.28209014578E+02  0.43400729994E+02  0.00000000000E+00 0. -1.
         11    1    4    4    0    0  0.46435263942E+01 -0.47938244895E+01 -0.69038340519E+01  0.96023963409E+01  0.51100000000E-03 0.  1.
        -11    1    4    4    0    0  0.36585616504E+01 -0.16660565610E+01 -0.21877689916E+01  0.45768057896E+01  0.51100000000E-03 0. -1.
        -12    1    4    4    0    0  0.23790154264E+02  0.14073214366E+02 -0.19117411535E+02  0.33608067875E+02  0.00000000000E+00 0.  1.
</event>
<event>
 8    1  0.5542925E-011  0.9118800E+02  0.7816164E-02  0.1184000E+00
        -11   -1    0    0    0    0  0.00000000000E+00  0.00000000000E+00  0.45593999997E+02  0.45594000000E+02  0.51100000000E-03 0. -1.
         11   -1    0    0    0    0 -0.00000000000E+00 -0.00000000000E+00 -0.45593999997E+02  0.45594000000E+02  0.51100000000E-03 0.  1.
         23    2    1    2    0    0 -0.35527136788E-14  0.00000000000E+00  0.00000000000E+00  0.91188000000E+02  0.91188000000E+02 0.  0.
    9900012    2    3    3    0    0  0.24136694778E+02 -0.80096355463E+01 -0.35169403224E+02  0.47787294712E+02  0.20000107908E+02 0.  0.
         12    1    3    3    0    0 -0.24136694778E+02  0.80096355463E+01  0.35169403224E+02  0.43400705288E+02  0.00000000000E+00 0. -1.
         11    1    4    4    0    0  0.14724389487E-01 -0.49779121182E+01 -0.25621579376E+01  0.55986140626E+01  0.51100000000E-03 0. -1.
        -11    1    4    4    0    0  0.60532595103E+01  0.14023260137E+01 -0.22981897101E+01  0.66249637850E+01  0.51100000000E-03 0.  1.
        -12    1    4    4    0    0  0.18068710879E+02 -0.44340494419E+01 -0.30309055576E+02  0.35563716864E+02  0.00000000000E+00 0.  1.
</event>
<event>
 8    1  0.5542925E-011  0.9118800E+02  0.7816164E-02  0.1184000E+00
        -11   -1    0    0    0    0  0.00000000000E+00  0.00000000000E+00  0.45593999997E+02  0.45594000000E+02  0.51100000000E-03 0. -1.
         11   -1    0    0    0    0 -0.00000000000E+00 -0.00000000000E+00 -0.45593999997E+02  0.45594000000E+02  0.51100000000E-03 0.  1.
         23    2    1    2    0    0  0.22204460493E-15  0.00000000000E+00  0.00000000000E+00  0.91188000000E+02  0.91188000000E+02 0.  0.
    9900012    2    3    3    0    0 -0.14682950191E+01 -0.37949936315E+02 -0.21006429582E+02  0.47787266823E+02  0.19999980752E+02 0.  0.
         12    1    3    3    0    0  0.14682950191E+01  0.37949936315E+02  0.21006429582E+02  0.43400733177E+02  0.00000000000E+00 0. -1.
         11    1    4    4    0    0 -0.16311214771E+01 -0.13309760848E+02 -0.83467615963E+01  0.15794895394E+02  0.51100000000E-03 0. -1.
        -11    1    4    4    0    0 -0.72570978474E+01 -0.10090309142E+02 -0.87449418864E+01  0.15197164755E+02  0.51100000000E-03 0.  1.
         12    1    4    4    0    0  0.74199243054E+01 -0.14549866325E+02 -0.39147260989E+01  0.16795206674E+02  0.00000000000E+00 0. -1.
</event>
<event>
 8    1  0.5542925E-011  0.9118800E+02  0.7816164E-02  0.1184000E+00
        -11   -1    0    0    0    0  0.00000000000E+00  0.00000000000E+00  0.45593999997E+02  0.45594000000E+02  0.51100000000E-03 0.  1.
         11   -1    0    0    0    0 -0.00000000000E+00 -0.00000000000E+00 -0.45593999997E+02  0.45594000000E+02  0.51100000000E-03 0. -1.
         23    2    1    2    0    0  0.00000000000E+00  0.00000000000E+00 -0.88817841970E-15  0.91188000000E+02  0.91188000000E+02 0.  0.
    9900012    2    3    3    0    0 -0.29995300805E+02 -0.30568137037E+02 -0.70352035793E+01  0.47787272337E+02  0.20000005892E+02 0.  0.
         12    1    3    3    0    0  0.29995300805E+02  0.30568137037E+02  0.70352035793E+01  0.43400727663E+02  0.00000000000E+00 0. -1.
         11    1    4    4    0    0 -0.88081611717E+01 -0.11459582305E+02 -0.26328069768E+01  0.14691405742E+02  0.51100000000E-03 0.  1.
        -11    1    4    4    0    0  0.13728772478E+01 -0.68593905763E+01 -0.21879420865E+01  0.73296058455E+01  0.51100000000E-03 0. -1.
         12    1    4    4    0    0 -0.22560016881E+02 -0.12249164156E+02 -0.22144545161E+01  0.25766260749E+02  0.00000000000E+00 0. -1.
</event>
<event>
 8    1  0.5542925E-011  0.9118800E+02  0.7816164E-02  0.1184000E+00
        -11   -1    0    0    0    0  0.00000000000E+00  0.00000000000E+00  0.45593999997E+02  0.45594000000E+02  0.51100000000E-03 0. -1.
         11   -1    0    0    0    0 -0.00000000000E+00 -0.00000000000E+00 -0.45593999997E+02  0.45594000000E+02  0.51100000000E-03 0.  1.
         23    2    1    2    0    0 -0.88817841970E-15  0.00000000000E+00  0.00000000000E+00  0.91188000000E+02  0.91188000000E+02 0.  0.
    9900012    2    3    3    0    0  0.64985756969E+01 -0.11917678159E+02 -0.41223326409E+02  0.47787249096E+02  0.19999899927E+02 0.  0.
         12    1    3    3    0    0 -0.64985756969E+01  0.11917678159E+02  0.41223326409E+02  0.43400750904E+02  0.00000000000E+00 0. -1.
         11    1    4    4    0    0  0.38176116631E+01 -0.17404806100E+01 -0.66814302925E-01  0.41961763519E+01  0.51100000000E-03 0. -1.
        -11    1    4    4    0    0  0.48736958588E+01 -0.57732160184E+01 -0.13236981999E+02  0.15241411589E+02  0.51100000000E-03 0.  1.
        -12    1    4    4    0    0 -0.21927318250E+01 -0.44039815310E+01 -0.27919530107E+02  0.28349661155E+02  0.00000000000E+00 0.  1.
</event>
<event>
 8    1  0.5542925E-011  0.9118800E+02  0.7816164E-02  0.1184000E+00
        -11   -1    0    0    0    0  0.00000000000E+00  0.00000000000E+00  0.45593999997E+02  0.45594000000E+02  0.51100000000E-03 0. -1.
         11   -1    0    0    0    0 -0.00000000000E+00 -0.00000000000E+00 -0.45593999997E+02  0.45594000000E+02  0.51100000000E-03 0.  1.
         23    2    1    2    0    0  0.00000000000E+00 -0.38857805862E-15  0.00000000000E+00  0.91188000000E+02  0.91188000000E+02 0.  0.
    9900012    2    3    3    0    0 -0.52896797225E+01  0.30506648660E+00 -0.43076091615E+02  0.47787269062E+02  0.19999990963E+02 0.  0.
         12    1    3    3    0    0  0.52896797225E+01 -0.30506648660E+00  0.43076091615E+02  0.43400730938E+02  0.00000000000E+00 0. -1.
         11    1    4    4    0    0 -0.36053799275E+01 -0.40570462175E+01 -0.42398712303E+01  0.68872996699E+01  0.51100000000E-03 0. -1.
        -11    1    4    4    0    0 -0.62168980348E+01  0.12330836106E+01 -0.12747366296E+02  0.14236069124E+02  0.51100000000E-03 0.  1.
        -12    1    4    4    0    0  0.45325982398E+01  0.31290290935E+01 -0.26088854088E+02  0.26663900268E+02  0.00000000000E+00 0.  1.
</event>
<event>
 8    1  0.5542925E-011  0.9118800E+02  0.7816164E-02  0.1184000E+00
        -11   -1    0    0    0    0  0.00000000000E+00  0.00000000000E+00  0.45593999997E+02  0.45594000000E+02  0.51100000000E-03 0. -1.
         11   -1    0    0    0    0 -0.00000000000E+00 -0.00000000000E+00 -0.45593999997E+02  0.45594000000E+02  0.51100000000E-03 0.  1.
         23    2    1    2    0    0  0.00000000000E+00  0.00000000000E+00  0.00000000000E+00  0.91188000000E+02  0.91188000000E+02 0.  0.
    9900012    2    3    3    0    0 -0.34555347484E+02 -0.20972949306E+02 -0.15801475911E+02  0.47787270936E+02  0.19999999508E+02 0.  0.
        -12    1    3    3    0    0  0.34555347484E+02  0.20972949306E+02  0.15801475911E+02  0.43400729064E+02  0.00000000000E+00 0.  1.
         11    1    4    4    0    0 -0.23867581598E+02 -0.12269245363E+02 -0.90511755085E+01  0.28321716252E+02  0.51100000000E-03 0. -1.
        -11    1    4    4    0    0 -0.13259338847E+02 -0.78003778942E+01 -0.65885548032E+01  0.16735143161E+02  0.51100000000E-03 0.  1.
        -12    1    4    4    0    0  0.25715729618E+01 -0.90332604846E+00 -0.16174559875E+00  0.27304115233E+01  0.00000000000E+00 0.  1.
</event>
<event>
 8    1  0.5542925E-011  0.9118800E+02  0.7816164E-02  0.1184000E+00
        -11   -1    0    0    0    0  0.00000000000E+00  0.00000000000E+00  0.45593999997E+02  0.45594000000E+02  0.51100000000E-03 0. -1.
         11   -1    0    0    0    0 -0.00000000000E+00 -0.00000000000E+00 -0.45593999997E+02  0.45594000000E+02  0.51100000000E-03 0.  1.
         23    2    1    2    0    0  0.00000000000E+00 -0.17763568394E-14  0.71054273576E-14  0.91188000000E+02  0.91188000000E+02 0.  0.
    9900012    2    3    3    0    0 -0.50102583026E+01 -0.82417908056E+01  0.42315402533E+02  0.47787273100E+02  0.20000009370E+02 0.  0.
        -12    1    3    3    0    0  0.50102583026E+01  0.82417908056E+01 -0.42315402533E+02  0.43400726900E+02  0.00000000000E+00 0.  1.
         11    1    4    4    0    0 -0.45089702570E+00 -0.28258306478E+01  0.31712380058E+01  0.42714608424E+01  0.51100000000E-03 0. -1.
        -11    1    4    4    0    0 -0.78926795387E+00  0.64558125828E+01  0.11968415532E+02  0.13621432767E+02  0.51100000000E-03 0.  1.
        -12    1    4    4    0    0 -0.37700933230E+01 -0.11871772741E+02  0.27175748995E+02  0.29894379490E+02  0.00000000000E+00 0.  1.
</event>
<event>
 8    1  0.5542925E-011  0.9118800E+02  0.7816164E-02  0.1184000E+00
        -11   -1    0    0    0    0  0.00000000000E+00  0.00000000000E+00  0.45593999997E+02  0.45594000000E+02  0.51100000000E-03 0. -1.
         11   -1    0    0    0    0 -0.00000000000E+00 -0.00000000000E+00 -0.45593999997E+02  0.45594000000E+02  0.51100000000E-03 0.  1.
         23    2    1    2    0    0  0.00000000000E+00  0.17763568394E-14  0.71054273576E-14  0.91188000000E+02  0.91188000000E+02 0.  0.
    9900012    2    3    3    0    0 -0.14491820375E+02 -0.27399500245E+01 -0.40817917834E+02  0.47787278806E+02  0.20000035387E+02 0.  0.
         12    1    3    3    0    0  0.14491820375E+02  0.27399500245E+01  0.40817917834E+02  0.43400721194E+02  0.00000000000E+00 0. -1.
         11    1    4    4    0    0 -0.17958078619E+00 -0.26257932670E+01 -0.10262195490E+01  0.28249188243E+01  0.51100000000E-03 0. -1.
        -11    1    4    4    0    0 -0.58824065171E+01  0.56480470763E+01 -0.74449866077E+01  0.11042235646E+02  0.51100000000E-03 0.  1.
         12    1    4    4    0    0 -0.84298330716E+01 -0.57622038339E+01 -0.32346711677E+02  0.33920124336E+02  0.00000000000E+00 0. -1.
</event>
<event>
 8    1  0.5542925E-011  0.9118800E+02  0.7816164E-02  0.1184000E+00
        -11   -1    0    0    0    0  0.00000000000E+00  0.00000000000E+00  0.45593999997E+02  0.45594000000E+02  0.51100000000E-03 0. -1.
         11   -1    0    0    0    0 -0.00000000000E+00 -0.00000000000E+00 -0.45593999997E+02  0.45594000000E+02  0.51100000000E-03 0.  1.
         23    2    1    2    0    0  0.88817841970E-15 -0.88817841970E-15  0.14210854715E-13  0.91188000000E+02  0.91188000000E+02 0.  0.
    9900012    2    3    3    0    0  0.34603242528E+01 -0.64451267229E+01  0.42779775531E+02  0.47787277691E+02  0.20000030306E+02 0.  0.
        -12    1    3    3    0    0 -0.34603242528E+01  0.64451267229E+01 -0.42779775531E+02  0.43400722309E+02  0.00000000000E+00 0.  1.
         11    1    4    4    0    0  0.38919419519E+01 -0.10064684494E+02  0.28855732066E+02  0.30807440002E+02  0.51100000000E-03 0. -1.
        -11    1    4    4    0    0 -0.47185351796E+00 -0.17922599330E+01 -0.19069506890E+00  0.18631173555E+01  0.51100000000E-03 0.  1.
         12    1    4    4    0    0  0.40235818913E-01  0.54118177041E+01  0.14114738534E+02  0.15116720334E+02  0.00000000000E+00 0. -1.
</event>
<event>
 8    1  0.5542925E-011  0.9118800E+02  0.7816164E-02  0.1184000E+00
        -11   -1    0    0    0    0  0.00000000000E+00  0.00000000000E+00  0.45593999997E+02  0.45594000000E+02  0.51100000000E-03 0. -1.
         11   -1    0    0    0    0 -0.00000000000E+00 -0.00000000000E+00 -0.45593999997E+02  0.45594000000E+02  0.51100000000E-03 0.  1.
         23    2    1    2    0    0  0.00000000000E+00  0.00000000000E+00 -0.35527136788E-14  0.91188000000E+02  0.91188000000E+02 0.  0.
    9900012    2    3    3    0    0  0.13079324400E+02  0.28394743036E+02  0.30104699984E+02  0.47787272818E+02  0.20000008087E+02 0.  0.
        -12    1    3    3    0    0 -0.13079324400E+02 -0.28394743036E+02 -0.30104699984E+02  0.43400727182E+02  0.00000000000E+00 0.  1.
         11    1    4    4    0    0 -0.16548214419E+01  0.53299598974E+01  0.53141857920E+01  0.77063271021E+01  0.51100000000E-03 0. -1.
        -11    1    4    4    0    0  0.76049757141E+01  0.11029026125E+02  0.22968788432E+01  0.13592303909E+02  0.51100000000E-03 0.  1.
        -12    1    4    4    0    0  0.71291701273E+01  0.12035757014E+02  0.22493635348E+02  0.26488641807E+02  0.00000000000E+00 0.  1.
</event>
<event>
 8    1  0.5542925E-011  0.9118800E+02  0.7816164E-02  0.1184000E+00
        -11   -1    0    0    0    0  0.00000000000E+00  0.00000000000E+00  0.45593999997E+02  0.45594000000E+02  0.51100000000E-03 0. -1.
         11   -1    0    0    0    0 -0.00000000000E+00 -0.00000000000E+00 -0.45593999997E+02  0.45594000000E+02  0.51100000000E-03 0.  1.
         23    2    1    2    0    0  0.24980018054E-15  0.71054273576E-14  0.00000000000E+00  0.91188000000E+02  0.91188000000E+02 0.  0.
    9900012    2    3    3    0    0  0.89893081422E-01  0.41748267821E+02 -0.11861669228E+02  0.47787249503E+02  0.19999901786E+02 0.  0.
         12    1    3    3    0    0 -0.89893081422E-01 -0.41748267821E+02  0.11861669228E+02  0.43400750497E+02  0.00000000000E+00 0. -1.
         11    1    4    4    0    0  0.10977570472E+01  0.71742599463E+01 -0.63721848594E+01  0.96581476720E+01  0.51100000000E-03 0. -1.
        -11    1    4    4    0    0  0.34258482570E+01  0.20376919455E+02 -0.94740403919E+01  0.22731315940E+02  0.51100000000E-03 0.  1.
        -12    1    4    4    0    0 -0.44337122228E+01  0.14197088419E+02  0.39845560230E+01  0.15397785891E+02  0.00000000000E+00 0.  1.
</event>
<event>
 8    1  0.5542925E-011  0.9118800E+02  0.7816164E-02  0.1184000E+00
        -11   -1    0    0    0    0  0.00000000000E+00  0.00000000000E+00  0.45593999997E+02  0.45594000000E+02  0.51100000000E-03 0. -1.
         11   -1    0    0    0    0 -0.00000000000E+00 -0.00000000000E+00 -0.45593999997E+02  0.45594000000E+02  0.51100000000E-03 0.  1.
         23    2    1    2    0    0  0.17763568394E-14  0.00000000000E+00  0.00000000000E+00  0.91188000000E+02  0.91188000000E+02 0.  0.
    9900012    2    3    3    0    0  0.41487079751E+01  0.37993331598E+02 -0.20564982833E+02  0.47787267948E+02  0.19999985881E+02 0.  0.
         12    1    3    3    0    0 -0.41487079751E+01 -0.37993331598E+02  0.20564982833E+02  0.43400732052E+02  0.00000000000E+00 0. -1.
         11    1    4    4    0    0  0.80754575577E+00  0.19345983194E+00 -0.60317892594E+01  0.60886812025E+01  0.51100000000E-03 0. -1.
        -11    1    4    4    0    0  0.37681886504E+01  0.78516733074E+01 -0.79011538954E+00  0.87448443109E+01  0.51100000000E-03 0.  1.
        -12    1    4    4    0    0 -0.42702643108E+00  0.29948198458E+02 -0.13743078184E+02  0.32953742434E+02  0.00000000000E+00 0.  1.
</event>
<event>
 8    1  0.5542925E-011  0.9118800E+02  0.7816164E-02  0.1184000E+00
        -11   -1    0    0    0    0  0.00000000000E+00  0.00000000000E+00  0.45593999997E+02  0.45594000000E+02  0.51100000000E-03 0. -1.
         11   -1    0    0    0    0 -0.00000000000E+00 -0.00000000000E+00 -0.45593999997E+02  0.45594000000E+02  0.51100000000E-03 0.  1.
         23    2    1    2    0    0  0.00000000000E+00  0.00000000000E+00  0.00000000000E+00  0.91188000000E+02  0.91188000000E+02 0.  0.
    9900012    2    3    3    0    0 -0.19646531922E+02 -0.12124161713E+02 -0.36751063271E+02  0.47787283815E+02  0.20000058227E+02 0.  0.
         12    1    3    3    0    0  0.19646531922E+02  0.12124161713E+02  0.36751063271E+02  0.43400716185E+02  0.00000000000E+00 0. -1.
         11    1    4    4    0    0 -0.41630323087E+01 -0.75510264438E+01 -0.16071799167E+02  0.18238738089E+02  0.51100000000E-03 0. -1.
        -11    1    4    4    0    0 -0.10535465177E+02 -0.85801450982E+01 -0.18207735916E+02  0.22718639128E+02  0.51100000000E-03 0.  1.
         12    1    4    4    0    0 -0.49480344363E+01  0.40070098290E+01 -0.24715281888E+01  0.68299065982E+01  0.00000000000E+00 0. -1.
</event>
<event>
 8    1  0.5542925E-011  0.9118800E+02  0.7816164E-02  0.1184000E+00
        -11   -1    0    0    0    0  0.00000000000E+00  0.00000000000E+00  0.45593999997E+02  0.45594000000E+02  0.51100000000E-03 0. -1.
         11   -1    0    0    0    0 -0.00000000000E+00 -0.00000000000E+00 -0.45593999997E+02  0.45594000000E+02  0.51100000000E-03 0.  1.
         23    2    1    2    0    0  0.00000000000E+00 -0.17763568394E-14  0.00000000000E+00  0.91188000000E+02  0.91188000000E+02 0.  0.
    9900012    2    3    3    0    0  0.16857051672E+02 -0.12218961126E+02  0.38080975131E+02  0.47787264188E+02  0.19999968739E+02 0.  0.
        -12    1    3    3    0    0 -0.16857051672E+02  0.12218961126E+02 -0.38080975131E+02  0.43400735812E+02  0.00000000000E+00 0.  1.
         11    1    4    4    0    0 -0.81130058972E+00  0.19198138273E+01  0.28514966220E+01  0.35319862719E+01  0.51100000000E-03 0.  1.
        -11    1    4    4    0    0  0.99789253998E+01 -0.18455878441E+01  0.23525910921E+02  0.25621351087E+02  0.51100000000E-03 0. -1.
         12    1    4    4    0    0  0.76894268623E+01 -0.12293187109E+02  0.11703567588E+02  0.18633926829E+02  0.00000000000E+00 0. -1.
</event>
<event>
 8    1  0.5542925E-011  0.9118800E+02  0.7816164E-02  0.1184000E+00
        -11   -1    0    0    0    0  0.00000000000E+00  0.00000000000E+00  0.45593999997E+02  0.45594000000E+02  0.51100000000E-03 0. -1.
         11   -1    0    0    0    0 -0.00000000000E+00 -0.00000000000E+00 -0.45593999997E+02  0.45594000000E+02  0.51100000000E-03 0.  1.
         23    2    1    2    0    0  0.11102230246E-15  0.35527136788E-14  0.00000000000E+00  0.91188000000E+02  0.91188000000E+02 0.  0.
    9900012    2    3    3    0    0 -0.32948934824E+00  0.28523632264E+02 -0.32709590027E+02  0.47787269125E+02  0.19999991247E+02 0.  0.
         12    1    3    3    0    0  0.32948934824E+00 -0.28523632264E+02  0.32709590027E+02  0.43400730875E+02  0.00000000000E+00 0. -1.
         11    1    4    4    0    0 -0.22660044892E+01  0.12237668610E+01 -0.45170873956E+01  0.51996596500E+01  0.51100000000E-03 0. -1.
        -11    1    4    4    0    0 -0.61697525328E+01  0.45718246122E+01 -0.53385467164E+01  0.93524065301E+01  0.51100000000E-03 0.  1.
        -12    1    4    4    0    0  0.81062676738E+01  0.22728040791E+02 -0.22853955915E+02  0.33235202945E+02  0.00000000000E+00 0.  1.
</event>
<event>
 8    1  0.5542925E-011  0.9118800E+02  0.7816164E-02  0.1184000E+00
        -11   -1    0    0    0    0  0.00000000000E+00  0.00000000000E+00  0.45593999997E+02  0.45594000000E+02  0.51100000000E-03 0. -1.
         11   -1    0    0    0    0 -0.00000000000E+00 -0.00000000000E+00 -0.45593999997E+02  0.45594000000E+02  0.51100000000E-03 0.  1.
         23    2    1    2    0    0  0.44408920985E-15 -0.35527136788E-14  0.00000000000E+00  0.91188000000E+02  0.91188000000E+02 0.  0.
    9900012    2    3    3    0    0 -0.21080996120E+01  0.28206347280E+02 -0.32917787901E+02  0.47787275684E+02  0.20000021154E+02 0.  0.
         12    1    3    3    0    0  0.21080996120E+01 -0.28206347280E+02  0.32917787901E+02  0.43400724316E+02  0.00000000000E+00 0. -1.
         11    1    4    4    0    0  0.11907337482E+01  0.19437354420E+01 -0.76596301832E+01  0.79916136751E+01  0.51100000000E-03 0. -1.
        -11    1    4    4    0    0 -0.78732218311E+01  0.72994960184E+01 -0.56309759352E+01  0.12123454721E+02  0.51100000000E-03 0.  1.
        -12    1    4    4    0    0  0.45743884709E+01  0.18963115820E+02 -0.19627181782E+02  0.27672207288E+02  0.00000000000E+00 0.  1.
</event>
<event>
 8    1  0.5542925E-011  0.9118800E+02  0.7816164E-02  0.1184000E+00
        -11   -1    0    0    0    0  0.00000000000E+00  0.00000000000E+00  0.45593999997E+02  0.45594000000E+02  0.51100000000E-03 0.  1.
         11   -1    0    0    0    0 -0.00000000000E+00 -0.00000000000E+00 -0.45593999997E+02  0.45594000000E+02  0.51100000000E-03 0. -1.
         23    2    1    2    0    0 -0.88817841970E-15 -0.71054273576E-14  0.00000000000E+00  0.91188000000E+02  0.91188000000E+02 0.  0.
    9900012    2    3    3    0    0  0.62761331670E+01 -0.39320589387E+02  0.17266292634E+02  0.47787268916E+02  0.19999990296E+02 0.  0.
         12    1    3    3    0    0 -0.62761331670E+01  0.39320589387E+02 -0.17266292634E+02  0.43400731084E+02  0.00000000000E+00 0. -1.
         11    1    4    4    0    0  0.22432544656E+00 -0.13211987539E+02 -0.61394200606E+00  0.13228146570E+02  0.51100000000E-03 0. -1.
        -11    1    4    4    0    0 -0.30438845595E+01 -0.13981149341E+02  0.72220417751E+01  0.16027964867E+02  0.51100000000E-03 0.  1.
        -12    1    4    4    0    0  0.90956922800E+01 -0.12127452507E+02  0.10658192865E+02  0.18531157479E+02  0.00000000000E+00 0.  1.
</event>
<event>
 8    1  0.5542925E-011  0.9118800E+02  0.7816164E-02  0.1184000E+00
        -11   -1    0    0    0    0  0.00000000000E+00  0.00000000000E+00  0.45593999997E+02  0.45594000000E+02  0.51100000000E-03 0. -1.
         11   -1    0    0    0    0 -0.00000000000E+00 -0.00000000000E+00 -0.45593999997E+02  0.45594000000E+02  0.51100000000E-03 0.  1.
         23    2    1    2    0    0  0.00000000000E+00  0.00000000000E+00  0.00000000000E+00  0.91188000000E+02  0.91188000000E+02 0.  0.
    9900012    2    3    3    0    0 -0.16359788452E+02  0.10501791986E+02  0.38803257397E+02  0.47787273074E+02  0.20000009253E+02 0.  0.
        -12    1    3    3    0    0  0.16359788452E+02 -0.10501791986E+02 -0.38803257397E+02  0.43400726926E+02  0.00000000000E+00 0.  1.
         11    1    4    4    0    0 -0.11436075464E+02 -0.14791341124E+01  0.11574745423E+02  0.16338494166E+02  0.51100000000E-03 0. -1.
        -11    1    4    4    0    0 -0.42354527271E+00  0.66025942135E-01 -0.66149183940E+00  0.78823964490E+00  0.51100000000E-03 0.  1.
        -12    1    4    4    0    0 -0.45001677153E+01  0.11914900156E+02  0.27890003813E+02  0.30660539263E+02  0.00000000000E+00 0.  1.
</event>
<event>
 8    1  0.5542925E-011  0.9118800E+02  0.7816164E-02  0.1184000E+00
        -11   -1    0    0    0    0  0.00000000000E+00  0.00000000000E+00  0.45593999997E+02  0.45594000000E+02  0.51100000000E-03 0. -1.
         11   -1    0    0    0    0 -0.00000000000E+00 -0.00000000000E+00 -0.45593999997E+02  0.45594000000E+02  0.51100000000E-03 0.  1.
         23    2    1    2    0    0  0.44408920985E-15 -0.88817841970E-15  0.00000000000E+00  0.91188000000E+02  0.91188000000E+02 0.  0.
    9900012    2    3    3    0    0  0.27752182647E+01  0.71848762942E+01  0.42711817711E+02  0.47787266642E+02  0.19999979929E+02 0.  0.
        -12    1    3    3    0    0 -0.27752182647E+01 -0.71848762942E+01 -0.42711817711E+02  0.43400733358E+02  0.00000000000E+00 0.  1.
         11    1    4    4    0    0  0.33689731222E+01  0.90484123250E+00  0.15024993630E+01  0.37981866925E+01  0.51100000000E-03 0.  1.
        -11    1    4    4    0    0  0.29671403864E+01  0.79376589904E+01  0.13068679076E+02  0.15575645263E+02  0.51100000000E-03 0. -1.
        -12    1    4    4    0    0 -0.35608952439E+01 -0.16576239287E+01  0.28140639272E+02  0.28413434686E+02  0.00000000000E+00 0.  1.
</event>
<event>
 8    1  0.5542925E-011  0.9118800E+02  0.7816164E-02  0.1184000E+00
        -11   -1    0    0    0    0  0.00000000000E+00  0.00000000000E+00  0.45593999997E+02  0.45594000000E+02  0.51100000000E-03 0. -1.
         11   -1    0    0    0    0 -0.00000000000E+00 -0.00000000000E+00 -0.45593999997E+02  0.45594000000E+02  0.51100000000E-03 0.  1.
         23    2    1    2    0    0  0.35527136788E-14  0.00000000000E+00 -0.71054273576E-14  0.91188000000E+02  0.91188000000E+02 0.  0.
    9900012    2    3    3    0    0 -0.13037301827E+02 -0.11754655371E+02  0.39692314590E+02  0.47787274207E+02  0.20000014419E+02 0.  0.
        -12    1    3    3    0    0  0.13037301827E+02  0.11754655371E+02 -0.39692314590E+02  0.43400725793E+02  0.00000000000E+00 0.  1.
         11    1    4    4    0    0 -0.51573207526E+01 -0.91391320542E+01  0.24474816312E+02  0.26629651252E+02  0.51100000000E-03 0. -1.
        -11    1    4    4    0    0 -0.10264256975E+02 -0.19337934888E+01  0.15469018665E+02  0.18665076138E+02  0.51100000000E-03 0.  1.
         12    1    4    4    0    0  0.23842759008E+01 -0.68172982789E+00 -0.25152038656E+00  0.24925468169E+01  0.00000000000E+00 0. -1.
</event>
<event>
 8    1  0.5542925E-011  0.9118800E+02  0.7816164E-02  0.1184000E+00
        -11   -1    0    0    0    0  0.00000000000E+00  0.00000000000E+00  0.45593999997E+02  0.45594000000E+02  0.51100000000E-03 0.  1.
         11   -1    0    0    0    0 -0.00000000000E+00 -0.00000000000E+00 -0.45593999997E+02  0.45594000000E+02  0.51100000000E-03 0. -1.
         23    2    1    2    0    0  0.00000000000E+00  0.00000000000E+00  0.00000000000E+00  0.91188000000E+02  0.91188000000E+02 0.  0.
    9900012    2    3    3    0    0  0.21176579635E+02 -0.35584997223E+02  0.12995526463E+02  0.47787271199E+02  0.20000000706E+02 0.  0.
        -12    1    3    3    0    0 -0.21176579635E+02  0.35584997223E+02 -0.12995526463E+02  0.43400728801E+02  0.00000000000E+00 0.  1.
         11    1    4    4    0    0  0.54797908301E+01 -0.31790111079E+01  0.96883961733E+00  0.64088118736E+01  0.51100000000E-03 0.  1.
        -11    1    4    4    0    0  0.11964838337E+02 -0.13092239467E+02 -0.10345237066E+01  0.17766100592E+02  0.51100000000E-03 0. -1.
        -12    1    4    4    0    0  0.37319504679E+01 -0.19313746648E+02  0.13061210552E+02  0.23612358734E+02  0.00000000000E+00 0.  1.
</event>
<event>
 8    1  0.5542925E-011  0.9118800E+02  0.7816164E-02  0.1184000E+00
        -11   -1    0    0    0    0  0.00000000000E+00  0.00000000000E+00  0.45593999997E+02  0.45594000000E+02  0.51100000000E-03 0. -1.
         11   -1    0    0    0    0 -0.00000000000E+00 -0.00000000000E+00 -0.45593999997E+02  0.45594000000E+02  0.51100000000E-03 0.  1.
         23    2    1    2    0    0  0.00000000000E+00  0.00000000000E+00  0.00000000000E+00  0.91188000000E+02  0.91188000000E+02 0.  0.
    9900012    2    3    3    0    0 -0.24405372548E+02  0.74943348957E+01 -0.35097554446E+02  0.47787244329E+02  0.19999878193E+02 0.  0.
         12    1    3    3    0    0  0.24405372548E+02 -0.74943348957E+01  0.35097554446E+02  0.43400755671E+02  0.00000000000E+00 0. -1.
         11    1    4    4    0    0 -0.20830490801E+01 -0.20573590876E+01 -0.11741526479E+01  0.31544341152E+01  0.51100000000E-03 0. -1.
        -11    1    4    4    0    0  0.34122170363E-01 -0.20863444687E+01  0.32291789784E+00  0.21114624776E+01  0.51100000000E-03 0.  1.
        -12    1    4    4    0    0 -0.22356445638E+02  0.11638038452E+02 -0.34246319696E+02  0.42521347736E+02  0.00000000000E+00 0.  1.
</event>
<event>
 8    1  0.5542925E-011  0.9118800E+02  0.7816164E-02  0.1184000E+00
        -11   -1    0    0    0    0  0.00000000000E+00  0.00000000000E+00  0.45593999997E+02  0.45594000000E+02  0.51100000000E-03 0. -1.
         11   -1    0    0    0    0 -0.00000000000E+00 -0.00000000000E+00 -0.45593999997E+02  0.45594000000E+02  0.51100000000E-03 0.  1.
         23    2    1    2    0    0  0.00000000000E+00  0.00000000000E+00  0.00000000000E+00  0.91188000000E+02  0.91188000000E+02 0.  0.
    9900012    2    3    3    0    0 -0.19069507548E+02 -0.29460604916E+01 -0.38875414339E+02  0.47787271544E+02  0.20000002276E+02 0.  0.
         12    1    3    3    0    0  0.19069507548E+02  0.29460604916E+01  0.38875414339E+02  0.43400728456E+02  0.00000000000E+00 0. -1.
         11    1    4    4    0    0  0.11031934669E+01  0.14248873832E+01 -0.11324056153E+01  0.21283051047E+01  0.51100000000E-03 0. -1.
        -11    1    4    4    0    0 -0.53303666988E+01 -0.77708726016E+01 -0.85062477586E+01  0.12694704460E+02  0.51100000000E-03 0.  1.
         12    1    4    4    0    0 -0.14842334317E+02  0.33999247268E+01 -0.29236760965E+02  0.32964261979E+02  0.00000000000E+00 0. -1.
</event>
<event>
 8    1  0.5542925E-011  0.9118800E+02  0.7816164E-02  0.1184000E+00
        -11   -1    0    0    0    0  0.00000000000E+00  0.00000000000E+00  0.45593999997E+02  0.45594000000E+02  0.51100000000E-03 0.  1.
         11   -1    0    0    0    0 -0.00000000000E+00 -0.00000000000E+00 -0.45593999997E+02  0.45594000000E+02  0.51100000000E-03 0. -1.
         23    2    1    2    0    0 -0.88817841970E-15  0.00000000000E+00  0.71054273576E-14  0.91188000000E+02  0.91188000000E+02 0.  0.
    9900012    2    3    3    0    0  0.72944955514E+01 -0.29915575741E+02 -0.30585488401E+02  0.47787269154E+02  0.19999991381E+02 0.  0.
         12    1    3    3    0    0 -0.72944955514E+01  0.29915575741E+02  0.30585488401E+02  0.43400730846E+02  0.00000000000E+00 0. -1.
         11    1    4    4    0    0  0.82706712087E+00 -0.51389458650E+01 -0.18926454419E+00  0.52085147551E+01  0.51100000000E-03 0. -1.
        -11    1    4    4    0    0  0.51277139834E+01 -0.25411486782E+02 -0.21846436633E+02  0.33901385001E+02  0.51100000000E-03 0.  1.
         12    1    4    4    0    0  0.13397144471E+01  0.63485690686E+00 -0.85497872237E+01  0.86773693977E+01  0.00000000000E+00 0. -1.
</event>
<event>
 8    1  0.5542925E-011  0.9118800E+02  0.7816164E-02  0.1184000E+00
        -11   -1    0    0    0    0  0.00000000000E+00  0.00000000000E+00  0.45593999997E+02  0.45594000000E+02  0.51100000000E-03 0.  1.
         11   -1    0    0    0    0 -0.00000000000E+00 -0.00000000000E+00 -0.45593999997E+02  0.45594000000E+02  0.51100000000E-03 0. -1.
         23    2    1    2    0    0  0.00000000000E+00  0.00000000000E+00  0.00000000000E+00  0.91188000000E+02  0.91188000000E+02 0.  0.
    9900012    2    3    3    0    0 -0.10980319800E+02  0.41811846221E+02  0.38503795423E+01  0.47787270398E+02  0.19999997054E+02 0.  0.
        -12    1    3    3    0    0  0.10980319800E+02 -0.41811846221E+02 -0.38503795423E+01  0.43400729602E+02  0.00000000000E+00 0.  1.
         11    1    4    4    0    0 -0.87538375555E+01  0.17029017622E+02  0.18136042527E+01  0.19232947610E+02  0.51100000000E-03 0. -1.
        -11    1    4    4    0    0 -0.25298282181E+01  0.26546504037E+02  0.16145014378E+01  0.26715604476E+02  0.51100000000E-03 0.  1.
         12    1    4    4    0    0  0.30334597356E+00 -0.17636754370E+01  0.42227385168E+00  0.18387183124E+01  0.00000000000E+00 0. -1.
</event>
<event>
 8    1  0.5542925E-011  0.9118800E+02  0.7816164E-02  0.1184000E+00
        -11   -1    0    0    0    0  0.00000000000E+00  0.00000000000E+00  0.45593999997E+02  0.45594000000E+02  0.51100000000E-03 0. -1.
         11   -1    0    0    0    0 -0.00000000000E+00 -0.00000000000E+00 -0.45593999997E+02  0.45594000000E+02  0.51100000000E-03 0.  1.
         23    2    1    2    0    0 -0.88817841970E-15  0.00000000000E+00  0.00000000000E+00  0.91188000000E+02  0.91188000000E+02 0.  0.
    9900012    2    3    3    0    0 -0.57822078457E+01  0.23102346492E+02 -0.36283197470E+02  0.47787276968E+02  0.20000027010E+02 0.  0.
         12    1    3    3    0    0  0.57822078457E+01 -0.23102346492E+02  0.36283197470E+02  0.43400723032E+02  0.00000000000E+00 0. -1.
         11    1    4    4    0    0  0.16627169586E+01  0.75491237320E+00 -0.60088630600E+01  0.62802034927E+01  0.51100000000E-03 0. -1.
        -11    1    4    4    0    0  0.42247103226E+01  0.16587741708E+01 -0.36261589298E+01  0.58093663944E+01  0.51100000000E-03 0.  1.
        -12    1    4    4    0    0 -0.11669635127E+02  0.20688659948E+02 -0.26648175481E+02  0.35697707081E+02  0.00000000000E+00 0.  1.
</event>
<event>
 8    1  0.5542925E-011  0.9118800E+02  0.7816164E-02  0.1184000E+00
        -11   -1    0    0    0    0  0.00000000000E+00  0.00000000000E+00  0.45593999997E+02  0.45594000000E+02  0.51100000000E-03 0. -1.
         11   -1    0    0    0    0 -0.00000000000E+00 -0.00000000000E+00 -0.45593999997E+02  0.45594000000E+02  0.51100000000E-03 0.  1.
         23    2    1    2    0    0  0.00000000000E+00  0.00000000000E+00  0.00000000000E+00  0.91188000000E+02  0.91188000000E+02 0.  0.
    9900012    2    3    3    0    0  0.28653133813E+02  0.33273254677E+01 -0.32427643579E+02  0.47787248392E+02  0.19999896719E+02 0.  0.
         12    1    3    3    0    0 -0.28653133813E+02 -0.33273254677E+01  0.32427643579E+02  0.43400751608E+02  0.00000000000E+00 0. -1.
         11    1    4    4    0    0  0.34293431744E+01  0.21112473065E+01 -0.18488607737E+02  0.18922113415E+02  0.51100000000E-03 0. -1.
        -11    1    4    4    0    0  0.42379063328E+01 -0.13524249917E+00 -0.25962201498E+01  0.49717703031E+01  0.51100000000E-03 0.  1.
         12    1    4    4    0    0  0.20985884305E+02  0.13513206603E+01 -0.11342815693E+02  0.23893364674E+02  0.00000000000E+00 0. -1.
</event>
<event>
 8    1  0.5542925E-011  0.9118800E+02  0.7816164E-02  0.1184000E+00
        -11   -1    0    0    0    0  0.00000000000E+00  0.00000000000E+00  0.45593999997E+02  0.45594000000E+02  0.51100000000E-03 0. -1.
         11   -1    0    0    0    0 -0.00000000000E+00 -0.00000000000E+00 -0.45593999997E+02  0.45594000000E+02  0.51100000000E-03 0.  1.
         23    2    1    2    0    0  0.17763568394E-14  0.00000000000E+00  0.00000000000E+00  0.91188000000E+02  0.91188000000E+02 0.  0.
    9900012    2    3    3    0    0  0.15105775324E+02 -0.63206867615E+01  0.40193111111E+02  0.47787289060E+02  0.20000082141E+02 0.  0.
        -12    1    3    3    0    0 -0.15105775324E+02  0.63206867615E+01 -0.40193111111E+02  0.43400710940E+02  0.00000000000E+00 0.  1.
         11    1    4    4    0    0 -0.95308800866E+00  0.23250848416E-01  0.12182169887E+02  0.12219418185E+02  0.51100000000E-03 0. -1.
        -11    1    4    4    0    0 -0.10099176746E+01 -0.15161667339E+01 -0.58818724689E+00  0.19143301108E+01  0.51100000000E-03 0.  1.
        -12    1    4    4    0    0  0.17068781007E+02 -0.48277708760E+01  0.28599128471E+02  0.33653540765E+02  0.00000000000E+00 0.  1.
</event>
<event>
 8    1  0.5542925E-011  0.9118800E+02  0.7816164E-02  0.1184000E+00
        -11   -1    0    0    0    0  0.00000000000E+00  0.00000000000E+00  0.45593999997E+02  0.45594000000E+02  0.51100000000E-03 0.  1.
         11   -1    0    0    0    0 -0.00000000000E+00 -0.00000000000E+00 -0.45593999997E+02  0.45594000000E+02  0.51100000000E-03 0. -1.
         23    2    1    2    0    0  0.00000000000E+00 -0.17763568394E-14  0.00000000000E+00  0.91188000000E+02  0.91188000000E+02 0.  0.
    9900012    2    3    3    0    0  0.37032377614E+02 -0.10505359834E+02 -0.20046547776E+02  0.47787266657E+02  0.19999979994E+02 0.  0.
         12    1    3    3    0    0 -0.37032377614E+02  0.10505359834E+02  0.20046547776E+02  0.43400733343E+02  0.00000000000E+00 0. -1.
         11    1    4    4    0    0  0.20452826762E+02 -0.87862399233E+01 -0.16481597127E+02  0.27697638503E+02  0.51100000000E-03 0. -1.
        -11    1    4    4    0    0  0.54156104228E+01  0.22789516112E+01 -0.55311755134E+01  0.80694708326E+01  0.51100000000E-03 0.  1.
        -12    1    4    4    0    0  0.11163940430E+02 -0.39980715214E+01  0.19662248637E+01  0.12020157321E+02  0.00000000000E+00 0.  1.
</event>
<event>
 8    1  0.5542925E-011  0.9118800E+02  0.7816164E-02  0.1184000E+00
        -11   -1    0    0    0    0  0.00000000000E+00  0.00000000000E+00  0.45593999997E+02  0.45594000000E+02  0.51100000000E-03 0. -1.
         11   -1    0    0    0    0 -0.00000000000E+00 -0.00000000000E+00 -0.45593999997E+02  0.45594000000E+02  0.51100000000E-03 0.  1.
         23    2    1    2    0    0  0.00000000000E+00 -0.35527136788E-14  0.71054273576E-14  0.91188000000E+02  0.91188000000E+02 0.  0.
    9900012    2    3    3    0    0 -0.18727072688E+02 -0.19998746798E+02  0.33659622289E+02  0.47787270771E+02  0.19999998753E+02 0.  0.
        -12    1    3    3    0    0  0.18727072688E+02  0.19998746798E+02 -0.33659622289E+02  0.43400729229E+02  0.00000000000E+00 0.  1.
         11    1    4    4    0    0 -0.38582692122E+01 -0.26862315520E+01  0.75311825059E+01  0.88781074258E+01  0.51100000000E-03 0. -1.
        -11    1    4    4    0    0 -0.17649079951E+02 -0.14947697966E+02  0.15946995047E+02  0.28093243830E+02  0.51100000000E-03 0.  1.
         12    1    4    4    0    0  0.27802764750E+01 -0.23648172800E+01  0.10181444736E+02  0.10815919515E+02  0.00000000000E+00 0. -1.
</event>
<event>
 8    1  0.5542925E-011  0.9118800E+02  0.7816164E-02  0.1184000E+00
        -11   -1    0    0    0    0  0.00000000000E+00  0.00000000000E+00  0.45593999997E+02  0.45594000000E+02  0.51100000000E-03 0. -1.
         11   -1    0    0    0    0 -0.00000000000E+00 -0.00000000000E+00 -0.45593999997E+02  0.45594000000E+02  0.51100000000E-03 0.  1.
         23    2    1    2    0    0  0.35527136788E-14  0.00000000000E+00  0.00000000000E+00  0.91188000000E+02  0.91188000000E+02 0.  0.
    9900012    2    3    3    0    0 -0.28289540503E+02 -0.45582290040E+01 -0.32596739520E+02  0.47787274421E+02  0.20000015394E+02 0.  0.
         12    1    3    3    0    0  0.28289540503E+02  0.45582290040E+01  0.32596739520E+02  0.43400725579E+02  0.00000000000E+00 0. -1.
         11    1    4    4    0    0 -0.18267658714E+02 -0.99158238622E+00 -0.91199271474E+01  0.20441713773E+02  0.51100000000E-03 0. -1.
        -11    1    4    4    0    0 -0.92421126859E+01 -0.22076290791E+01 -0.10062109244E+02  0.13839664583E+02  0.51100000000E-03 0.  1.
        -12    1    4    4    0    0 -0.77976910223E+00 -0.13590175387E+01 -0.13414703128E+02  0.13505896065E+02  0.00000000000E+00 0.  1.
</event>
<event>
 8    1  0.5542925E-011  0.9118800E+02  0.7816164E-02  0.1184000E+00
        -11   -1    0    0    0    0  0.00000000000E+00  0.00000000000E+00  0.45593999997E+02  0.45594000000E+02  0.51100000000E-03 0. -1.
         11   -1    0    0    0    0 -0.00000000000E+00 -0.00000000000E+00 -0.45593999997E+02  0.45594000000E+02  0.51100000000E-03 0.  1.
         23    2    1    2    0    0  0.00000000000E+00  0.22204460493E-15  0.00000000000E+00  0.91188000000E+02  0.91188000000E+02 0.  0.
    9900012    2    3    3    0    0 -0.22416981447E+02  0.15306001928E+01 -0.37131651835E+02  0.47787270027E+02  0.19999995363E+02 0.  0.
         12    1    3    3    0    0  0.22416981447E+02 -0.15306001928E+01  0.37131651835E+02  0.43400729973E+02  0.00000000000E+00 0. -1.
         11    1    4    4    0    0 -0.13005811778E+01 -0.10335132279E+01  0.14170625239E+01  0.21835126402E+01  0.51100000000E-03 0. -1.
        -11    1    4    4    0    0 -0.55294577111E+01  0.60642114734E+01 -0.10523456287E+02  0.13345137537E+02  0.51100000000E-03 0.  1.
        -12    1    4    4    0    0 -0.15586942558E+02 -0.35000980527E+01 -0.28025258071E+02  0.32258619851E+02  0.00000000000E+00 0.  1.
</event>
<event>
 8    1  0.5542925E-011  0.9118800E+02  0.7816164E-02  0.1184000E+00
        -11   -1    0    0    0    0  0.00000000000E+00  0.00000000000E+00  0.45593999997E+02  0.45594000000E+02  0.51100000000E-03 0. -1.
         11   -1    0    0    0    0 -0.00000000000E+00 -0.00000000000E+00 -0.45593999997E+02  0.45594000000E+02  0.51100000000E-03 0.  1.
         23    2    1    2    0    0  0.00000000000E+00  0.00000000000E+00  0.00000000000E+00  0.91188000000E+02  0.91188000000E+02 0.  0.
    9900012    2    3    3    0    0 -0.30731307538E+02 -0.83737261288E+01 -0.29480365307E+02  0.47787257024E+02  0.19999936073E+02 0.  0.
         12    1    3    3    0    0  0.30731307538E+02  0.83737261288E+01  0.29480365307E+02  0.43400742976E+02  0.00000000000E+00 0. -1.
         11    1    4    4    0    0 -0.12529016208E-01  0.23009421249E-01  0.25169576670E+01  0.25170940722E+01  0.51100000000E-03 0. -1.
        -11    1    4    4    0    0 -0.81577598760E+01 -0.25034808161E+01 -0.65677827267E+01  0.10768111840E+02  0.51100000000E-03 0.  1.
         12    1    4    4    0    0 -0.22561018646E+02 -0.58932547340E+01 -0.25429540248E+02  0.34502051111E+02  0.00000000000E+00 0. -1.
</event>
<event>
 8    1  0.5542925E-011  0.9118800E+02  0.7816164E-02  0.1184000E+00
        -11   -1    0    0    0    0  0.00000000000E+00  0.00000000000E+00  0.45593999997E+02  0.45594000000E+02  0.51100000000E-03 0. -1.
         11   -1    0    0    0    0 -0.00000000000E+00 -0.00000000000E+00 -0.45593999997E+02  0.45594000000E+02  0.51100000000E-03 0.  1.
         23    2    1    2    0    0  0.35527136788E-14 -0.44408920985E-15 -0.71054273576E-14  0.91188000000E+02  0.91188000000E+02 0.  0.
    9900012    2    3    3    0    0  0.17320799479E+02 -0.37274804985E+01 -0.39619678617E+02  0.47787272596E+02  0.20000007075E+02 0.  0.
         12    1    3    3    0    0 -0.17320799479E+02  0.37274804985E+01  0.39619678617E+02  0.43400727404E+02  0.00000000000E+00 0. -1.
         11    1    4    4    0    0 -0.17034304012E+01 -0.16173969319E+01 -0.18909487806E+01  0.30155157965E+01  0.51100000000E-03 0. -1.
        -11    1    4    4    0    0  0.76421774011E+00 -0.54485505002E+01 -0.97501003062E+01  0.11195319895E+02  0.51100000000E-03 0.  1.
        -12    1    4    4    0    0  0.18260012140E+02  0.33384669337E+01 -0.27978629530E+02  0.33576436905E+02  0.00000000000E+00 0.  1.
</event>
<event>
 8    1  0.5542925E-011  0.9118800E+02  0.7816164E-02  0.1184000E+00
        -11   -1    0    0    0    0  0.00000000000E+00  0.00000000000E+00  0.45593999997E+02  0.45594000000E+02  0.51100000000E-03 0. -1.
         11   -1    0    0    0    0 -0.00000000000E+00 -0.00000000000E+00 -0.45593999997E+02  0.45594000000E+02  0.51100000000E-03 0.  1.
         23    2    1    2    0    0  0.00000000000E+00  0.00000000000E+00  0.71054273576E-14  0.91188000000E+02  0.91188000000E+02 0.  0.
    9900012    2    3    3    0    0 -0.57225542062E+01  0.45745591622E+01 -0.42777919591E+02  0.47787255505E+02  0.19999929149E+02 0.  0.
         12    1    3    3    0    0  0.57225542062E+01 -0.45745591622E+01  0.42777919591E+02  0.43400744495E+02  0.00000000000E+00 0. -1.
         11    1    4    4    0    0  0.30647859123E+00  0.60003760486E+01 -0.52213553513E+01  0.79599619231E+01  0.51100000000E-03 0. -1.
        -11    1    4    4    0    0 -0.78720991383E+01 -0.45896116536E+01 -0.21368515793E+02  0.23230323877E+02  0.51100000000E-03 0.  1.
         12    1    4    4    0    0  0.18430663409E+01  0.31637947672E+01 -0.16188048447E+02  0.16596969705E+02  0.00000000000E+00 0. -1.
</event>
<event>
 8    1  0.5542925E-011  0.9118800E+02  0.7816164E-02  0.1184000E+00
        -11   -1    0    0    0    0  0.00000000000E+00  0.00000000000E+00  0.45593999997E+02  0.45594000000E+02  0.51100000000E-03 0. -1.
         11   -1    0    0    0    0 -0.00000000000E+00 -0.00000000000E+00 -0.45593999997E+02  0.45594000000E+02  0.51100000000E-03 0.  1.
         23    2    1    2    0    0  0.00000000000E+00  0.00000000000E+00  0.00000000000E+00  0.91188000000E+02  0.91188000000E+02 0.  0.
    9900012    2    3    3    0    0  0.19472064731E+02 -0.38381378647E+02  0.55974642843E+01  0.47787272608E+02  0.20000007129E+02 0.  0.
         12    1    3    3    0    0 -0.19472064731E+02  0.38381378647E+02 -0.55974642843E+01  0.43400727392E+02  0.00000000000E+00 0. -1.
         11    1    4    4    0    0  0.16902161775E+01 -0.70919248253E+01 -0.31253159111E+01  0.79322019805E+01  0.51100000000E-03 0. -1.
        -11    1    4    4    0    0  0.14359502873E+02 -0.27110860252E+02  0.13408692025E+01  0.30708174756E+02  0.51100000000E-03 0.  1.
        -12    1    4    4    0    0  0.34223456808E+01 -0.41785935701E+01  0.73819109929E+01  0.91468958718E+01  0.00000000000E+00 0.  1.
</event>
<event>
 8    1  0.5542925E-011  0.9118800E+02  0.7816164E-02  0.1184000E+00
        -11   -1    0    0    0    0  0.00000000000E+00  0.00000000000E+00  0.45593999997E+02  0.45594000000E+02  0.51100000000E-03 0. -1.
         11   -1    0    0    0    0 -0.00000000000E+00 -0.00000000000E+00 -0.45593999997E+02  0.45594000000E+02  0.51100000000E-03 0.  1.
         23    2    1    2    0    0  0.00000000000E+00  0.00000000000E+00  0.00000000000E+00  0.91188000000E+02  0.91188000000E+02 0.  0.
    9900012    2    3    3    0    0  0.10436398418E+02 -0.19066028382E+02 -0.37565818941E+02  0.47787278774E+02  0.20000035243E+02 0.  0.
         12    1    3    3    0    0 -0.10436398418E+02  0.19066028382E+02  0.37565818941E+02  0.43400721226E+02  0.00000000000E+00 0. -1.
         11    1    4    4    0    0 -0.52701361845E+01 -0.31678991689E+01 -0.65972616390E+01  0.90185243772E+01  0.51100000000E-03 0. -1.
        -11    1    4    4    0    0  0.79399484186E+00 -0.42452297520E+01 -0.70602252848E+01  0.82764234298E+01  0.51100000000E-03 0.  1.
        -12    1    4    4    0    0  0.14912539761E+02 -0.11652899461E+02 -0.23908332017E+02  0.30492330967E+02  0.00000000000E+00 0.  1.
</event>
<event>
 8    1  0.5542925E-011  0.9118800E+02  0.7816164E-02  0.1184000E+00
        -11   -1    0    0    0    0  0.00000000000E+00  0.00000000000E+00  0.45593999997E+02  0.45594000000E+02  0.51100000000E-03 0. -1.
         11   -1    0    0    0    0 -0.00000000000E+00 -0.00000000000E+00 -0.45593999997E+02  0.45594000000E+02  0.51100000000E-03 0.  1.
         23    2    1    2    0    0  0.00000000000E+00  0.44408920985E-15  0.00000000000E+00  0.91188000000E+02  0.91188000000E+02 0.  0.
    9900012    2    3    3    0    0  0.13059679505E+02 -0.35812164302E+01  0.41234026152E+02  0.47787248248E+02  0.19999896064E+02 0.  0.
        -12    1    3    3    0    0 -0.13059679505E+02  0.35812164302E+01 -0.41234026152E+02  0.43400751752E+02  0.00000000000E+00 0.  1.
         11    1    4    4    0    0 -0.80532301941E-01 -0.40705919973E+01  0.16648505177E+02  0.17139105273E+02  0.51100000000E-03 0. -1.
        -11    1    4    4    0    0 -0.19513604060E+01 -0.21323677190E+01  0.28650317386E+01  0.40697919661E+01  0.51100000000E-03 0.  1.
        -12    1    4    4    0    0  0.15091572213E+02  0.26217432861E+01  0.21720489236E+02  0.26578351009E+02  0.00000000000E+00 0.  1.
</event>
<event>
 8    1  0.5542925E-011  0.9118800E+02  0.7816164E-02  0.1184000E+00
        -11   -1    0    0    0    0  0.00000000000E+00  0.00000000000E+00  0.45593999997E+02  0.45594000000E+02  0.51100000000E-03 0. -1.
         11   -1    0    0    0    0 -0.00000000000E+00 -0.00000000000E+00 -0.45593999997E+02  0.45594000000E+02  0.51100000000E-03 0.  1.
         23    2    1    2    0    0  0.00000000000E+00  0.00000000000E+00 -0.35527136788E-14  0.91188000000E+02  0.91188000000E+02 0.  0.
    9900012    2    3    3    0    0 -0.32051671080E+02  0.31638188718E+01 -0.29091297622E+02  0.47787274589E+02  0.20000016161E+02 0.  0.
         12    1    3    3    0    0  0.32051671080E+02 -0.31638188718E+01  0.29091297622E+02  0.43400725411E+02  0.00000000000E+00 0. -1.
         11    1    4    4    0    0 -0.49028984866E+01  0.33780864396E+01 -0.25134285099E+01  0.64627551941E+01  0.51100000000E-03 0. -1.
        -11    1    4    4    0    0 -0.12148080790E+02 -0.76882457657E+01 -0.86279951446E+01  0.16766850936E+02  0.51100000000E-03 0.  1.
        -12    1    4    4    0    0 -0.15000691803E+02  0.74739781979E+01 -0.17949873967E+02  0.24557668459E+02  0.00000000000E+00 0.  1.
</event>
<event>
 8    1  0.5542925E-011  0.9118800E+02  0.7816164E-02  0.1184000E+00
        -11   -1    0    0    0    0  0.00000000000E+00  0.00000000000E+00  0.45593999997E+02  0.45594000000E+02  0.51100000000E-03 0. -1.
         11   -1    0    0    0    0 -0.00000000000E+00 -0.00000000000E+00 -0.45593999997E+02  0.45594000000E+02  0.51100000000E-03 0.  1.
         23    2    1    2    0    0  0.00000000000E+00  0.00000000000E+00 -0.71054273576E-14  0.91188000000E+02  0.91188000000E+02 0.  0.
    9900012    2    3    3    0    0 -0.59058115025E+01  0.33439010658E+02 -0.27029192786E+02  0.47787270675E+02  0.19999998316E+02 0.  0.
         12    1    3    3    0    0  0.59058115025E+01 -0.33439010658E+02  0.27029192786E+02  0.43400729325E+02  0.00000000000E+00 0. -1.
         11    1    4    4    0    0 -0.25063486958E+01  0.14459499934E+02 -0.70211390483E+01  0.16268230264E+02  0.51100000000E-03 0. -1.
        -11    1    4    4    0    0  0.50881591302E+01  0.10705239338E+02 -0.13614722856E+02  0.18051376439E+02  0.51100000000E-03 0.  1.
         12    1    4    4    0    0 -0.84876219369E+01  0.82742713860E+01 -0.63933308812E+01  0.13467663972E+02  0.00000000000E+00 0. -1.
</event>
<event>
 8    1  0.5542925E-011  0.9118800E+02  0.7816164E-02  0.1184000E+00
        -11   -1    0    0    0    0  0.00000000000E+00  0.00000000000E+00  0.45593999997E+02  0.45594000000E+02  0.51100000000E-03 0. -1.
         11   -1    0    0    0    0 -0.00000000000E+00 -0.00000000000E+00 -0.45593999997E+02  0.45594000000E+02  0.51100000000E-03 0.  1.
         23    2    1    2    0    0  0.00000000000E+00  0.35527136788E-14  0.71054273576E-14  0.91188000000E+02  0.91188000000E+02 0.  0.
    9900012    2    3    3    0    0  0.10395174254E+02 -0.26608858854E+02 -0.32673110873E+02  0.47787271994E+02  0.20000004330E+02 0.  0.
         12    1    3    3    0    0 -0.10395174254E+02  0.26608858854E+02  0.32673110873E+02  0.43400728006E+02  0.00000000000E+00 0. -1.
         11    1    4    4    0    0  0.61417352399E+01 -0.15256578136E+02 -0.27215881393E+02  0.31799186914E+02  0.51100000000E-03 0. -1.
        -11    1    4    4    0    0  0.16846895758E+01  0.35598549203E+00  0.13637310374E+01  0.21965125178E+01  0.51100000000E-03 0.  1.
        -12    1    4    4    0    0  0.25687494384E+01 -0.11708266211E+02 -0.68209605179E+01  0.13791572562E+02  0.00000000000E+00 0.  1.
</event>
<event>
 8    1  0.5542925E-011  0.9118800E+02  0.7816164E-02  0.1184000E+00
        -11   -1    0    0    0    0  0.00000000000E+00  0.00000000000E+00  0.45593999997E+02  0.45594000000E+02  0.51100000000E-03 0.  1.
         11   -1    0    0    0    0 -0.00000000000E+00 -0.00000000000E+00 -0.45593999997E+02  0.45594000000E+02  0.51100000000E-03 0. -1.
         23    2    1    2    0    0  0.00000000000E+00  0.00000000000E+00  0.00000000000E+00  0.91188000000E+02  0.91188000000E+02 0.  0.
    9900012    2    3    3    0    0 -0.84821680534E+01 -0.36789059729E+02 -0.21406562216E+02  0.47787274239E+02  0.20000014566E+02 0.  0.
         12    1    3    3    0    0  0.84821680534E+01  0.36789059729E+02  0.21406562216E+02  0.43400725761E+02  0.00000000000E+00 0. -1.
         11    1    4    4    0    0 -0.50823681293E+00  0.12155090275E+01 -0.30086364692E+01  0.32844574162E+01  0.51100000000E-03 0. -1.
        -11    1    4    4    0    0 -0.60486489396E+01 -0.14619584471E+02 -0.12873381702E+02  0.20397116483E+02  0.51100000000E-03 0.  1.
         12    1    4    4    0    0 -0.19252823009E+01 -0.23384984286E+02 -0.55245440445E+01  0.24105700340E+02  0.00000000000E+00 0. -1.
</event>
<event>
 8    1  0.5542925E-011  0.9118800E+02  0.7816164E-02  0.1184000E+00
        -11   -1    0    0    0    0  0.00000000000E+00  0.00000000000E+00  0.45593999997E+02  0.45594000000E+02  0.51100000000E-03 0. -1.
         11   -1    0    0    0    0 -0.00000000000E+00 -0.00000000000E+00 -0.45593999997E+02  0.45594000000E+02  0.51100000000E-03 0.  1.
         23    2    1    2    0    0  0.00000000000E+00  0.71054273576E-14  0.00000000000E+00  0.91188000000E+02  0.91188000000E+02 0.  0.
    9900012    2    3    3    0    0  0.95611069071E+01  0.42325651812E+02 -0.86471283571E+00  0.47787270802E+02  0.19999998894E+02 0.  0.
        -12    1    3    3    0    0 -0.95611069071E+01 -0.42325651812E+02  0.86471283571E+00  0.43400729198E+02  0.00000000000E+00 0.  1.
         11    1    4    4    0    0  0.36198987497E+01  0.11649734253E+02  0.51410850518E+01  0.13238229900E+02  0.51100000000E-03 0. -1.
        -11    1    4    4    0    0  0.37221675924E+01  0.27617728987E+02 -0.50059604992E+00  0.27871922837E+02  0.51100000000E-03 0.  1.
        -12    1    4    4    0    0  0.22190405651E+01  0.30581885728E+01 -0.55052018376E+01  0.66771180646E+01  0.00000000000E+00 0.  1.
</event>
<event>
 8    1  0.5542925E-011  0.9118800E+02  0.7816164E-02  0.1184000E+00
        -11   -1    0    0    0    0  0.00000000000E+00  0.00000000000E+00  0.45593999997E+02  0.45594000000E+02  0.51100000000E-03 0. -1.
         11   -1    0    0    0    0 -0.00000000000E+00 -0.00000000000E+00 -0.45593999997E+02  0.45594000000E+02  0.51100000000E-03 0.  1.
         23    2    1    2    0    0  0.00000000000E+00  0.17763568394E-14  0.00000000000E+00  0.91188000000E+02  0.91188000000E+02 0.  0.
    9900012    2    3    3    0    0 -0.13775442065E+02  0.87071654514E+01  0.40224943441E+02  0.47787267182E+02  0.19999982390E+02 0.  0.
        -12    1    3    3    0    0  0.13775442065E+02 -0.87071654514E+01 -0.40224943441E+02  0.43400732818E+02  0.00000000000E+00 0.  1.
         11    1    4    4    0    0 -0.55628759363E+01  0.75728101294E+01  0.15510273403E+02  0.18134542267E+02  0.51100000000E-03 0. -1.
        -11    1    4    4    0    0 -0.57587799209E+00  0.24605593678E+01 -0.10581175029E+01  0.27396351537E+01  0.51100000000E-03 0.  1.
        -12    1    4    4    0    0 -0.76366881362E+01 -0.13262040459E+01  0.25772787541E+02  0.26913089761E+02  0.00000000000E+00 0.  1.
</event>
<event>
 8    1  0.5542925E-011  0.9118800E+02  0.7816164E-02  0.1184000E+00
        -11   -1    0    0    0    0  0.00000000000E+00  0.00000000000E+00  0.45593999997E+02  0.45594000000E+02  0.51100000000E-03 0. -1.
         11   -1    0    0    0    0 -0.00000000000E+00 -0.00000000000E+00 -0.45593999997E+02  0.45594000000E+02  0.51100000000E-03 0.  1.
         23    2    1    2    0    0  0.53429483060E-15  0.71054273576E-14  0.00000000000E+00  0.91188000000E+02  0.91188000000E+02 0.  0.
    9900012    2    3    3    0    0 -0.26301517609E-01  0.41902149828E+02  0.11306298059E+02  0.47787271575E+02  0.20000002421E+02 0.  0.
        -12    1    3    3    0    0  0.26301517609E-01 -0.41902149828E+02 -0.11306298059E+02  0.43400728425E+02  0.00000000000E+00 0.  1.
         11    1    4    4    0    0 -0.63104361792E+01  0.17706549117E+02  0.18323287000E+01  0.18886527345E+02  0.51100000000E-03 0. -1.
        -11    1    4    4    0    0 -0.80829152487E+00  0.25067818609E+01 -0.20493284946E+01  0.33372201047E+01  0.51100000000E-03 0.  1.
        -12    1    4    4    0    0  0.70924261864E+01  0.21688818850E+02  0.11523297854E+02  0.25563524126E+02  0.00000000000E+00 0.  1.
</event>
<event>
 8    1  0.5542925E-011  0.9118800E+02  0.7816164E-02  0.1184000E+00
        -11   -1    0    0    0    0  0.00000000000E+00  0.00000000000E+00  0.45593999997E+02  0.45594000000E+02  0.51100000000E-03 0. -1.
         11   -1    0    0    0    0 -0.00000000000E+00 -0.00000000000E+00 -0.45593999997E+02  0.45594000000E+02  0.51100000000E-03 0.  1.
         23    2    1    2    0    0  0.00000000000E+00  0.00000000000E+00  0.00000000000E+00  0.91188000000E+02  0.91188000000E+02 0.  0.
    9900012    2    3    3    0    0  0.52329930151E+01  0.21346087473E+02 -0.37424372071E+02  0.47787270845E+02  0.19999999090E+02 0.  0.
         12    1    3    3    0    0 -0.52329930151E+01 -0.21346087473E+02  0.37424372071E+02  0.43400729155E+02  0.00000000000E+00 0. -1.
         11    1    4    4    0    0  0.10439296575E+02  0.69358050390E+01 -0.12683693457E+02  0.17831443702E+02  0.51100000000E-03 0. -1.
        -11    1    4    4    0    0 -0.15332072177E+00  0.17496375097E+01 -0.88351258677E+01  0.90080068838E+01  0.51100000000E-03 0.  1.
         12    1    4    4    0    0 -0.50529828382E+01  0.12660644924E+02 -0.15905552746E+02  0.20947820259E+02  0.00000000000E+00 0. -1.
</event>
<event>
 8    1  0.5542925E-011  0.9118800E+02  0.7816164E-02  0.1184000E+00
        -11   -1    0    0    0    0  0.00000000000E+00  0.00000000000E+00  0.45593999997E+02  0.45594000000E+02  0.51100000000E-03 0.  1.
         11   -1    0    0    0    0 -0.00000000000E+00 -0.00000000000E+00 -0.45593999997E+02  0.45594000000E+02  0.51100000000E-03 0. -1.
         23    2    1    2    0    0 -0.88817841970E-15  0.00000000000E+00  0.00000000000E+00  0.91188000000E+02  0.91188000000E+02 0.  0.
    9900012    2    3    3    0    0  0.45460713169E+01  0.36089972782E+02  0.23674260261E+02  0.47787268453E+02  0.19999988186E+02 0.  0.
        -12    1    3    3    0    0 -0.45460713169E+01 -0.36089972782E+02 -0.23674260261E+02  0.43400731547E+02  0.00000000000E+00 0.  1.
         11    1    4    4    0    0  0.30985928993E+01  0.34729955546E+02  0.16880331514E+02  0.38739084688E+02  0.51100000000E-03 0. -1.
        -11    1    4    4    0    0 -0.13779831558E+01  0.24873814893E+01  0.40690083054E+01  0.49641447503E+01  0.51100000000E-03 0.  1.
         12    1    4    4    0    0  0.28254615734E+01 -0.11273642527E+01  0.27249204424E+01  0.40840390153E+01  0.00000000000E+00 0. -1.
</event>
<event>
 8    1  0.5542925E-011  0.9118800E+02  0.7816164E-02  0.1184000E+00
        -11   -1    0    0    0    0  0.00000000000E+00  0.00000000000E+00  0.45593999997E+02  0.45594000000E+02  0.51100000000E-03 0. -1.
         11   -1    0    0    0    0 -0.00000000000E+00 -0.00000000000E+00 -0.45593999997E+02  0.45594000000E+02  0.51100000000E-03 0.  1.
         23    2    1    2    0    0  0.00000000000E+00  0.00000000000E+00  0.71054273576E-14  0.91188000000E+02  0.91188000000E+02 0.  0.
    9900012    2    3    3    0    0  0.40238383006E+01 -0.77775804052E+01  0.42508129120E+02  0.47787273359E+02  0.20000010555E+02 0.  0.
        -12    1    3    3    0    0 -0.40238383006E+01  0.77775804052E+01 -0.42508129120E+02  0.43400726641E+02  0.00000000000E+00 0.  1.
         11    1    4    4    0    0 -0.14228331398E+01 -0.60287972964E+01  0.26384917839E+02  0.27102301390E+02  0.51100000000E-03 0. -1.
        -11    1    4    4    0    0 -0.32105331825E+01  0.13125256872E+01  0.65996203189E+01  0.74555506577E+01  0.51100000000E-03 0.  1.
        -12    1    4    4    0    0  0.86572046229E+01 -0.30613087960E+01  0.95235909621E+01  0.13229421312E+02  0.00000000000E+00 0.  1.
</event>
<event>
 8    1  0.5542925E-011  0.9118800E+02  0.7816164E-02  0.1184000E+00
        -11   -1    0    0    0    0  0.00000000000E+00  0.00000000000E+00  0.45593999997E+02  0.45594000000E+02  0.51100000000E-03 0. -1.
         11   -1    0    0    0    0 -0.00000000000E+00 -0.00000000000E+00 -0.45593999997E+02  0.45594000000E+02  0.51100000000E-03 0.  1.
         23    2    1    2    0    0  0.00000000000E+00  0.00000000000E+00  0.35527136788E-14  0.91188000000E+02  0.91188000000E+02 0.  0.
    9900012    2    3    3    0    0  0.15066772591E+02 -0.28039391225E+02 -0.29502677191E+02  0.47787273531E+02  0.20000011338E+02 0.  0.
         12    1    3    3    0    0 -0.15066772591E+02  0.28039391225E+02  0.29502677191E+02  0.43400726469E+02  0.00000000000E+00 0. -1.
         11    1    4    4    0    0  0.53899922910E+01 -0.39037351965E+01  0.43234233779E+00  0.66691892715E+01  0.51100000000E-03 0. -1.
        -11    1    4    4    0    0  0.75269766356E+01 -0.12040681742E+02 -0.88992005373E+01  0.16757958245E+02  0.51100000000E-03 0.  1.
        -12    1    4    4    0    0  0.21498036642E+01 -0.12094974287E+02 -0.21035818992E+02  0.24360126015E+02  0.00000000000E+00 0.  1.
</event>
<event>
 8    1  0.5542925E-011  0.9118800E+02  0.7816164E-02  0.1184000E+00
        -11   -1    0    0    0    0  0.00000000000E+00  0.00000000000E+00  0.45593999997E+02  0.45594000000E+02  0.51100000000E-03 0. -1.
         11   -1    0    0    0    0 -0.00000000000E+00 -0.00000000000E+00 -0.45593999997E+02  0.45594000000E+02  0.51100000000E-03 0.  1.
         23    2    1    2    0    0  0.00000000000E+00  0.00000000000E+00 -0.35527136788E-14  0.91188000000E+02  0.91188000000E+02 0.  0.
    9900012    2    3    3    0    0 -0.23984062867E+02 -0.18326392263E+02  0.31185432090E+02  0.47787273051E+02  0.20000009150E+02 0.  0.
        -12    1    3    3    0    0  0.23984062867E+02  0.18326392263E+02 -0.31185432090E+02  0.43400726949E+02  0.00000000000E+00 0.  1.
         11    1    4    4    0    0 -0.85049608631E+01 -0.55103666283E+00  0.10386552179E+02  0.13435716100E+02  0.51100000000E-03 0. -1.
        -11    1    4    4    0    0 -0.54891023145E+01 -0.10259260952E+01 -0.33503557980E+00  0.55941949977E+01  0.51100000000E-03 0.  1.
        -12    1    4    4    0    0 -0.99899996897E+01 -0.16749429505E+02  0.21133915491E+02  0.28757361954E+02  0.00000000000E+00 0.  1.
</event>
<event>
 8    1  0.5542925E-011  0.9118800E+02  0.7816164E-02  0.1184000E+00
        -11   -1    0    0    0    0  0.00000000000E+00  0.00000000000E+00  0.45593999997E+02  0.45594000000E+02  0.51100000000E-03 0.  1.
         11   -1    0    0    0    0 -0.00000000000E+00 -0.00000000000E+00 -0.45593999997E+02  0.45594000000E+02  0.51100000000E-03 0. -1.
         23    2    1    2    0    0  0.00000000000E+00  0.35527136788E-14  0.00000000000E+00  0.91188000000E+02  0.91188000000E+02 0.  0.
    9900012    2    3    3    0    0 -0.33171703940E+02 -0.17952490264E+02  0.21470200696E+02  0.47787269973E+02  0.19999995114E+02 0.  0.
         12    1    3    3    0    0  0.33171703940E+02  0.17952490264E+02 -0.21470200696E+02  0.43400730027E+02  0.00000000000E+00 0. -1.
         11    1    4    4    0    0 -0.95370621105E+01 -0.79173343704E+01  0.15380571725E+02  0.19753524346E+02  0.51100000000E-03 0.  1.
        -11    1    4    4    0    0  0.57705355176E+00  0.62954248575E+00 -0.10884799070E+00  0.86090806081E+00  0.51100000000E-03 0. -1.
        -12    1    4    4    0    0 -0.24211695381E+02 -0.10664698380E+02  0.61984769623E+01  0.27172837566E+02  0.00000000000E+00 0.  1.
</event>
<event>
 8    1  0.5542925E-011  0.9118800E+02  0.7816164E-02  0.1184000E+00
        -11   -1    0    0    0    0  0.00000000000E+00  0.00000000000E+00  0.45593999997E+02  0.45594000000E+02  0.51100000000E-03 0. -1.
         11   -1    0    0    0    0 -0.00000000000E+00 -0.00000000000E+00 -0.45593999997E+02  0.45594000000E+02  0.51100000000E-03 0.  1.
         23    2    1    2    0    0  0.88817841970E-15 -0.71054273576E-14 -0.35527136788E-14  0.91188000000E+02  0.91188000000E+02 0.  0.
    9900012    2    3    3    0    0 -0.77577342926E+01 -0.36086244970E+02 -0.22830331617E+02  0.47787267758E+02  0.19999985015E+02 0.  0.
         12    1    3    3    0    0  0.77577342926E+01  0.36086244970E+02  0.22830331617E+02  0.43400732242E+02  0.00000000000E+00 0. -1.
         11    1    4    4    0    0 -0.39073878023E+00 -0.16042069075E+02 -0.32265608417E+01  0.16367997804E+02  0.51100000000E-03 0. -1.
        -11    1    4    4    0    0 -0.66798595511E+01 -0.19943423318E+02 -0.12886560468E+02  0.24666254240E+02  0.51100000000E-03 0.  1.
        -12    1    4    4    0    0 -0.68713596119E+00 -0.10075257721E+00 -0.67172103078E+01  0.67530157138E+01  0.00000000000E+00 0.  1.
</event>
<event>
 8    1  0.5542925E-011  0.9118800E+02  0.7816164E-02  0.1184000E+00
        -11   -1    0    0    0    0  0.00000000000E+00  0.00000000000E+00  0.45593999997E+02  0.45594000000E+02  0.51100000000E-03 0. -1.
         11   -1    0    0    0    0 -0.00000000000E+00 -0.00000000000E+00 -0.45593999997E+02  0.45594000000E+02  0.51100000000E-03 0.  1.
         23    2    1    2    0    0 -0.17763568394E-14  0.00000000000E+00 -0.35527136788E-14  0.91188000000E+02  0.91188000000E+02 0.  0.
    9900012    2    3    3    0    0  0.56261326573E+01  0.36488096355E+02 -0.22816413750E+02  0.47787270966E+02  0.19999999643E+02 0.  0.
         12    1    3    3    0    0 -0.56261326573E+01 -0.36488096355E+02  0.22816413750E+02  0.43400729034E+02  0.00000000000E+00 0. -1.
         11    1    4    4    0    0  0.11275929359E+02  0.21338483750E+02 -0.14870320962E+02  0.28347908520E+02  0.51100000000E-03 0. -1.
        -11    1    4    4    0    0 -0.96931375483E+00 -0.54015860003E-01 -0.24060108680E+01  0.25944894347E+01  0.51100000000E-03 0.  1.
         12    1    4    4    0    0 -0.46804829468E+01  0.15203628465E+02 -0.55400819197E+01  0.16844873012E+02  0.00000000000E+00 0. -1.
</event>
<event>
 8    1  0.7138924E-011  0.9118800E+02  0.7816164E-02  0.1184000E+00
        -11   -1    0    0    0    0  0.00000000000E+00  0.00000000000E+00  0.45593999997E+02  0.45594000000E+02  0.51100000000E-03 0. -1.
         11   -1    0    0    0    0 -0.00000000000E+00 -0.00000000000E+00 -0.45593999997E+02  0.45594000000E+02  0.51100000000E-03 0.  1.
         23    2    1    2    0    0  0.00000000000E+00  0.44408920985E-15 -0.35527136788E-14  0.91188000000E+02  0.91188000000E+02 0.  0.
    9900012    2    3    3    0    0 -0.34309850925E+02 -0.14426323534E+01  0.26540088232E+02  0.47787270260E+02  0.19999996423E+02 0.  0.
        -12    1    3    3    0    0  0.34309850925E+02  0.14426323534E+01 -0.26540088232E+02  0.43400729740E+02  0.00000000000E+00 0.  1.
         11    1    4    4    0    0 -0.14094701393E+02  0.20945226254E+01  0.31189006958E+01  0.14586815080E+02  0.51100000000E-03 0. -1.
        -11    1    4    4    0    0 -0.98715769716E+00 -0.30031029723E+01  0.37759496988E+00  0.31836592160E+01  0.51100000000E-03 0.  1.
         12    1    4    4    0    0 -0.19227991835E+02 -0.53405200652E+00  0.23043592566E+02  0.30016795964E+02  0.00000000000E+00 0. -1.
</event>
<event>
 8    1  0.5542925E-011  0.9118800E+02  0.7816164E-02  0.1184000E+00
        -11   -1    0    0    0    0  0.00000000000E+00  0.00000000000E+00  0.45593999997E+02  0.45594000000E+02  0.51100000000E-03 0. -1.
         11   -1    0    0    0    0 -0.00000000000E+00 -0.00000000000E+00 -0.45593999997E+02  0.45594000000E+02  0.51100000000E-03 0.  1.
         23    2    1    2    0    0  0.62450045135E-16  0.00000000000E+00  0.00000000000E+00  0.91188000000E+02  0.91188000000E+02 0.  0.
    9900012    2    3    3    0    0 -0.43848419228E-01  0.11788015624E+02 -0.41769169810E+02  0.47787276715E+02  0.20000025855E+02 0.  0.
         12    1    3    3    0    0  0.43848419228E-01 -0.11788015624E+02  0.41769169810E+02  0.43400723285E+02  0.00000000000E+00 0. -1.
         11    1    4    4    0    0  0.81183616985E-01  0.62272912266E+01 -0.30314662325E+02  0.30947770501E+02  0.51100000000E-03 0. -1.
        -11    1    4    4    0    0 -0.73270192269E+00 -0.18246310028E+01 -0.87228940277E+01  0.89417565883E+01  0.51100000000E-03 0.  1.
         12    1    4    4    0    0  0.60766988647E+00  0.73853554004E+01 -0.27316134566E+01  0.78977496262E+01  0.00000000000E+00 0. -1.
</event>
<event>
 8    1  0.5542925E-011  0.9118800E+02  0.7816164E-02  0.1184000E+00
        -11   -1    0    0    0    0  0.00000000000E+00  0.00000000000E+00  0.45593999997E+02  0.45594000000E+02  0.51100000000E-03 0. -1.
         11   -1    0    0    0    0 -0.00000000000E+00 -0.00000000000E+00 -0.45593999997E+02  0.45594000000E+02  0.51100000000E-03 0.  1.
         23    2    1    2    0    0  0.00000000000E+00  0.88817841970E-15  0.00000000000E+00  0.91188000000E+02  0.91188000000E+02 0.  0.
    9900012    2    3    3    0    0 -0.18997157050E+01 -0.56342768961E+01 -0.42991501463E+02  0.47787271966E+02  0.20000004201E+02 0.  0.
         12    1    3    3    0    0  0.18997157050E+01  0.56342768961E+01  0.42991501463E+02  0.43400728034E+02  0.00000000000E+00 0. -1.
         11    1    4    4    0    0 -0.19574417516E+01  0.51219576172E+00  0.30300227575E+00  0.20459064860E+01  0.51100000000E-03 0.  1.
        -11    1    4    4    0    0  0.19884618951E+01  0.36400382132E+01 -0.73626101470E+01  0.84505554457E+01  0.51100000000E-03 0. -1.
        -12    1    4    4    0    0 -0.19307358484E+01 -0.97865108710E+01 -0.35931893591E+02  0.37290810034E+02  0.00000000000E+00 0.  1.
</event>
<event>
 8    1  0.5542925E-011  0.9118800E+02  0.7816164E-02  0.1184000E+00
        -11   -1    0    0    0    0  0.00000000000E+00  0.00000000000E+00  0.45593999997E+02  0.45594000000E+02  0.51100000000E-03 0. -1.
         11   -1    0    0    0    0 -0.00000000000E+00 -0.00000000000E+00 -0.45593999997E+02  0.45594000000E+02  0.51100000000E-03 0.  1.
         23    2    1    2    0    0  0.88817841970E-15  0.00000000000E+00  0.00000000000E+00  0.91188000000E+02  0.91188000000E+02 0.  0.
    9900012    2    3    3    0    0  0.51291174927E+01 -0.35753324748E+02 -0.24062618165E+02  0.47787335607E+02  0.20000294364E+02 0.  0.
         12    1    3    3    0    0 -0.51291174927E+01  0.35753324748E+02  0.24062618165E+02  0.43400664393E+02  0.00000000000E+00 0. -1.
         11    1    4    4    0    0  0.40255767858E+01 -0.10377687893E+01 -0.37172969361E+01  0.55767848525E+01  0.51100000000E-03 0. -1.
        -11    1    4    4    0    0  0.54908678221E+01 -0.18945553788E+02 -0.15655919781E+02  0.25183158305E+02  0.51100000000E-03 0.  1.
        -12    1    4    4    0    0 -0.43873271153E+01 -0.15770002170E+02 -0.46894014482E+01  0.17027392449E+02  0.00000000000E+00 0.  1.
</event>
<event>
 8    1  0.5542925E-011  0.9118800E+02  0.7816164E-02  0.1184000E+00
        -11   -1    0    0    0    0  0.00000000000E+00  0.00000000000E+00  0.45593999997E+02  0.45594000000E+02  0.51100000000E-03 0.  1.
         11   -1    0    0    0    0 -0.00000000000E+00 -0.00000000000E+00 -0.45593999997E+02  0.45594000000E+02  0.51100000000E-03 0. -1.
         23    2    1    2    0    0  0.00000000000E+00 -0.17763568394E-14  0.00000000000E+00  0.91188000000E+02  0.91188000000E+02 0.  0.
    9900012    2    3    3    0    0 -0.39412894956E+02 -0.15135158595E+02  0.10058513910E+02  0.47787274008E+02  0.20000013514E+02 0.  0.
         12    1    3    3    0    0  0.39412894956E+02  0.15135158595E+02 -0.10058513910E+02  0.43400725992E+02  0.00000000000E+00 0. -1.
         11    1    4    4    0    0 -0.30186757545E+01 -0.21373086302E+01 -0.26589323778E+01  0.45552621376E+01  0.51100000000E-03 0. -1.
        -11    1    4    4    0    0 -0.21217702622E+02 -0.14588987761E+02  0.54041371367E+01  0.26310343344E+02  0.51100000000E-03 0.  1.
        -12    1    4    4    0    0 -0.15176516580E+02  0.15911377962E+01  0.73133091513E+01  0.16921668527E+02  0.00000000000E+00 0.  1.
</event>
<event>
 8    1  0.5542925E-011  0.9118800E+02  0.7816164E-02  0.1184000E+00
        -11   -1    0    0    0    0  0.00000000000E+00  0.00000000000E+00  0.45593999997E+02  0.45594000000E+02  0.51100000000E-03 0.  1.
         11   -1    0    0    0    0 -0.00000000000E+00 -0.00000000000E+00 -0.45593999997E+02  0.45594000000E+02  0.51100000000E-03 0. -1.
         23    2    1    2    0    0 -0.88817841970E-15  0.00000000000E+00  0.00000000000E+00  0.91188000000E+02  0.91188000000E+02 0.  0.
    9900012    2    3    3    0    0 -0.60186163020E+01  0.31550092071E+02  0.29188916043E+02  0.47787252637E+02  0.19999916075E+02 0.  0.
        -12    1    3    3    0    0  0.60186163020E+01 -0.31550092071E+02 -0.29188916043E+02  0.43400747363E+02  0.00000000000E+00 0.  1.
         11    1    4    4    0    0  0.31841920872E+01  0.16114669654E+02  0.23626761346E+02  0.28775779907E+02  0.51100000000E-03 0. -1.
        -11    1    4    4    0    0 -0.94895761056E+00  0.44620906574E+00  0.12024900038E+00  0.10555013786E+01  0.51100000000E-03 0.  1.
         12    1    4    4    0    0 -0.82538507786E+01  0.14989213351E+02  0.54419056962E+01  0.17955971351E+02  0.00000000000E+00 0. -1.
</event>
<event>
 8    1  0.5931549E-011  0.9118800E+02  0.7816164E-02  0.1184000E+00
        -11   -1    0    0    0    0  0.00000000000E+00  0.00000000000E+00  0.45593999997E+02  0.45594000000E+02  0.51100000000E-03 0. -1.
         11   -1    0    0    0    0 -0.00000000000E+00 -0.00000000000E+00 -0.45593999997E+02  0.45594000000E+02  0.51100000000E-03 0.  1.
         23    2    1    2    0    0  0.44408920985E-15 -0.15543122345E-14  0.00000000000E+00  0.91188000000E+02  0.91188000000E+02 0.  0.
    9900012    2    3    3    0    0 -0.23530690508E+01 -0.19801385684E+01  0.43291632216E+02  0.47787270713E+02  0.19999998488E+02 0.  0.
        -12    1    3    3    0    0  0.23530690508E+01  0.19801385684E+01 -0.43291632216E+02  0.43400729287E+02  0.00000000000E+00 0.  1.
         11    1    4    4    0    0 -0.99520417072E+00  0.10268101554E+01 -0.68248572994E-01  0.14315825389E+01  0.51100000000E-03 0. -1.
        -11    1    4    4    0    0  0.23661086441E+01  0.60844726522E+01  0.15720953949E+02  0.17022563582E+02  0.51100000000E-03 0.  1.
         12    1    4    4    0    0 -0.37239735241E+01 -0.90914213760E+01  0.27638926841E+02  0.29333124592E+02  0.00000000000E+00 0. -1.
</event>
<event>
 8    1  0.5542925E-011  0.9118800E+02  0.7816164E-02  0.1184000E+00
        -11   -1    0    0    0    0  0.00000000000E+00  0.00000000000E+00  0.45593999997E+02  0.45594000000E+02  0.51100000000E-03 0. -1.
         11   -1    0    0    0    0 -0.00000000000E+00 -0.00000000000E+00 -0.45593999997E+02  0.45594000000E+02  0.51100000000E-03 0.  1.
         23    2    1    2    0    0  0.00000000000E+00 -0.35527136788E-14 -0.44408920985E-15  0.91188000000E+02  0.91188000000E+02 0.  0.
    9900012    2    3    3    0    0 -0.32870163452E+02 -0.28208531989E+02 -0.27302528056E+01  0.47787271864E+02  0.20000003737E+02 0.  0.
        -12    1    3    3    0    0  0.32870163452E+02  0.28208531989E+02  0.27302528056E+01  0.43400728136E+02  0.00000000000E+00 0.  1.
         11    1    4    4    0    0  0.19894643023E+00 -0.52016982998E+01  0.22903560105E+01  0.56870885170E+01  0.51100000000E-03 0. -1.
        -11    1    4    4    0    0 -0.65575874053E+01 -0.12683210805E+01  0.22601709311E+01  0.70511675515E+01  0.51100000000E-03 0.  1.
         12    1    4    4    0    0 -0.26511522477E+02 -0.21738512609E+02 -0.72807797472E+01  0.35049015795E+02  0.00000000000E+00 0. -1.
</event>
<event>
 8    1  0.5542925E-011  0.9118800E+02  0.7816164E-02  0.1184000E+00
        -11   -1    0    0    0    0  0.00000000000E+00  0.00000000000E+00  0.45593999997E+02  0.45594000000E+02  0.51100000000E-03 0. -1.
         11   -1    0    0    0    0 -0.00000000000E+00 -0.00000000000E+00 -0.45593999997E+02  0.45594000000E+02  0.51100000000E-03 0.  1.
         23    2    1    2    0    0  0.17763568394E-14 -0.17763568394E-14 -0.71054273576E-14  0.91188000000E+02  0.91188000000E+02 0.  0.
    9900012    2    3    3    0    0 -0.13552684050E+02 -0.11612782259E+02  0.39561239111E+02  0.47787267325E+02  0.19999983041E+02 0.  0.
        -12    1    3    3    0    0  0.13552684050E+02  0.11612782259E+02 -0.39561239111E+02  0.43400732675E+02  0.00000000000E+00 0.  1.
         11    1    4    4    0    0 -0.13576621831E+02 -0.11998593706E+02  0.25156187206E+02  0.31002010681E+02  0.51100000000E-03 0.  1.
        -11    1    4    4    0    0 -0.32648005791E+01  0.74570981013E-01  0.12609228664E+02  0.13025249764E+02  0.51100000000E-03 0. -1.
        -12    1    4    4    0    0  0.32887383596E+01  0.31124046526E+00  0.17958232401E+01  0.37600068796E+01  0.00000000000E+00 0.  1.
</event>
<event>
 8    1  0.5542925E-011  0.9118800E+02  0.7816164E-02  0.1184000E+00
        -11   -1    0    0    0    0  0.00000000000E+00  0.00000000000E+00  0.45593999997E+02  0.45594000000E+02  0.51100000000E-03 0.  1.
         11   -1    0    0    0    0 -0.00000000000E+00 -0.00000000000E+00 -0.45593999997E+02  0.45594000000E+02  0.51100000000E-03 0. -1.
         23    2    1    2    0    0  0.00000000000E+00  0.00000000000E+00 -0.17763568394E-14  0.91188000000E+02  0.91188000000E+02 0.  0.
    9900012    2    3    3    0    0  0.19538495018E+01  0.41590802840E+02  0.12247896110E+02  0.47787269961E+02  0.19999995061E+02 0.  0.
        -12    1    3    3    0    0 -0.19538495018E+01 -0.41590802840E+02 -0.12247896110E+02  0.43400730039E+02  0.00000000000E+00 0.  1.
         11    1    4    4    0    0 -0.60302836661E-01  0.60807324045E+01 -0.17918650765E+01  0.63395365541E+01  0.51100000000E-03 0. -1.
        -11    1    4    4    0    0  0.49253687860E+01  0.45967629377E+01 -0.12260736703E+01  0.68478276913E+01  0.51100000000E-03 0.  1.
        -12    1    4    4    0    0 -0.29112164475E+01  0.30913307498E+02  0.15265834857E+02  0.34599905716E+02  0.00000000000E+00 0.  1.
</event>
<event>
 8    1  0.5542925E-011  0.9118800E+02  0.7816164E-02  0.1184000E+00
        -11   -1    0    0    0    0  0.00000000000E+00  0.00000000000E+00  0.45593999997E+02  0.45594000000E+02  0.51100000000E-03 0. -1.
         11   -1    0    0    0    0 -0.00000000000E+00 -0.00000000000E+00 -0.45593999997E+02  0.45594000000E+02  0.51100000000E-03 0.  1.
         23    2    1    2    0    0  0.00000000000E+00  0.00000000000E+00  0.00000000000E+00  0.91188000000E+02  0.91188000000E+02 0.  0.
    9900012    2    3    3    0    0  0.51871418533E+01  0.10443561170E+02 -0.41804893268E+02  0.47787268305E+02  0.19999987510E+02 0.  0.
         12    1    3    3    0    0 -0.51871418533E+01 -0.10443561170E+02  0.41804893268E+02  0.43400731695E+02  0.00000000000E+00 0. -1.
         11    1    4    4    0    0 -0.11418259066E+01  0.56938850047E+01 -0.22017247913E+02  0.22770228342E+02  0.51100000000E-03 0. -1.
        -11    1    4    4    0    0 -0.11112643033E+01  0.24600299553E+01 -0.16238922004E+02  0.16461750935E+02  0.51100000000E-03 0.  1.
         12    1    4    4    0    0  0.74402320633E+01  0.22896462098E+01 -0.35487233511E+01  0.85552890275E+01  0.00000000000E+00 0. -1.
</event>
<event>
 8    1  0.5542925E-011  0.9118800E+02  0.7816164E-02  0.1184000E+00
        -11   -1    0    0    0    0  0.00000000000E+00  0.00000000000E+00  0.45593999997E+02  0.45594000000E+02  0.51100000000E-03 0. -1.
         11   -1    0    0    0    0 -0.00000000000E+00 -0.00000000000E+00 -0.45593999997E+02  0.45594000000E+02  0.51100000000E-03 0.  1.
         23    2    1    2    0    0 -0.35527136788E-14  0.00000000000E+00  0.00000000000E+00  0.91188000000E+02  0.91188000000E+02 0.  0.
    9900012    2    3    3    0    0  0.25333880796E+02  0.23713184761E+01  0.35159554913E+02  0.47787274555E+02  0.20000016006E+02 0.  0.
        -12    1    3    3    0    0 -0.25333880796E+02 -0.23713184761E+01 -0.35159554913E+02  0.43400725445E+02  0.00000000000E+00 0.  1.
         11    1    4    4    0    0  0.10870248706E+02  0.19116240441E+01  0.11660546478E+02  0.16055683039E+02  0.51100000000E-03 0. -1.
        -11    1    4    4    0    0  0.11985726557E+02  0.67048181396E+01  0.19695557578E+02  0.24010981154E+02  0.51100000000E-03 0.  1.
        -12    1    4    4    0    0  0.24779055322E+01 -0.62451237076E+01  0.38034508568E+01  0.77206103625E+01  0.00000000000E+00 0.  1.
</event>
<event>
 8    1  0.5542925E-011  0.9118800E+02  0.7816164E-02  0.1184000E+00
        -11   -1    0    0    0    0  0.00000000000E+00  0.00000000000E+00  0.45593999997E+02  0.45594000000E+02  0.51100000000E-03 0.  1.
         11   -1    0    0    0    0 -0.00000000000E+00 -0.00000000000E+00 -0.45593999997E+02  0.45594000000E+02  0.51100000000E-03 0. -1.
         23    2    1    2    0    0  0.71054273576E-14  0.17763568394E-14 -0.44408920985E-15  0.91188000000E+02  0.91188000000E+02 0.  0.
    9900012    2    3    3    0    0 -0.41673739156E+02 -0.11759093351E+02  0.29404583363E+01  0.47787272968E+02  0.20000008770E+02 0.  0.
        -12    1    3    3    0    0  0.41673739156E+02  0.11759093351E+02 -0.29404583363E+01  0.43400727032E+02  0.00000000000E+00 0.  1.
         11    1    4    4    0    0 -0.19016857948E+02 -0.61883071875E+01 -0.10343347483E+01  0.20025131228E+02  0.51100000000E-03 0. -1.
        -11    1    4    4    0    0 -0.14230909745E+02 -0.58208125331E+01 -0.42839970734E+01  0.15960992510E+02  0.51100000000E-03 0.  1.
        -12    1    4    4    0    0 -0.84259714629E+01  0.25002636958E+00  0.82587901580E+01  0.11801149230E+02  0.00000000000E+00 0.  1.
</event>
<event>
 8    1  0.5542925E-011  0.9118800E+02  0.7816164E-02  0.1184000E+00
        -11   -1    0    0    0    0  0.00000000000E+00  0.00000000000E+00  0.45593999997E+02  0.45594000000E+02  0.51100000000E-03 0. -1.
         11   -1    0    0    0    0 -0.00000000000E+00 -0.00000000000E+00 -0.45593999997E+02  0.45594000000E+02  0.51100000000E-03 0.  1.
         23    2    1    2    0    0  0.00000000000E+00 -0.17763568394E-14  0.00000000000E+00  0.91188000000E+02  0.91188000000E+02 0.  0.
    9900012    2    3    3    0    0 -0.16715636237E+02  0.15298610006E+02  0.37015716863E+02  0.47787271230E+02  0.20000000844E+02 0.  0.
        -12    1    3    3    0    0  0.16715636237E+02 -0.15298610006E+02 -0.37015716863E+02  0.43400728770E+02  0.00000000000E+00 0.  1.
         11    1    4    4    0    0 -0.57831251386E+01  0.38103963924E+01  0.19470874950E+02  0.20665880785E+02  0.51100000000E-03 0. -1.
        -11    1    4    4    0    0 -0.34448665451E+01 -0.26350899245E+01  0.18373201127E+01  0.47102600652E+01  0.51100000000E-03 0.  1.
        -12    1    4    4    0    0 -0.74876445528E+01  0.14123303538E+02  0.15707521801E+02  0.22411130380E+02  0.00000000000E+00 0.  1.
</event>
<event>
 8    1  0.5542925E-011  0.9118800E+02  0.7816164E-02  0.1184000E+00
        -11   -1    0    0    0    0  0.00000000000E+00  0.00000000000E+00  0.45593999997E+02  0.45594000000E+02  0.51100000000E-03 0. -1.
         11   -1    0    0    0    0 -0.00000000000E+00 -0.00000000000E+00 -0.45593999997E+02  0.45594000000E+02  0.51100000000E-03 0.  1.
         23    2    1    2    0    0  0.88817841970E-15  0.00000000000E+00  0.00000000000E+00  0.91188000000E+02  0.91188000000E+02 0.  0.
    9900012    2    3    3    0    0  0.55955655506E+01 -0.12841009303E+02 -0.41078235720E+02  0.47787270472E+02  0.19999997388E+02 0.  0.
         12    1    3    3    0    0 -0.55955655506E+01  0.12841009303E+02  0.41078235720E+02  0.43400729528E+02  0.00000000000E+00 0. -1.
         11    1    4    4    0    0  0.35777008561E+01 -0.71568536821E+01 -0.76337797330E+01  0.11058711106E+02  0.51100000000E-03 0. -1.
        -11    1    4    4    0    0  0.66163552009E+01 -0.76469083903E+01 -0.23974199340E+02  0.26019484974E+02  0.51100000000E-03 0.  1.
        -12    1    4    4    0    0 -0.45984905065E+01  0.19627527690E+01 -0.94702566470E+01  0.10709074392E+02  0.00000000000E+00 0.  1.
</event>
<event>
 8    1  0.5542925E-011  0.9118800E+02  0.7816164E-02  0.1184000E+00
        -11   -1    0    0    0    0  0.00000000000E+00  0.00000000000E+00  0.45593999997E+02  0.45594000000E+02  0.51100000000E-03 0. -1.
         11   -1    0    0    0    0 -0.00000000000E+00 -0.00000000000E+00 -0.45593999997E+02  0.45594000000E+02  0.51100000000E-03 0.  1.
         23    2    1    2    0    0  0.35527136788E-14 -0.35527136788E-14  0.00000000000E+00  0.91188000000E+02  0.91188000000E+02 0.  0.
    9900012    2    3    3    0    0 -0.23740779740E+02  0.18998388215E+02  0.30968689461E+02  0.47787272998E+02  0.20000008906E+02 0.  0.
        -12    1    3    3    0    0  0.23740779740E+02 -0.18998388215E+02 -0.30968689461E+02  0.43400727002E+02  0.00000000000E+00 0.  1.
         11    1    4    4    0    0 -0.23479797033E+01  0.24192661736E+01  0.36777592010E+01  0.49891653117E+01  0.51100000000E-03 0. -1.
        -11    1    4    4    0    0 -0.21934481443E+02  0.93721225950E+01  0.26295958660E+02  0.35502613991E+02  0.51100000000E-03 0.  1.
         12    1    4    4    0    0  0.54168140682E+00  0.72069994462E+01  0.99497160004E+00  0.72954936947E+01  0.00000000000E+00 0. -1.
</event>
<event>
 8    1  0.5865634E-011  0.9118800E+02  0.7816164E-02  0.1184000E+00
        -11   -1    0    0    0    0  0.00000000000E+00  0.00000000000E+00  0.45593999997E+02  0.45594000000E+02  0.51100000000E-03 0. -1.
         11   -1    0    0    0    0 -0.00000000000E+00 -0.00000000000E+00 -0.45593999997E+02  0.45594000000E+02  0.51100000000E-03 0.  1.
         23    2    1    2    0    0  0.44408920985E-15  0.00000000000E+00  0.35527136788E-14  0.91188000000E+02  0.91188000000E+02 0.  0.
    9900012    2    3    3    0    0  0.35644145193E+01  0.31856348524E+02  0.29259027462E+02  0.47787277884E+02  0.20000031185E+02 0.  0.
        -12    1    3    3    0    0 -0.35644145193E+01 -0.31856348524E+02 -0.29259027462E+02  0.43400722116E+02  0.00000000000E+00 0.  1.
         11    1    4    4    0    0  0.73655496283E+00  0.13323751937E+02  0.18190717941E+02  0.22560299164E+02  0.51100000000E-03 0. -1.
        -11    1    4    4    0    0 -0.37604330716E+01  0.15599809135E+01  0.39678913236E+01  0.56849414380E+01  0.51100000000E-03 0.  1.
         12    1    4    4    0    0  0.65882926281E+01  0.16972615674E+02  0.71004181969E+01  0.19542037282E+02  0.00000000000E+00 0. -1.
</event>
<event>
 8    1  0.5542925E-011  0.9118800E+02  0.7816164E-02  0.1184000E+00
        -11   -1    0    0    0    0  0.00000000000E+00  0.00000000000E+00  0.45593999997E+02  0.45594000000E+02  0.51100000000E-03 0. -1.
         11   -1    0    0    0    0 -0.00000000000E+00 -0.00000000000E+00 -0.45593999997E+02  0.45594000000E+02  0.51100000000E-03 0.  1.
         23    2    1    2    0    0 -0.17763568394E-14  0.00000000000E+00  0.00000000000E+00  0.91188000000E+02  0.91188000000E+02 0.  0.
    9900012    2    3    3    0    0 -0.10749377618E+02  0.11047681907E+02 -0.40571206599E+02  0.47787271901E+02  0.20000003903E+02 0.  0.
         12    1    3    3    0    0  0.10749377618E+02 -0.11047681907E+02  0.40571206599E+02  0.43400728099E+02  0.00000000000E+00 0. -1.
         11    1    4    4    0    0  0.32494273883E+01  0.60979897808E+00 -0.18020501368E+01  0.37653709117E+01  0.51100000000E-03 0. -1.
        -11    1    4    4    0    0 -0.38344598844E+01  0.83828855506E+01 -0.10839367240E+02  0.14229115756E+02  0.51100000000E-03 0.  1.
        -12    1    4    4    0    0 -0.10164345122E+02  0.20549973780E+01 -0.27929789222E+02  0.29792785233E+02  0.00000000000E+00 0.  1.
</event>
<event>
 8    1  0.5542925E-011  0.9118800E+02  0.7816164E-02  0.1184000E+00
        -11   -1    0    0    0    0  0.00000000000E+00  0.00000000000E+00  0.45593999997E+02  0.45594000000E+02  0.51100000000E-03 0. -1.
         11   -1    0    0    0    0 -0.00000000000E+00 -0.00000000000E+00 -0.45593999997E+02  0.45594000000E+02  0.51100000000E-03 0.  1.
         23    2    1    2    0    0  0.00000000000E+00  0.00000000000E+00  0.71054273576E-14  0.91188000000E+02  0.91188000000E+02 0.  0.
    9900012    2    3    3    0    0 -0.23573336497E+02  0.40178238408E+01  0.36218482247E+02  0.47787267768E+02  0.19999985060E+02 0.  0.
        -12    1    3    3    0    0  0.23573336497E+02 -0.40178238408E+01 -0.36218482247E+02  0.43400732232E+02  0.00000000000E+00 0.  1.
         11    1    4    4    0    0 -0.12683078350E+02  0.58036358439E+01  0.14734075070E+02  0.20288805630E+02  0.51100000000E-03 0. -1.
        -11    1    4    4    0    0 -0.12879113541E+02 -0.96559144875E+00  0.21785532543E+02  0.25326139874E+02  0.51100000000E-03 0.  1.
        -12    1    4    4    0    0  0.19888553936E+01 -0.82022055433E+00 -0.30112536630E+00  0.21723222645E+01  0.00000000000E+00 0.  1.
</event>
<event>
 8    1  0.6934274E-011  0.9118800E+02  0.7816164E-02  0.1184000E+00
        -11   -1    0    0    0    0  0.00000000000E+00  0.00000000000E+00  0.45593999997E+02  0.45594000000E+02  0.51100000000E-03 0. -1.
         11   -1    0    0    0    0 -0.00000000000E+00 -0.00000000000E+00 -0.45593999997E+02  0.45594000000E+02  0.51100000000E-03 0.  1.
         23    2    1    2    0    0  0.00000000000E+00 -0.35527136788E-14  0.00000000000E+00  0.91188000000E+02  0.91188000000E+02 0.  0.
    9900012    2    3    3    0    0  0.10359592220E+02 -0.20810243712E+02  0.36650198314E+02  0.47787257717E+02  0.19999939233E+02 0.  0.
        -12    1    3    3    0    0 -0.10359592220E+02  0.20810243712E+02 -0.36650198314E+02  0.43400742283E+02  0.00000000000E+00 0.  1.
         11    1    4    4    0    0 -0.31910815179E+01 -0.29787813837E+01  0.93094275731E+01  0.10282100067E+02  0.51100000000E-03 0. -1.
        -11    1    4    4    0    0 -0.25478940671E+00 -0.63880937100E+01  0.24912893869E+01  0.68614271081E+01  0.51100000000E-03 0.  1.
         12    1    4    4    0    0  0.13805463144E+02 -0.11443368619E+02  0.24849481354E+02  0.30643730542E+02  0.00000000000E+00 0. -1.
</event>
<event>
 8    1  0.5542925E-011  0.9118800E+02  0.7816164E-02  0.1184000E+00
        -11   -1    0    0    0    0  0.00000000000E+00  0.00000000000E+00  0.45593999997E+02  0.45594000000E+02  0.51100000000E-03 0. -1.
         11   -1    0    0    0    0 -0.00000000000E+00 -0.00000000000E+00 -0.45593999997E+02  0.45594000000E+02  0.51100000000E-03 0.  1.
         23    2    1    2    0    0 -0.35527136788E-14  0.00000000000E+00  0.71054273576E-14  0.91188000000E+02  0.91188000000E+02 0.  0.
    9900012    2    3    3    0    0 -0.23733005912E+02  0.50287536365E+01  0.35987214347E+02  0.47787268103E+02  0.19999986591E+02 0.  0.
        -12    1    3    3    0    0  0.23733005912E+02 -0.50287536365E+01 -0.35987214347E+02  0.43400731897E+02  0.00000000000E+00 0.  1.
         11    1    4    4    0    0 -0.38355644578E+01  0.30386770103E+01  0.45864260932E+01  0.67067441618E+01  0.51100000000E-03 0. -1.
        -11    1    4    4    0    0 -0.74725778732E+01 -0.30094644300E+01  0.24943541712E+02  0.26212145460E+02  0.51100000000E-03 0.  1.
         12    1    4    4    0    0 -0.12424863581E+02  0.49995410562E+01  0.64572465414E+01  0.14868378481E+02  0.00000000000E+00 0. -1.
</event>
<event>
 8    1  0.5542925E-011  0.9118800E+02  0.7816164E-02  0.1184000E+00
        -11   -1    0    0    0    0  0.00000000000E+00  0.00000000000E+00  0.45593999997E+02  0.45594000000E+02  0.51100000000E-03 0. -1.
         11   -1    0    0    0    0 -0.00000000000E+00 -0.00000000000E+00 -0.45593999997E+02  0.45594000000E+02  0.51100000000E-03 0.  1.
         23    2    1    2    0    0  0.14210854715E-13  0.00000000000E+00  0.35527136788E-14  0.91188000000E+02  0.91188000000E+02 0.  0.
    9900012    2    3    3    0    0  0.39244551260E+02 -0.30495787616E+01  0.18280813280E+02  0.47787275715E+02  0.20000021297E+02 0.  0.
        -12    1    3    3    0    0 -0.39244551260E+02  0.30495787616E+01 -0.18280813280E+02  0.43400724285E+02  0.00000000000E+00 0.  1.
         11    1    4    4    0    0  0.31906961507E+02  0.19483808254E+00  0.10940899913E+02  0.33731223601E+02  0.51100000000E-03 0. -1.
        -11    1    4    4    0    0  0.63272557692E+01 -0.45946652863E+00  0.22377147504E+00  0.63478617655E+01  0.51100000000E-03 0.  1.
        -12    1    4    4    0    0  0.10103339842E+01 -0.27849503155E+01  0.71161418922E+01  0.77081903485E+01  0.00000000000E+00 0.  1.
</event>
<event>
 8    1  0.5542925E-011  0.9118800E+02  0.7816164E-02  0.1184000E+00
        -11   -1    0    0    0    0  0.00000000000E+00  0.00000000000E+00  0.45593999997E+02  0.45594000000E+02  0.51100000000E-03 0. -1.
         11   -1    0    0    0    0 -0.00000000000E+00 -0.00000000000E+00 -0.45593999997E+02  0.45594000000E+02  0.51100000000E-03 0.  1.
         23    2    1    2    0    0 -0.17763568394E-14 -0.35527136788E-14 -0.71054273576E-14  0.91188000000E+02  0.91188000000E+02 0.  0.
    9900012    2    3    3    0    0  0.15463792104E+02  0.24121725638E+02  0.32598103433E+02  0.47787275796E+02  0.20000021665E+02 0.  0.
        -12    1    3    3    0    0 -0.15463792104E+02 -0.24121725638E+02 -0.32598103433E+02  0.43400724204E+02  0.00000000000E+00 0.  1.
         11    1    4    4    0    0  0.32971442741E+01  0.53250254149E+01 -0.22286187308E+00  0.62671144643E+01  0.51100000000E-03 0. -1.
        -11    1    4    4    0    0  0.28238686311E+01  0.31417678454E+01  0.16562323303E+02  0.17092556646E+02  0.51100000000E-03 0.  1.
         12    1    4    4    0    0  0.93427791986E+01  0.15654932378E+02  0.16258642003E+02  0.24427604686E+02  0.00000000000E+00 0. -1.
</event>
<event>
 8    1  0.5542925E-011  0.9118800E+02  0.7816164E-02  0.1184000E+00
        -11   -1    0    0    0    0  0.00000000000E+00  0.00000000000E+00  0.45593999997E+02  0.45594000000E+02  0.51100000000E-03 0. -1.
         11   -1    0    0    0    0 -0.00000000000E+00 -0.00000000000E+00 -0.45593999997E+02  0.45594000000E+02  0.51100000000E-03 0.  1.
         23    2    1    2    0    0  0.00000000000E+00 -0.88817841970E-15  0.00000000000E+00  0.91188000000E+02  0.91188000000E+02 0.  0.
    9900012    2    3    3    0    0 -0.77546155171E+01  0.59276043882E+01 -0.42288910233E+02  0.47787280141E+02  0.20000041474E+02 0.  0.
         12    1    3    3    0    0  0.77546155171E+01 -0.59276043882E+01  0.42288910233E+02  0.43400719859E+02  0.00000000000E+00 0. -1.
         11    1    4    4    0    0 -0.63918501270E+00  0.62585939692E+01 -0.14183038013E+02  0.15515705704E+02  0.51100000000E-03 0. -1.
        -11    1    4    4    0    0 -0.95752710633E-01  0.59961536842E+01 -0.75061283348E+01  0.96075486169E+01  0.51100000000E-03 0.  1.
        -12    1    4    4    0    0 -0.70196777938E+01 -0.63271432652E+01 -0.20599743885E+02  0.22664025820E+02  0.00000000000E+00 0.  1.
</event>
<event>
 8    1  0.5542925E-011  0.9118800E+02  0.7816164E-02  0.1184000E+00
        -11   -1    0    0    0    0  0.00000000000E+00  0.00000000000E+00  0.45593999997E+02  0.45594000000E+02  0.51100000000E-03 0. -1.
         11   -1    0    0    0    0 -0.00000000000E+00 -0.00000000000E+00 -0.45593999997E+02  0.45594000000E+02  0.51100000000E-03 0.  1.
         23    2    1    2    0    0  0.00000000000E+00 -0.44408920985E-15  0.00000000000E+00  0.91188000000E+02  0.91188000000E+02 0.  0.
    9900012    2    3    3    0    0  0.33865197876E+02  0.15625389244E+01 -0.27098522002E+02  0.47787273626E+02  0.20000011772E+02 0.  0.
         12    1    3    3    0    0 -0.33865197876E+02 -0.15625389244E+01  0.27098522002E+02  0.43400726374E+02  0.00000000000E+00 0. -1.
         11    1    4    4    0    0  0.27751503693E+01 -0.14721683566E+01  0.23450169408E+01  0.39201841738E+01  0.51100000000E-03 0. -1.
        -11    1    4    4    0    0  0.12249047562E+01 -0.16160197755E+00  0.60972280738E+00  0.13777768411E+01  0.51100000000E-03 0.  1.
        -12    1    4    4    0    0  0.29865142750E+02  0.31963092586E+01 -0.30053261751E+02  0.42489312612E+02  0.00000000000E+00 0.  1.
</event>
<event>
 8    1  0.5542925E-011  0.9118800E+02  0.7816164E-02  0.1184000E+00
        -11   -1    0    0    0    0  0.00000000000E+00  0.00000000000E+00  0.45593999997E+02  0.45594000000E+02  0.51100000000E-03 0. -1.
         11   -1    0    0    0    0 -0.00000000000E+00 -0.00000000000E+00 -0.45593999997E+02  0.45594000000E+02  0.51100000000E-03 0.  1.
         23    2    1    2    0    0  0.13322676296E-14 -0.71054273576E-14  0.00000000000E+00  0.91188000000E+02  0.91188000000E+02 0.  0.
    9900012    2    3    3    0    0  0.32577090681E+01 -0.30673138308E+02 -0.30531440858E+02  0.47787274627E+02  0.20000016336E+02 0.  0.
         12    1    3    3    0    0 -0.32577090681E+01  0.30673138308E+02  0.30531440858E+02  0.43400725373E+02  0.00000000000E+00 0. -1.
         11    1    4    4    0    0 -0.11388863842E+01 -0.56526261995E+01  0.67472287799E+00  0.58055573695E+01  0.51100000000E-03 0. -1.
        -11    1    4    4    0    0 -0.41727810379E+01 -0.78795945161E+01 -0.10186353242E+02  0.13537426046E+02  0.51100000000E-03 0.  1.
        -12    1    4    4    0    0  0.85693764902E+01 -0.17140917592E+02 -0.21019810494E+02  0.28444291212E+02  0.00000000000E+00 0.  1.
</event>
<event>
 8    1  0.5542925E-011  0.9118800E+02  0.7816164E-02  0.1184000E+00
        -11   -1    0    0    0    0  0.00000000000E+00  0.00000000000E+00  0.45593999997E+02  0.45594000000E+02  0.51100000000E-03 0. -1.
         11   -1    0    0    0    0 -0.00000000000E+00 -0.00000000000E+00 -0.45593999997E+02  0.45594000000E+02  0.51100000000E-03 0.  1.
         23    2    1    2    0    0 -0.71054273576E-14  0.49960036108E-15  0.00000000000E+00  0.91188000000E+02  0.91188000000E+02 0.  0.
    9900012    2    3    3    0    0 -0.27120661261E+02  0.23050347852E+00  0.33882739544E+02  0.47787269152E+02  0.19999991374E+02 0.  0.
        -12    1    3    3    0    0  0.27120661261E+02 -0.23050347852E+00 -0.33882739544E+02  0.43400730848E+02  0.00000000000E+00 0.  1.
         11    1    4    4    0    0 -0.12384831502E+02  0.22261988898E+00  0.16089772261E+02  0.20305525913E+02  0.51100000000E-03 0. -1.
        -11    1    4    4    0    0 -0.95472904374E+01  0.28389134894E+01  0.18996872787E+02  0.21449740335E+02  0.51100000000E-03 0.  1.
        -12    1    4    4    0    0 -0.51885393209E+01 -0.28310298998E+01 -0.12039055029E+01  0.60320029044E+01  0.00000000000E+00 0.  1.
</event>
<event>
 8    1  0.5542925E-011  0.9118800E+02  0.7816164E-02  0.1184000E+00
        -11   -1    0    0    0    0  0.00000000000E+00  0.00000000000E+00  0.45593999997E+02  0.45594000000E+02  0.51100000000E-03 0.  1.
         11   -1    0    0    0    0 -0.00000000000E+00 -0.00000000000E+00 -0.45593999997E+02  0.45594000000E+02  0.51100000000E-03 0. -1.
         23    2    1    2    0    0  0.35527136788E-14  0.88817841970E-15  0.00000000000E+00  0.91188000000E+02  0.91188000000E+02 0.  0.
    9900012    2    3    3    0    0 -0.27743523385E+02 -0.51528871663E+01  0.32975266001E+02  0.47787268396E+02  0.19999987924E+02 0.  0.
        -12    1    3    3    0    0  0.27743523385E+02  0.51528871663E+01 -0.32975266001E+02  0.43400731604E+02  0.00000000000E+00 0.  1.
         11    1    4    4    0    0  0.10909403075E+01  0.69026445679E+00  0.58731139920E+01  0.60133255357E+01  0.51100000000E-03 0. -1.
        -11    1    4    4    0    0 -0.12698401329E+02 -0.48206395498E+01  0.19853176398E+02  0.24054865939E+02  0.51100000000E-03 0.  1.
         12    1    4    4    0    0 -0.16136062364E+02 -0.10225120733E+01  0.72489756106E+01  0.17719076922E+02  0.00000000000E+00 0. -1.
</event>
<event>
 8    1  0.5542925E-011  0.9118800E+02  0.7816164E-02  0.1184000E+00
        -11   -1    0    0    0    0  0.00000000000E+00  0.00000000000E+00  0.45593999997E+02  0.45594000000E+02  0.51100000000E-03 0.  1.
         11   -1    0    0    0    0 -0.00000000000E+00 -0.00000000000E+00 -0.45593999997E+02  0.45594000000E+02  0.51100000000E-03 0. -1.
         23    2    1    2    0    0  0.00000000000E+00  0.00000000000E+00  0.00000000000E+00  0.91188000000E+02  0.91188000000E+02 0.  0.
    9900012    2    3    3    0    0 -0.10212589668E+02  0.22372811855E+02  0.35760084659E+02  0.47787270135E+02  0.19999995852E+02 0.  0.
        -12    1    3    3    0    0  0.10212589668E+02 -0.22372811855E+02 -0.35760084659E+02  0.43400729865E+02  0.00000000000E+00 0.  1.
         11    1    4    4    0    0 -0.49159710979E+01  0.66931051515E+01  0.84881252055E+00  0.83477488798E+01  0.51100000000E-03 0. -1.
        -11    1    4    4    0    0 -0.45805968892E+01  0.27832542047E+01  0.86983799369E+01  0.10217151541E+02  0.51100000000E-03 0.  1.
         12    1    4    4    0    0 -0.71602168048E+00  0.12896452499E+02  0.26212892202E+02  0.29222369714E+02  0.00000000000E+00 0. -1.
</event>
<event>
 8    1  0.5542925E-011  0.9118800E+02  0.7816164E-02  0.1184000E+00
        -11   -1    0    0    0    0  0.00000000000E+00  0.00000000000E+00  0.45593999997E+02  0.45594000000E+02  0.51100000000E-03 0. -1.
         11   -1    0    0    0    0 -0.00000000000E+00 -0.00000000000E+00 -0.45593999997E+02  0.45594000000E+02  0.51100000000E-03 0.  1.
         23    2    1    2    0    0  0.17763568394E-14  0.44408920985E-15  0.00000000000E+00  0.91188000000E+02  0.91188000000E+02 0.  0.
    9900012    2    3    3    0    0 -0.11698425757E+02 -0.21182444170E+01  0.41740666229E+02  0.47787270261E+02  0.19999996429E+02 0.  0.
        -12    1    3    3    0    0  0.11698425757E+02  0.21182444170E+01 -0.41740666229E+02  0.43400729739E+02  0.00000000000E+00 0.  1.
         11    1    4    4    0    0 -0.12321813483E+01  0.43323866390E+01  0.27519917249E+01  0.52783807725E+01  0.51100000000E-03 0. -1.
        -11    1    4    4    0    0 -0.53495562919E+01  0.16059313478E+01  0.61335268208E+01  0.82955963943E+01  0.51100000000E-03 0.  1.
         12    1    4    4    0    0 -0.51166881166E+01 -0.80565624038E+01  0.32855147684E+02  0.34213293094E+02  0.00000000000E+00 0. -1.
</event>
<event>
 8    1  0.5542925E-011  0.9118800E+02  0.7816164E-02  0.1184000E+00
        -11   -1    0    0    0    0  0.00000000000E+00  0.00000000000E+00  0.45593999997E+02  0.45594000000E+02  0.51100000000E-03 0. -1.
         11   -1    0    0    0    0 -0.00000000000E+00 -0.00000000000E+00 -0.45593999997E+02  0.45594000000E+02  0.51100000000E-03 0.  1.
         23    2    1    2    0    0  0.17763568394E-14 -0.88817841970E-15  0.00000000000E+00  0.91188000000E+02  0.91188000000E+02 0.  0.
    9900012    2    3    3    0    0  0.96207735250E+01 -0.62953445611E+01 -0.41850121123E+02  0.47787270923E+02  0.19999999448E+02 0.  0.
         12    1    3    3    0    0 -0.96207735250E+01  0.62953445611E+01  0.41850121123E+02  0.43400729077E+02  0.00000000000E+00 0. -1.
         11    1    4    4    0    0 -0.10456287326E+01 -0.54569955983E+01 -0.15005297251E+02  0.16000971416E+02  0.51100000000E-03 0. -1.
        -11    1    4    4    0    0 -0.19786914922E+01 -0.34428119959E+01 -0.81610042217E+01  0.90758010461E+01  0.51100000000E-03 0.  1.
         12    1    4    4    0    0  0.12645093750E+02  0.26044630332E+01 -0.18683819650E+02  0.22710498461E+02  0.00000000000E+00 0. -1.
</event>
<event>
 8    1  0.5542925E-011  0.9118800E+02  0.7816164E-02  0.1184000E+00
        -11   -1    0    0    0    0  0.00000000000E+00  0.00000000000E+00  0.45593999997E+02  0.45594000000E+02  0.51100000000E-03 0.  1.
         11   -1    0    0    0    0 -0.00000000000E+00 -0.00000000000E+00 -0.45593999997E+02  0.45594000000E+02  0.51100000000E-03 0. -1.
         23    2    1    2    0    0  0.00000000000E+00  0.00000000000E+00 -0.17763568394E-14  0.91188000000E+02  0.91188000000E+02 0.  0.
    9900012    2    3    3    0    0 -0.35315453081E+02  0.20083386017E+02 -0.15267606830E+02  0.47787269148E+02  0.19999991351E+02 0.  0.
         12    1    3    3    0    0  0.35315453081E+02 -0.20083386017E+02  0.15267606830E+02  0.43400730852E+02  0.00000000000E+00 0. -1.
         11    1    4    4    0    0 -0.16396303656E+02  0.15053617284E+02 -0.36295999221E+01  0.22552697461E+02  0.51100000000E-03 0. -1.
        -11    1    4    4    0    0 -0.68702340940E+01  0.38968456455E+01  0.72812261079E+00  0.79319408274E+01  0.51100000000E-03 0.  1.
         12    1    4    4    0    0 -0.12048915331E+02  0.11329230874E+01 -0.12366129519E+02  0.17302630859E+02  0.00000000000E+00 0. -1.
</event>
<event>
 8    1  0.5542925E-011  0.9118800E+02  0.7816164E-02  0.1184000E+00
        -11   -1    0    0    0    0  0.00000000000E+00  0.00000000000E+00  0.45593999997E+02  0.45594000000E+02  0.51100000000E-03 0. -1.
         11   -1    0    0    0    0 -0.00000000000E+00 -0.00000000000E+00 -0.45593999997E+02  0.45594000000E+02  0.51100000000E-03 0.  1.
         23    2    1    2    0    0  0.00000000000E+00  0.00000000000E+00  0.00000000000E+00  0.91188000000E+02  0.91188000000E+02 0.  0.
    9900012    2    3    3    0    0 -0.14927636752E+02  0.38724824649E+02 -0.12695561994E+02  0.47787266395E+02  0.19999978801E+02 0.  0.
         12    1    3    3    0    0  0.14927636752E+02 -0.38724824649E+02  0.12695561994E+02  0.43400733605E+02  0.00000000000E+00 0. -1.
         11    1    4    4    0    0 -0.29902474028E+01  0.27815845324E+02 -0.46882257619E+01  0.28366217437E+02  0.51100000000E-03 0. -1.
        -11    1    4    4    0    0 -0.62452053916E+01  0.71013312319E+01 -0.81818615390E+00  0.94921506778E+01  0.51100000000E-03 0.  1.
        -12    1    4    4    0    0 -0.56921839575E+01  0.38076480931E+01 -0.71891500785E+01  0.99288982802E+01  0.00000000000E+00 0.  1.
</event>
<event>
 8    1  0.5542925E-011  0.9118800E+02  0.7816164E-02  0.1184000E+00
        -11   -1    0    0    0    0  0.00000000000E+00  0.00000000000E+00  0.45593999997E+02  0.45594000000E+02  0.51100000000E-03 0. -1.
         11   -1    0    0    0    0 -0.00000000000E+00 -0.00000000000E+00 -0.45593999997E+02  0.45594000000E+02  0.51100000000E-03 0.  1.
         23    2    1    2    0    0 -0.35527136788E-14  0.71054273576E-14 -0.35527136788E-14  0.91188000000E+02  0.91188000000E+02 0.  0.
    9900012    2    3    3    0    0 -0.16685241630E+02  0.36745786826E+02 -0.15967867468E+02  0.47787275015E+02  0.20000018104E+02 0.  0.
         12    1    3    3    0    0  0.16685241630E+02 -0.36745786826E+02  0.15967867468E+02  0.43400724985E+02  0.00000000000E+00 0. -1.
         11    1    4    4    0    0 -0.65862853884E+01  0.21769794361E+02 -0.16961407527E+01  0.22807454821E+02  0.51100000000E-03 0. -1.
        -11    1    4    4    0    0 -0.77955511246E+01  0.56216461984E+01 -0.28230451993E+01  0.10017140699E+02  0.51100000000E-03 0.  1.
        -12    1    4    4    0    0 -0.23034051167E+01  0.93543462675E+01 -0.11448681516E+02  0.14962679495E+02  0.00000000000E+00 0.  1.
</event>
<event>
 8    1  0.5542925E-011  0.9118800E+02  0.7816164E-02  0.1184000E+00
        -11   -1    0    0    0    0  0.00000000000E+00  0.00000000000E+00  0.45593999997E+02  0.45594000000E+02  0.51100000000E-03 0. -1.
         11   -1    0    0    0    0 -0.00000000000E+00 -0.00000000000E+00 -0.45593999997E+02  0.45594000000E+02  0.51100000000E-03 0.  1.
         23    2    1    2    0    0  0.00000000000E+00 -0.35527136788E-14 -0.35527136788E-14  0.91188000000E+02  0.91188000000E+02 0.  0.
    9900012    2    3    3    0    0  0.21974501079E+02  0.31135506886E+02  0.20768347139E+02  0.47787277315E+02  0.20000028589E+02 0.  0.
        -12    1    3    3    0    0 -0.21974501079E+02 -0.31135506886E+02 -0.20768347139E+02  0.43400722685E+02  0.00000000000E+00 0.  1.
         11    1    4    4    0    0  0.10021943977E+02  0.24683407559E+02  0.13106521997E+02  0.29689912241E+02  0.51100000000E-03 0. -1.
        -11    1    4    4    0    0  0.14823183286E+01  0.40867684873E+01 -0.81091670424E+00  0.44222766149E+01  0.51100000000E-03 0.  1.
        -12    1    4    4    0    0  0.10470238773E+02  0.23653308402E+01  0.84727418463E+01  0.13675088458E+02  0.00000000000E+00 0.  1.
</event>
<event>
 8    1  0.5542925E-011  0.9118800E+02  0.7816164E-02  0.1184000E+00
        -11   -1    0    0    0    0  0.00000000000E+00  0.00000000000E+00  0.45593999997E+02  0.45594000000E+02  0.51100000000E-03 0. -1.
         11   -1    0    0    0    0 -0.00000000000E+00 -0.00000000000E+00 -0.45593999997E+02  0.45594000000E+02  0.51100000000E-03 0.  1.
         23    2    1    2    0    0 -0.35527136788E-14  0.00000000000E+00  0.00000000000E+00  0.91188000000E+02  0.91188000000E+02 0.  0.
    9900012    2    3    3    0    0 -0.24830498917E+02  0.34207178691E+01  0.35431175012E+02  0.47787272472E+02  0.20000006510E+02 0.  0.
        -12    1    3    3    0    0  0.24830498917E+02 -0.34207178691E+01 -0.35431175012E+02  0.43400727528E+02  0.00000000000E+00 0.  1.
         11    1    4    4    0    0 -0.38823309372E+00 -0.10252494908E+01  0.53975051316E+01  0.55077148946E+01  0.51100000000E-03 0. -1.
        -11    1    4    4    0    0 -0.15464020913E+02  0.45737080523E+01  0.29077160079E+02  0.33249601301E+02  0.51100000000E-03 0.  1.
         12    1    4    4    0    0 -0.89782449103E+01 -0.12774069235E+00  0.95650980087E+00  0.90299562763E+01  0.00000000000E+00 0. -1.
</event>
<event>
 8    1  0.5542925E-011  0.9118800E+02  0.7816164E-02  0.1184000E+00
        -11   -1    0    0    0    0  0.00000000000E+00  0.00000000000E+00  0.45593999997E+02  0.45594000000E+02  0.51100000000E-03 0. -1.
         11   -1    0    0    0    0 -0.00000000000E+00 -0.00000000000E+00 -0.45593999997E+02  0.45594000000E+02  0.51100000000E-03 0.  1.
         23    2    1    2    0    0  0.00000000000E+00 -0.17763568394E-14  0.71054273576E-14  0.91188000000E+02  0.91188000000E+02 0.  0.
    9900012    2    3    3    0    0  0.16536276265E+02 -0.10732504493E+02  0.38665084481E+02  0.47787264484E+02  0.19999970090E+02 0.  0.
        -12    1    3    3    0    0 -0.16536276265E+02  0.10732504493E+02 -0.38665084481E+02  0.43400735516E+02  0.00000000000E+00 0.  1.
         11    1    4    4    0    0  0.52144797919E+01 -0.11592945889E+01  0.21956791240E+02  0.22597244196E+02  0.51100000000E-03 0. -1.
        -11    1    4    4    0    0  0.75744664494E+01 -0.78320164024E+01  0.36454708919E+01  0.11489233273E+02  0.51100000000E-03 0.  1.
        -12    1    4    4    0    0  0.37473300237E+01 -0.17411935020E+01  0.13062822349E+02  0.13700787015E+02  0.00000000000E+00 0.  1.
</event>
<event>
 8    1  0.5542925E-011  0.9118800E+02  0.7816164E-02  0.1184000E+00
        -11   -1    0    0    0    0  0.00000000000E+00  0.00000000000E+00  0.45593999997E+02  0.45594000000E+02  0.51100000000E-03 0. -1.
         11   -1    0    0    0    0 -0.00000000000E+00 -0.00000000000E+00 -0.45593999997E+02  0.45594000000E+02  0.51100000000E-03 0.  1.
         23    2    1    2    0    0  0.71054273576E-14  0.35527136788E-14  0.17763568394E-14  0.91188000000E+02  0.91188000000E+02 0.  0.
    9900012    2    3    3    0    0 -0.32066821201E+02 -0.25816163739E+02 -0.13742943861E+02  0.47787264545E+02  0.19999970364E+02 0.  0.
         12    1    3    3    0    0  0.32066821201E+02  0.25816163739E+02  0.13742943861E+02  0.43400735455E+02  0.00000000000E+00 0. -1.
         11    1    4    4    0    0 -0.31573633411E+02 -0.24239362824E+02 -0.12931565873E+02  0.41852914272E+02  0.51100000000E-03 0. -1.
        -11    1    4    4    0    0 -0.13388508234E+01  0.14019391209E+01 -0.18387750364E+01  0.26718998337E+01  0.51100000000E-03 0.  1.
         12    1    4    4    0    0  0.84566303384E+00 -0.29787400360E+01  0.10273970487E+01  0.32624504387E+01  0.00000000000E+00 0. -1.
</event>
<event>
 8    1  0.5542925E-011  0.9118800E+02  0.7816164E-02  0.1184000E+00
        -11   -1    0    0    0    0  0.00000000000E+00  0.00000000000E+00  0.45593999997E+02  0.45594000000E+02  0.51100000000E-03 0. -1.
         11   -1    0    0    0    0 -0.00000000000E+00 -0.00000000000E+00 -0.45593999997E+02  0.45594000000E+02  0.51100000000E-03 0.  1.
         23    2    1    2    0    0  0.35527136788E-14 -0.17763568394E-14 -0.35527136788E-14  0.91188000000E+02  0.91188000000E+02 0.  0.
    9900012    2    3    3    0    0 -0.28028514246E+02  0.11262942752E+02 -0.31163622981E+02  0.47787275495E+02  0.20000020291E+02 0.  0.
         12    1    3    3    0    0  0.28028514246E+02 -0.11262942752E+02  0.31163622981E+02  0.43400724505E+02  0.00000000000E+00 0. -1.
         11    1    4    4    0    0 -0.19074022220E+02  0.63902393779E+01 -0.13805255880E+02  0.24397511617E+02  0.51100000000E-03 0. -1.
        -11    1    4    4    0    0 -0.10867855501E+02  0.62774168996E+01 -0.16766330324E+02  0.20943401799E+02  0.51100000000E-03 0.  1.
         12    1    4    4    0    0  0.19133634743E+01 -0.14047135258E+01 -0.59203677743E+00  0.24463620788E+01  0.00000000000E+00 0. -1.
</event>
<event>
 8    1  0.5542925E-011  0.9118800E+02  0.7816164E-02  0.1184000E+00
        -11   -1    0    0    0    0  0.00000000000E+00  0.00000000000E+00  0.45593999997E+02  0.45594000000E+02  0.51100000000E-03 0. -1.
         11   -1    0    0    0    0 -0.00000000000E+00 -0.00000000000E+00 -0.45593999997E+02  0.45594000000E+02  0.51100000000E-03 0.  1.
         23    2    1    2    0    0 -0.17763568394E-14  0.00000000000E+00  0.00000000000E+00  0.91188000000E+02  0.91188000000E+02 0.  0.
    9900012    2    3    3    0    0  0.14579885779E+02 -0.33945095224E+02  0.22776754718E+02  0.47787272879E+02  0.20000008365E+02 0.  0.
        -12    1    3    3    0    0 -0.14579885779E+02  0.33945095224E+02 -0.22776754718E+02  0.43400727121E+02  0.00000000000E+00 0.  1.
         11    1    4    4    0    0  0.35759639282E+01 -0.12479165782E+02  0.19281069583E+01  0.13123821598E+02  0.51100000000E-03 0. -1.
        -11    1    4    4    0    0 -0.21303625933E+01 -0.10089561141E+02  0.80701368530E+01  0.13094456762E+02  0.51100000000E-03 0.  1.
         12    1    4    4    0    0  0.13134284444E+02 -0.11376368302E+02  0.12778510907E+02  0.21568994520E+02  0.00000000000E+00 0. -1.
</event>
<event>
 8    1  0.5542925E-011  0.9118800E+02  0.7816164E-02  0.1184000E+00
        -11   -1    0    0    0    0  0.00000000000E+00  0.00000000000E+00  0.45593999997E+02  0.45594000000E+02  0.51100000000E-03 0. -1.
         11   -1    0    0    0    0 -0.00000000000E+00 -0.00000000000E+00 -0.45593999997E+02  0.45594000000E+02  0.51100000000E-03 0.  1.
         23    2    1    2    0    0  0.00000000000E+00  0.35527136788E-14  0.00000000000E+00  0.91188000000E+02  0.91188000000E+02 0.  0.
    9900012    2    3    3    0    0 -0.19248793848E+02  0.29743978256E+02 -0.25067974307E+02  0.47787266792E+02  0.19999980613E+02 0.  0.
         12    1    3    3    0    0  0.19248793848E+02 -0.29743978256E+02  0.25067974307E+02  0.43400733208E+02  0.00000000000E+00 0. -1.
         11    1    4    4    0    0 -0.80378671181E+01  0.10731042719E+00 -0.65823240924E+01  0.10389697496E+02  0.51100000000E-03 0. -1.
        -11    1    4    4    0    0 -0.47878561133E+01  0.11720062507E+02 -0.33942167700E+01  0.13107407794E+02  0.51100000000E-03 0.  1.
        -12    1    4    4    0    0 -0.64230706170E+01  0.17916605322E+02 -0.15091433444E+02  0.24290161502E+02  0.00000000000E+00 0.  1.
</event>
<event>
 8    1  0.5542925E-011  0.9118800E+02  0.7816164E-02  0.1184000E+00
        -11   -1    0    0    0    0  0.00000000000E+00  0.00000000000E+00  0.45593999997E+02  0.45594000000E+02  0.51100000000E-03 0. -1.
         11   -1    0    0    0    0 -0.00000000000E+00 -0.00000000000E+00 -0.45593999997E+02  0.45594000000E+02  0.51100000000E-03 0.  1.
         23    2    1    2    0    0 -0.71054273576E-14  0.00000000000E+00  0.00000000000E+00  0.91188000000E+02  0.91188000000E+02 0.  0.
    9900012    2    3    3    0    0 -0.34927077314E+02 -0.23904549771E+02  0.96070139976E+01  0.47787274805E+02  0.20000017146E+02 0.  0.
        -12    1    3    3    0    0  0.34927077314E+02  0.23904549771E+02 -0.96070139976E+01  0.43400725195E+02  0.00000000000E+00 0.  1.
         11    1    4    4    0    0 -0.19882182138E+02 -0.10405979251E+02  0.58773334853E+01  0.23197599443E+02  0.51100000000E-03 0. -1.
        -11    1    4    4    0    0 -0.13127108192E+02 -0.89108220438E+01 -0.30757614607E+01  0.16161188935E+02  0.51100000000E-03 0.  1.
         12    1    4    4    0    0 -0.19177869844E+01 -0.45877484768E+01  0.68054419731E+01  0.84284864272E+01  0.00000000000E+00 0. -1.
</event>
<event>
 8    1  0.5542925E-011  0.9118800E+02  0.7816164E-02  0.1184000E+00
        -11   -1    0    0    0    0  0.00000000000E+00  0.00000000000E+00  0.45593999997E+02  0.45594000000E+02  0.51100000000E-03 0. -1.
         11   -1    0    0    0    0 -0.00000000000E+00 -0.00000000000E+00 -0.45593999997E+02  0.45594000000E+02  0.51100000000E-03 0.  1.
         23    2    1    2    0    0  0.17763568394E-14 -0.11102230246E-15  0.00000000000E+00  0.91188000000E+02  0.91188000000E+02 0.  0.
    9900012    2    3    3    0    0 -0.93989190560E+01  0.50853645117E+00  0.42367730863E+02  0.47787275269E+02  0.20000019260E+02 0.  0.
        -12    1    3    3    0    0  0.93989190560E+01 -0.50853645117E+00 -0.42367730863E+02  0.43400724731E+02  0.00000000000E+00 0.  1.
         11    1    4    4    0    0 -0.89770630806E+01  0.14467484596E+01  0.22370535457E+02  0.24147910874E+02  0.51100000000E-03 0. -1.
        -11    1    4    4    0    0 -0.45764024463E+01  0.40519073404E+01  0.98611047913E+01  0.11601844699E+02  0.51100000000E-03 0.  1.
         12    1    4    4    0    0  0.41545464709E+01 -0.49901193489E+01  0.10136090614E+02  0.12037519696E+02  0.00000000000E+00 0. -1.
</event>
<event>
 8    1  0.5542925E-011  0.9118800E+02  0.7816164E-02  0.1184000E+00
        -11   -1    0    0    0    0  0.00000000000E+00  0.00000000000E+00  0.45593999997E+02  0.45594000000E+02  0.51100000000E-03 0. -1.
         11   -1    0    0    0    0 -0.00000000000E+00 -0.00000000000E+00 -0.45593999997E+02  0.45594000000E+02  0.51100000000E-03 0.  1.
         23    2    1    2    0    0  0.00000000000E+00  0.00000000000E+00  0.00000000000E+00  0.91188000000E+02  0.91188000000E+02 0.  0.
    9900012    2    3    3    0    0  0.58098424659E+01 -0.20181839497E+02  0.37981088465E+02  0.47787262726E+02  0.19999962072E+02 0.  0.
        -12    1    3    3    0    0 -0.58098424659E+01  0.20181839497E+02 -0.37981088465E+02  0.43400737274E+02  0.00000000000E+00 0.  1.
         11    1    4    4    0    0  0.50626546458E+01 -0.18348980119E+02  0.19007336158E+02  0.26899709507E+02  0.51100000000E-03 0. -1.
        -11    1    4    4    0    0  0.45420729326E+01 -0.17924797980E+01  0.94877929939E+01  0.10670596352E+02  0.51100000000E-03 0.  1.
        -12    1    4    4    0    0 -0.37948851124E+01 -0.40379579590E-01  0.94859593130E+01  0.10216956867E+02  0.00000000000E+00 0.  1.
</event>
<event>
 8    1  0.5542925E-011  0.9118800E+02  0.7816164E-02  0.1184000E+00
        -11   -1    0    0    0    0  0.00000000000E+00  0.00000000000E+00  0.45593999997E+02  0.45594000000E+02  0.51100000000E-03 0. -1.
         11   -1    0    0    0    0 -0.00000000000E+00 -0.00000000000E+00 -0.45593999997E+02  0.45594000000E+02  0.51100000000E-03 0.  1.
         23    2    1    2    0    0  0.00000000000E+00  0.00000000000E+00 -0.71054273576E-14  0.91188000000E+02  0.91188000000E+02 0.  0.
    9900012    2    3    3    0    0 -0.48669776815E+01 -0.32228109833E+02  0.28658041412E+02  0.47787287186E+02  0.20000073597E+02 0.  0.
        -12    1    3    3    0    0  0.48669776815E+01  0.32228109833E+02 -0.28658041412E+02  0.43400712814E+02  0.00000000000E+00 0.  1.
         11    1    4    4    0    0 -0.28675846787E+01 -0.59263475537E+01  0.70937138926E+01  0.96780893914E+01  0.51100000000E-03 0. -1.
        -11    1    4    4    0    0 -0.62709736024E+01 -0.35325687139E+01  0.12657018016E+01  0.73079513513E+01  0.51100000000E-03 0.  1.
         12    1    4    4    0    0  0.42715805997E+01 -0.22769193565E+02  0.20298625718E+02  0.30801246444E+02  0.00000000000E+00 0. -1.
</event>
<event>
 8    1  0.5542925E-011  0.9118800E+02  0.7816164E-02  0.1184000E+00
        -11   -1    0    0    0    0  0.00000000000E+00  0.00000000000E+00  0.45593999997E+02  0.45594000000E+02  0.51100000000E-03 0. -1.
         11   -1    0    0    0    0 -0.00000000000E+00 -0.00000000000E+00 -0.45593999997E+02  0.45594000000E+02  0.51100000000E-03 0.  1.
         23    2    1    2    0    0  0.17763568394E-14  0.00000000000E+00  0.71054273576E-14  0.91188000000E+02  0.91188000000E+02 0.  0.
    9900012    2    3    3    0    0  0.99955335518E+01  0.11288280534E+02  0.40697510724E+02  0.47787270196E+02  0.19999996132E+02 0.  0.
        -12    1    3    3    0    0 -0.99955335518E+01 -0.11288280534E+02 -0.40697510724E+02  0.43400729804E+02  0.00000000000E+00 0.  1.
         11    1    4    4    0    0  0.26414806800E+01  0.17259106040E+01  0.44684945702E+01  0.54702496818E+01  0.51100000000E-03 0. -1.
        -11    1    4    4    0    0  0.38553472072E+01 -0.20679697679E+01  0.29368876862E+00  0.43847981029E+01  0.51100000000E-03 0.  1.
        -12    1    4    4    0    0  0.34987056646E+01  0.11630339698E+02  0.35935327385E+02  0.37932222411E+02  0.00000000000E+00 0.  1.
</event>
<event>
 8    1  0.5542925E-011  0.9118800E+02  0.7816164E-02  0.1184000E+00
        -11   -1    0    0    0    0  0.00000000000E+00  0.00000000000E+00  0.45593999997E+02  0.45594000000E+02  0.51100000000E-03 0.  1.
         11   -1    0    0    0    0 -0.00000000000E+00 -0.00000000000E+00 -0.45593999997E+02  0.45594000000E+02  0.51100000000E-03 0. -1.
         23    2    1    2    0    0  0.00000000000E+00  0.00000000000E+00  0.00000000000E+00  0.91188000000E+02  0.91188000000E+02 0.  0.
    9900012    2    3    3    0    0 -0.20909946904E+02 -0.37085547300E+02 -0.84296844225E+01  0.47787271002E+02  0.19999999807E+02 0.  0.
         12    1    3    3    0    0  0.20909946904E+02  0.37085547300E+02  0.84296844225E+01  0.43400728998E+02  0.00000000000E+00 0. -1.
         11    1    4    4    0    0 -0.30545252775E+01 -0.13231405714E+02  0.87539032392E-01  0.13579686491E+02  0.51100000000E-03 0.  1.
        -11    1    4    4    0    0 -0.25105414725E+01 -0.71277091266E+01  0.37170529455E+01  0.84216114099E+01  0.51100000000E-03 0. -1.
         12    1    4    4    0    0 -0.15344880153E+02 -0.16726432460E+02 -0.12234276400E+02  0.25785973102E+02  0.00000000000E+00 0. -1.
</event>
<event>
 8    1  0.5542925E-011  0.9118800E+02  0.7816164E-02  0.1184000E+00
        -11   -1    0    0    0    0  0.00000000000E+00  0.00000000000E+00  0.45593999997E+02  0.45594000000E+02  0.51100000000E-03 0. -1.
         11   -1    0    0    0    0 -0.00000000000E+00 -0.00000000000E+00 -0.45593999997E+02  0.45594000000E+02  0.51100000000E-03 0.  1.
         23    2    1    2    0    0  0.17763568394E-14  0.00000000000E+00 -0.35527136788E-14  0.91188000000E+02  0.91188000000E+02 0.  0.
    9900012    2    3    3    0    0  0.12846332500E+02 -0.35894851349E+02 -0.20740169321E+02  0.47787271487E+02  0.20000002016E+02 0.  0.
         12    1    3    3    0    0 -0.12846332500E+02  0.35894851349E+02  0.20740169321E+02  0.43400728513E+02  0.00000000000E+00 0. -1.
         11    1    4    4    0    0  0.59542616049E+01 -0.26273647837E+01 -0.45877732476E+01  0.79626591411E+01  0.51100000000E-03 0. -1.
        -11    1    4    4    0    0 -0.62710988260E+00 -0.29006814110E+00 -0.37273944444E+01  0.37908938176E+01  0.51100000000E-03 0.  1.
        -12    1    4    4    0    0  0.75191807774E+01 -0.32977418424E+02 -0.12425001629E+02  0.36033718528E+02  0.00000000000E+00 0.  1.
</event>
<event>
 8    1  0.5542925E-011  0.9118800E+02  0.7816164E-02  0.1184000E+00
        -11   -1    0    0    0    0  0.00000000000E+00  0.00000000000E+00  0.45593999997E+02  0.45594000000E+02  0.51100000000E-03 0. -1.
         11   -1    0    0    0    0 -0.00000000000E+00 -0.00000000000E+00 -0.45593999997E+02  0.45594000000E+02  0.51100000000E-03 0.  1.
         23    2    1    2    0    0  0.00000000000E+00  0.00000000000E+00  0.00000000000E+00  0.91188000000E+02  0.91188000000E+02 0.  0.
    9900012    2    3    3    0    0 -0.85796649421E+01  0.36130396590E+02 -0.22463468338E+02  0.47787267079E+02  0.19999981922E+02 0.  0.
         12    1    3    3    0    0  0.85796649421E+01 -0.36130396590E+02  0.22463468338E+02  0.43400732921E+02  0.00000000000E+00 0. -1.
         11    1    4    4    0    0 -0.17228458380E+01  0.33751497935E+01  0.83515723301E+00  0.38803764991E+01  0.51100000000E-03 0. -1.
        -11    1    4    4    0    0 -0.43801669918E+01  0.56452185288E+01 -0.12936351303E+02  0.14778482344E+02  0.51100000000E-03 0.  1.
        -12    1    4    4    0    0 -0.24766521123E+01  0.27110028267E+02 -0.10362274269E+02  0.29128408236E+02  0.00000000000E+00 0.  1.
</event>
<event>
 8    1  0.5542925E-011  0.9118800E+02  0.7816164E-02  0.1184000E+00
        -11   -1    0    0    0    0  0.00000000000E+00  0.00000000000E+00  0.45593999997E+02  0.45594000000E+02  0.51100000000E-03 0. -1.
         11   -1    0    0    0    0 -0.00000000000E+00 -0.00000000000E+00 -0.45593999997E+02  0.45594000000E+02  0.51100000000E-03 0.  1.
         23    2    1    2    0    0  0.00000000000E+00  0.00000000000E+00  0.00000000000E+00  0.91188000000E+02  0.91188000000E+02 0.  0.
    9900012    2    3    3    0    0  0.59879899903E+01  0.42702284285E+02  0.49276997141E+01  0.47787270378E+02  0.19999996960E+02 0.  0.
         12    1    3    3    0    0 -0.59879899903E+01 -0.42702284285E+02 -0.49276997141E+01  0.43400729622E+02  0.00000000000E+00 0. -1.
         11    1    4    4    0    0 -0.60243364730E+00  0.31485654973E+02 -0.12191968824E+01  0.31515009705E+02  0.51100000000E-03 0. -1.
        -11    1    4    4    0    0  0.62145680233E+01  0.11593623530E+02  0.35547972186E+01  0.13626061272E+02  0.51100000000E-03 0.  1.
        -12    1    4    4    0    0  0.37585561425E+00 -0.37699421810E+00  0.25920993780E+01  0.26461994007E+01  0.00000000000E+00 0.  1.
</event>
<event>
 8    1  0.5542925E-011  0.9118800E+02  0.7816164E-02  0.1184000E+00
        -11   -1    0    0    0    0  0.00000000000E+00  0.00000000000E+00  0.45593999997E+02  0.45594000000E+02  0.51100000000E-03 0. -1.
         11   -1    0    0    0    0 -0.00000000000E+00 -0.00000000000E+00 -0.45593999997E+02  0.45594000000E+02  0.51100000000E-03 0.  1.
         23    2    1    2    0    0  0.00000000000E+00  0.17763568394E-14  0.00000000000E+00  0.91188000000E+02  0.91188000000E+02 0.  0.
    9900012    2    3    3    0    0  0.32203040228E+02  0.14964851413E+02  0.24952765700E+02  0.47787273119E+02  0.20000009459E+02 0.  0.
        -12    1    3    3    0    0 -0.32203040228E+02 -0.14964851413E+02 -0.24952765700E+02  0.43400726881E+02  0.00000000000E+00 0.  1.
         11    1    4    4    0    0  0.96951914542E+01  0.85750195099E+01  0.13679189875E+02  0.18832098471E+02  0.51100000000E-03 0. -1.
        -11    1    4    4    0    0  0.18251927786E+02  0.85318756837E+01  0.12896643212E+02  0.23921730226E+02  0.51100000000E-03 0.  1.
        -12    1    4    4    0    0  0.42559209873E+01 -0.21420437808E+01 -0.16230673867E+01  0.50334444221E+01  0.00000000000E+00 0.  1.
</event>
<event>
 8    1  0.5542925E-011  0.9118800E+02  0.7816164E-02  0.1184000E+00
        -11   -1    0    0    0    0  0.00000000000E+00  0.00000000000E+00  0.45593999997E+02  0.45594000000E+02  0.51100000000E-03 0. -1.
         11   -1    0    0    0    0 -0.00000000000E+00 -0.00000000000E+00 -0.45593999997E+02  0.45594000000E+02  0.51100000000E-03 0.  1.
         23    2    1    2    0    0 -0.44408920985E-15  0.00000000000E+00  0.00000000000E+00  0.91188000000E+02  0.91188000000E+02 0.  0.
    9900012    2    3    3    0    0  0.21306325775E+01  0.43327426091E+02 -0.13482973829E+01  0.47787270137E+02  0.19999995862E+02 0.  0.
         12    1    3    3    0    0 -0.21306325775E+01 -0.43327426091E+02  0.13482973829E+01  0.43400729863E+02  0.00000000000E+00 0. -1.
         11    1    4    4    0    0 -0.14809065094E+01  0.25498565300E+02 -0.18414647594E+01  0.25607829060E+02  0.51100000000E-03 0. -1.
        -11    1    4    4    0    0 -0.19735525718E+01  0.15981955463E+02 -0.91975726999E+00  0.16129592799E+02  0.51100000000E-03 0.  1.
         12    1    4    4    0    0  0.55850916587E+01  0.18469053279E+01  0.14129246465E+01  0.60498482777E+01  0.00000000000E+00 0. -1.
</event>
<event>
 8    1  0.5542925E-011  0.9118800E+02  0.7816164E-02  0.1184000E+00
        -11   -1    0    0    0    0  0.00000000000E+00  0.00000000000E+00  0.45593999997E+02  0.45594000000E+02  0.51100000000E-03 0. -1.
         11   -1    0    0    0    0 -0.00000000000E+00 -0.00000000000E+00 -0.45593999997E+02  0.45594000000E+02  0.51100000000E-03 0.  1.
         23    2    1    2    0    0  0.00000000000E+00  0.00000000000E+00  0.00000000000E+00  0.91188000000E+02  0.91188000000E+02 0.  0.
    9900012    2    3    3    0    0  0.26551354201E+02 -0.87502524977E+01 -0.33197619012E+02  0.47787271472E+02  0.20000001950E+02 0.  0.
         12    1    3    3    0    0 -0.26551354201E+02  0.87502524977E+01  0.33197619012E+02  0.43400728528E+02  0.00000000000E+00 0. -1.
         11    1    4    4    0    0  0.11419045713E+00 -0.38373438088E+01 -0.35313499219E+01  0.52161939668E+01  0.51100000000E-03 0. -1.
        -11    1    4    4    0    0  0.19447558243E+02 -0.97161282123E+01 -0.18476439457E+02  0.28530500947E+02  0.51100000000E-03 0.  1.
         12    1    4    4    0    0  0.69896055010E+01  0.48032195233E+01 -0.11189829633E+02  0.14040576558E+02  0.00000000000E+00 0. -1.
</event>
<event>
 8    1  0.5542925E-011  0.9118800E+02  0.7816164E-02  0.1184000E+00
        -11   -1    0    0    0    0  0.00000000000E+00  0.00000000000E+00  0.45593999997E+02  0.45594000000E+02  0.51100000000E-03 0. -1.
         11   -1    0    0    0    0 -0.00000000000E+00 -0.00000000000E+00 -0.45593999997E+02  0.45594000000E+02  0.51100000000E-03 0.  1.
         23    2    1    2    0    0  0.00000000000E+00  0.00000000000E+00  0.00000000000E+00  0.91188000000E+02  0.91188000000E+02 0.  0.
    9900012    2    3    3    0    0 -0.13108824171E+02 -0.17765111519E+02 -0.37365531660E+02  0.47787269423E+02  0.19999992606E+02 0.  0.
         12    1    3    3    0    0  0.13108824171E+02  0.17765111519E+02  0.37365531660E+02  0.43400730577E+02  0.00000000000E+00 0. -1.
         11    1    4    4    0    0 -0.11247088297E+02 -0.21668347269E+01 -0.84232242459E+01  0.14217695835E+02  0.51100000000E-03 0. -1.
        -11    1    4    4    0    0 -0.15303054363E-02 -0.13460942710E+01 -0.10664031577E+00  0.13503127587E+01  0.51100000000E-03 0.  1.
        -12    1    4    4    0    0 -0.18602055680E+01 -0.14252182521E+02 -0.28835667098E+02  0.32219260829E+02  0.00000000000E+00 0.  1.
</event>
<event>
 8    1  0.5542925E-011  0.9118800E+02  0.7816164E-02  0.1184000E+00
        -11   -1    0    0    0    0  0.00000000000E+00  0.00000000000E+00  0.45593999997E+02  0.45594000000E+02  0.51100000000E-03 0. -1.
         11   -1    0    0    0    0 -0.00000000000E+00 -0.00000000000E+00 -0.45593999997E+02  0.45594000000E+02  0.51100000000E-03 0.  1.
         23    2    1    2    0    0  0.00000000000E+00  0.00000000000E+00 -0.35527136788E-14  0.91188000000E+02  0.91188000000E+02 0.  0.
    9900012    2    3    3    0    0 -0.18004829085E+02 -0.23492267423E+02 -0.31742135401E+02  0.47787266609E+02  0.19999979779E+02 0.  0.
         12    1    3    3    0    0  0.18004829085E+02  0.23492267423E+02  0.31742135401E+02  0.43400733391E+02  0.00000000000E+00 0. -1.
         11    1    4    4    0    0 -0.28767152028E+01 -0.65276336492E+01 -0.10571841384E+02  0.12753404327E+02  0.51100000000E-03 0.  1.
        -11    1    4    4    0    0 -0.16460586981E+02 -0.71288572025E+01 -0.12610480262E+02  0.21927055011E+02  0.51100000000E-03 0. -1.
         12    1    4    4    0    0  0.13324730992E+01 -0.98357765716E+01 -0.85598137550E+01  0.13106807271E+02  0.00000000000E+00 0. -1.
</event>
<event>
 8    1  0.5542925E-011  0.9118800E+02  0.7816164E-02  0.1184000E+00
        -11   -1    0    0    0    0  0.00000000000E+00  0.00000000000E+00  0.45593999997E+02  0.45594000000E+02  0.51100000000E-03 0. -1.
         11   -1    0    0    0    0 -0.00000000000E+00 -0.00000000000E+00 -0.45593999997E+02  0.45594000000E+02  0.51100000000E-03 0.  1.
         23    2    1    2    0    0  0.00000000000E+00  0.35527136788E-14  0.71054273576E-14  0.91188000000E+02  0.91188000000E+02 0.  0.
    9900012    2    3    3    0    0 -0.97559376133E+01 -0.26175967380E+02 -0.33215414176E+02  0.47787270445E+02  0.19999997268E+02 0.  0.
         12    1    3    3    0    0  0.97559376133E+01  0.26175967380E+02  0.33215414176E+02  0.43400729555E+02  0.00000000000E+00 0. -1.
         11    1    4    4    0    0  0.22944993045E+01 -0.12176113085E+02 -0.63374693045E+01  0.13917110848E+02  0.51100000000E-03 0. -1.
        -11    1    4    4    0    0 -0.87107598419E+01 -0.53277661762E+01 -0.85377864548E+01  0.13310004781E+02  0.51100000000E-03 0.  1.
        -12    1    4    4    0    0 -0.33396770759E+01 -0.86720881189E+01 -0.18340158417E+02  0.20560154816E+02  0.00000000000E+00 0.  1.
</event>
<event>
 8    1  0.5542925E-011  0.9118800E+02  0.7816164E-02  0.1184000E+00
        -11   -1    0    0    0    0  0.00000000000E+00  0.00000000000E+00  0.45593999997E+02  0.45594000000E+02  0.51100000000E-03 0. -1.
         11   -1    0    0    0    0 -0.00000000000E+00 -0.00000000000E+00 -0.45593999997E+02  0.45594000000E+02  0.51100000000E-03 0.  1.
         23    2    1    2    0    0  0.00000000000E+00  0.00000000000E+00  0.00000000000E+00  0.91188000000E+02  0.91188000000E+02 0.  0.
    9900012    2    3    3    0    0 -0.17202670838E+02  0.44760976026E+01  0.39593624486E+02  0.47787280724E+02  0.20000044133E+02 0.  0.
        -12    1    3    3    0    0  0.17202670838E+02 -0.44760976026E+01 -0.39593624486E+02  0.43400719276E+02  0.00000000000E+00 0.  1.
         11    1    4    4    0    0 -0.12134527636E+02  0.14144725929E+01  0.21206252777E+02  0.24473509163E+02  0.51100000000E-03 0. -1.
        -11    1    4    4    0    0 -0.37791873305E+01 -0.21590177189E+00  0.19306377172E+02  0.19673969356E+02  0.51100000000E-03 0.  1.
        -12    1    4    4    0    0 -0.12889558718E+01  0.32775267817E+01 -0.91900546350E+00  0.36398022042E+01  0.00000000000E+00 0.  1.
</event>
<event>
 8    1  0.5542925E-011  0.9118800E+02  0.7816164E-02  0.1184000E+00
        -11   -1    0    0    0    0  0.00000000000E+00  0.00000000000E+00  0.45593999997E+02  0.45594000000E+02  0.51100000000E-03 0. -1.
         11   -1    0    0    0    0 -0.00000000000E+00 -0.00000000000E+00 -0.45593999997E+02  0.45594000000E+02  0.51100000000E-03 0.  1.
         23    2    1    2    0    0 -0.17763568394E-14  0.00000000000E+00  0.00000000000E+00  0.91188000000E+02  0.91188000000E+02 0.  0.
    9900012    2    3    3    0    0 -0.13886645199E+02  0.17906261520E+01 -0.41080140986E+02  0.47787271431E+02  0.20000001763E+02 0.  0.
         12    1    3    3    0    0  0.13886645199E+02 -0.17906261520E+01  0.41080140986E+02  0.43400728569E+02  0.00000000000E+00 0. -1.
         11    1    4    4    0    0 -0.20549382179E+01  0.13713320201E+01 -0.14208873394E+02  0.14422045832E+02  0.51100000000E-03 0. -1.
        -11    1    4    4    0    0  0.27549616919E+01  0.14108971930E+01 -0.39485252194E+00  0.31203130593E+01  0.51100000000E-03 0.  1.
         12    1    4    4    0    0 -0.14586668672E+02 -0.99160306106E+00 -0.26476415070E+02  0.30244912540E+02  0.00000000000E+00 0. -1.
</event>
<event>
 8    1  0.5542925E-011  0.9118800E+02  0.7816164E-02  0.1184000E+00
        -11   -1    0    0    0    0  0.00000000000E+00  0.00000000000E+00  0.45593999997E+02  0.45594000000E+02  0.51100000000E-03 0. -1.
         11   -1    0    0    0    0 -0.00000000000E+00 -0.00000000000E+00 -0.45593999997E+02  0.45594000000E+02  0.51100000000E-03 0.  1.
         23    2    1    2    0    0  0.00000000000E+00  0.00000000000E+00 -0.35527136788E-14  0.91188000000E+02  0.91188000000E+02 0.  0.
    9900012    2    3    3    0    0  0.10648143363E+02  0.32170400397E+02 -0.27116520004E+02  0.47787271021E+02  0.19999999893E+02 0.  0.
         12    1    3    3    0    0 -0.10648143363E+02 -0.32170400397E+02  0.27116520004E+02  0.43400728979E+02  0.00000000000E+00 0. -1.
         11    1    4    4    0    0 -0.27146131591E+01  0.50010036452E+01 -0.20861651497E+01  0.60606309371E+01  0.51100000000E-03 0. -1.
        -11    1    4    4    0    0  0.63405329671E+01  0.38970853233E+01 -0.93748639739E+00  0.75012341205E+01  0.51100000000E-03 0.  1.
        -12    1    4    4    0    0  0.70222235555E+01  0.23272311429E+02 -0.24092868457E+02  0.34225405963E+02  0.00000000000E+00 0.  1.
</event>
<event>
 8    1  0.5542925E-011  0.9118800E+02  0.7816164E-02  0.1184000E+00
        -11   -1    0    0    0    0  0.00000000000E+00  0.00000000000E+00  0.45593999997E+02  0.45594000000E+02  0.51100000000E-03 0. -1.
         11   -1    0    0    0    0 -0.00000000000E+00 -0.00000000000E+00 -0.45593999997E+02  0.45594000000E+02  0.51100000000E-03 0.  1.
         23    2    1    2    0    0  0.35527136788E-14  0.44408920985E-15  0.71054273576E-14  0.91188000000E+02  0.91188000000E+02 0.  0.
    9900012    2    3    3    0    0  0.19222946408E+02  0.13930747687E+01  0.38886472915E+02  0.47787307590E+02  0.20000166625E+02 0.  0.
        -12    1    3    3    0    0 -0.19222946408E+02 -0.13930747687E+01 -0.38886472915E+02  0.43400692410E+02  0.00000000000E+00 0.  1.
         11    1    4    4    0    0  0.80108249212E+01 -0.32957796637E+01  0.32428734220E+02  0.33565730781E+02  0.51100000000E-03 0. -1.
        -11    1    4    4    0    0  0.34972151515E+01  0.33328837881E+01  0.22396690329E+01  0.53249174452E+01  0.51100000000E-03 0.  1.
        -12    1    4    4    0    0  0.77149063356E+01  0.13559706442E+01  0.42180696620E+01  0.88966593634E+01  0.00000000000E+00 0.  1.
</event>
<event>
 8    1  0.5542925E-011  0.9118800E+02  0.7816164E-02  0.1184000E+00
        -11   -1    0    0    0    0  0.00000000000E+00  0.00000000000E+00  0.45593999997E+02  0.45594000000E+02  0.51100000000E-03 0. -1.
         11   -1    0    0    0    0 -0.00000000000E+00 -0.00000000000E+00 -0.45593999997E+02  0.45594000000E+02  0.51100000000E-03 0.  1.
         23    2    1    2    0    0  0.00000000000E+00  0.00000000000E+00  0.71054273576E-14  0.91188000000E+02  0.91188000000E+02 0.  0.
    9900012    2    3    3    0    0  0.99776136270E+01 -0.83006365925E+01 -0.41414613507E+02  0.47787267823E+02  0.19999985314E+02 0.  0.
         12    1    3    3    0    0 -0.99776136270E+01  0.83006365925E+01  0.41414613507E+02  0.43400732177E+02  0.00000000000E+00 0. -1.
         11    1    4    4    0    0  0.56686337823E+01  0.14727212827E+01 -0.17148918241E+02  0.18121471078E+02  0.51100000000E-03 0. -1.
        -11    1    4    4    0    0  0.77164923292E+01 -0.70967514653E+01 -0.22794517656E+02  0.25089802125E+02  0.51100000000E-03 0.  1.
         12    1    4    4    0    0 -0.34075124845E+01 -0.26766064100E+01 -0.14711776096E+01  0.45759946203E+01  0.00000000000E+00 0. -1.
</event>
<event>
 8    1  0.5542925E-011  0.9118800E+02  0.7816164E-02  0.1184000E+00
        -11   -1    0    0    0    0  0.00000000000E+00  0.00000000000E+00  0.45593999997E+02  0.45594000000E+02  0.51100000000E-03 0. -1.
         11   -1    0    0    0    0 -0.00000000000E+00 -0.00000000000E+00 -0.45593999997E+02  0.45594000000E+02  0.51100000000E-03 0.  1.
         23    2    1    2    0    0  0.35527136788E-14  0.00000000000E+00  0.00000000000E+00  0.91188000000E+02  0.91188000000E+02 0.  0.
    9900012    2    3    3    0    0 -0.26983631288E+02  0.99943152276E+01  0.32490306051E+02  0.47787277868E+02  0.20000031110E+02 0.  0.
        -12    1    3    3    0    0  0.26983631288E+02 -0.99943152276E+01 -0.32490306051E+02  0.43400722132E+02  0.00000000000E+00 0.  1.
         11    1    4    4    0    0 -0.31537965060E+00  0.32225699047E+01  0.35539092803E+01  0.48077741781E+01  0.51100000000E-03 0. -1.
        -11    1    4    4    0    0  0.37955103995E+00  0.45059189257E+01  0.29247242455E+01  0.53852926133E+01  0.51100000000E-03 0.  1.
         12    1    4    4    0    0 -0.27047802677E+02  0.22658263972E+01  0.26011672525E+02  0.37594211076E+02  0.00000000000E+00 0. -1.
</event>
<event>
 8    1  0.5542925E-011  0.9118800E+02  0.7816164E-02  0.1184000E+00
        -11   -1    0    0    0    0  0.00000000000E+00  0.00000000000E+00  0.45593999997E+02  0.45594000000E+02  0.51100000000E-03 0. -1.
         11   -1    0    0    0    0 -0.00000000000E+00 -0.00000000000E+00 -0.45593999997E+02  0.45594000000E+02  0.51100000000E-03 0.  1.
         23    2    1    2    0    0  0.00000000000E+00  0.00000000000E+00  0.00000000000E+00  0.91188000000E+02  0.91188000000E+02 0.  0.
    9900012    2    3    3    0    0  0.36633867346E+02  0.79268320540E+01 -0.21880334471E+02  0.47787263374E+02  0.19999965026E+02 0.  0.
         12    1    3    3    0    0 -0.36633867346E+02 -0.79268320540E+01  0.21880334471E+02  0.43400736626E+02  0.00000000000E+00 0. -1.
         11    1    4    4    0    0  0.15680136042E+02  0.68382643161E+01 -0.58824141320E+01  0.18089536242E+02  0.51100000000E-03 0. -1.
        -11    1    4    4    0    0  0.22403590655E+02 -0.37214816957E+00 -0.12549113122E+02  0.25681503244E+02  0.51100000000E-03 0.  1.
         12    1    4    4    0    0 -0.14498593505E+01  0.14607159074E+01 -0.34488072165E+01  0.40162238876E+01  0.00000000000E+00 0. -1.
</event>
<event>
 8    1  0.5542925E-011  0.9118800E+02  0.7816164E-02  0.1184000E+00
        -11   -1    0    0    0    0  0.00000000000E+00  0.00000000000E+00  0.45593999997E+02  0.45594000000E+02  0.51100000000E-03 0. -1.
         11   -1    0    0    0    0 -0.00000000000E+00 -0.00000000000E+00 -0.45593999997E+02  0.45594000000E+02  0.51100000000E-03 0.  1.
         23    2    1    2    0    0  0.00000000000E+00  0.00000000000E+00  0.00000000000E+00  0.91188000000E+02  0.91188000000E+02 0.  0.
    9900012    2    3    3    0    0 -0.15362633284E+02  0.19328379986E+02  0.35693509539E+02  0.47787269620E+02  0.19999993506E+02 0.  0.
        -12    1    3    3    0    0  0.15362633284E+02 -0.19328379986E+02 -0.35693509539E+02  0.43400730380E+02  0.00000000000E+00 0.  1.
         11    1    4    4    0    0 -0.43013542953E+01  0.39800832635E+01  0.10572862848E+02  0.12088347308E+02  0.51100000000E-03 0. -1.
        -11    1    4    4    0    0 -0.88091596499E+00  0.20266887407E+00  0.14612930078E+02  0.14640861085E+02  0.51100000000E-03 0.  1.
         12    1    4    4    0    0 -0.10180363024E+02  0.15145627849E+02  0.10507716613E+02  0.21058061227E+02  0.00000000000E+00 0. -1.
</event>
<event>
 8    1  0.5542925E-011  0.9118800E+02  0.7816164E-02  0.1184000E+00
        -11   -1    0    0    0    0  0.00000000000E+00  0.00000000000E+00  0.45593999997E+02  0.45594000000E+02  0.51100000000E-03 0. -1.
         11   -1    0    0    0    0 -0.00000000000E+00 -0.00000000000E+00 -0.45593999997E+02  0.45594000000E+02  0.51100000000E-03 0.  1.
         23    2    1    2    0    0 -0.88817841970E-15  0.00000000000E+00 -0.10658141036E-13  0.91188000000E+02  0.91188000000E+02 0.  0.
    9900012    2    3    3    0    0  0.62746113540E+01  0.29236472108E+02  0.31456019767E+02  0.47787271567E+02  0.20000002381E+02 0.  0.
        -12    1    3    3    0    0 -0.62746113540E+01 -0.29236472108E+02 -0.31456019767E+02  0.43400728433E+02  0.00000000000E+00 0.  1.
         11    1    4    4    0    0  0.53182507309E+01  0.21436125107E+02  0.20334410116E+02  0.30021317184E+02  0.51100000000E-03 0. -1.
        -11    1    4    4    0    0  0.12973612903E+01  0.41078548411E+01  0.12938327322E+02  0.13636639317E+02  0.51100000000E-03 0.  1.
         12    1    4    4    0    0 -0.34100066718E+00  0.36924921603E+01 -0.18167176718E+01  0.41293150652E+01  0.00000000000E+00 0. -1.
</event>
<event>
 8    1  0.5542925E-011  0.9118800E+02  0.7816164E-02  0.1184000E+00
        -11   -1    0    0    0    0  0.00000000000E+00  0.00000000000E+00  0.45593999997E+02  0.45594000000E+02  0.51100000000E-03 0.  1.
         11   -1    0    0    0    0 -0.00000000000E+00 -0.00000000000E+00 -0.45593999997E+02  0.45594000000E+02  0.51100000000E-03 0. -1.
         23    2    1    2    0    0  0.00000000000E+00  0.44408920985E-15  0.00000000000E+00  0.91188000000E+02  0.91188000000E+02 0.  0.
    9900012    2    3    3    0    0 -0.39222711999E+02  0.31241614760E+01 -0.18315070354E+02  0.47787270472E+02  0.19999997389E+02 0.  0.
         12    1    3    3    0    0  0.39222711999E+02 -0.31241614760E+01  0.18315070354E+02  0.43400729528E+02  0.00000000000E+00 0. -1.
         11    1    4    4    0    0 -0.71854243402E+01  0.27596622184E+01  0.26169189822E+01  0.81298415562E+01  0.51100000000E-03 0. -1.
        -11    1    4    4    0    0 -0.68787163919E+01  0.38991071680E+01 -0.75953667597E+01  0.10964003483E+02  0.51100000000E-03 0.  1.
         12    1    4    4    0    0 -0.25158571267E+02 -0.35346079105E+01 -0.13336622577E+02  0.28693425432E+02  0.00000000000E+00 0. -1.
</event>
<event>
 8    1  0.5542925E-011  0.9118800E+02  0.7816164E-02  0.1184000E+00
        -11   -1    0    0    0    0  0.00000000000E+00  0.00000000000E+00  0.45593999997E+02  0.45594000000E+02  0.51100000000E-03 0. -1.
         11   -1    0    0    0    0 -0.00000000000E+00 -0.00000000000E+00 -0.45593999997E+02  0.45594000000E+02  0.51100000000E-03 0.  1.
         23    2    1    2    0    0  0.00000000000E+00  0.00000000000E+00  0.00000000000E+00  0.91188000000E+02  0.91188000000E+02 0.  0.
    9900012    2    3    3    0    0 -0.13567101013E+02 -0.38716545533E+02  0.14162759916E+02  0.47787298436E+02  0.20000124887E+02 0.  0.
        -12    1    3    3    0    0  0.13567101013E+02  0.38716545533E+02 -0.14162759916E+02  0.43400701564E+02  0.00000000000E+00 0.  1.
         11    1    4    4    0    0 -0.88401001009E+00 -0.82223458613E+01  0.59807240465E+01  0.10205758450E+02  0.51100000000E-03 0. -1.
        -11    1    4    4    0    0 -0.69600385382E+01 -0.50587034204E+01  0.76367213123E+01  0.11504439552E+02  0.51100000000E-03 0.  1.
        -12    1    4    4    0    0 -0.57230524642E+01 -0.25435496251E+02  0.54531455704E+00  0.26077100433E+02  0.00000000000E+00 0.  1.
</event>
<event>
 8    1  0.5542925E-011  0.9118800E+02  0.7816164E-02  0.1184000E+00
        -11   -1    0    0    0    0  0.00000000000E+00  0.00000000000E+00  0.45593999997E+02  0.45594000000E+02  0.51100000000E-03 0. -1.
         11   -1    0    0    0    0 -0.00000000000E+00 -0.00000000000E+00 -0.45593999997E+02  0.45594000000E+02  0.51100000000E-03 0.  1.
         23    2    1    2    0    0  0.00000000000E+00  0.00000000000E+00  0.00000000000E+00  0.91188000000E+02  0.91188000000E+02 0.  0.
    9900012    2    3    3    0    0 -0.31871015129E+02 -0.19970275190E+02  0.21657541490E+02  0.47787278809E+02  0.20000035402E+02 0.  0.
        -12    1    3    3    0    0  0.31871015129E+02  0.19970275190E+02 -0.21657541490E+02  0.43400721191E+02  0.00000000000E+00 0.  1.
         11    1    4    4    0    0 -0.34320416392E+01  0.10356946016E+01  0.67007795950E+01  0.75994750189E+01  0.51100000000E-03 0. -1.
        -11    1    4    4    0    0 -0.73675802451E+01  0.15500094363E+00  0.20038754459E+01  0.76368043726E+01  0.51100000000E-03 0.  1.
         12    1    4    4    0    0 -0.21071393244E+02 -0.21160970735E+02  0.12952886449E+02  0.32550999418E+02  0.00000000000E+00 0. -1.
</event>
<event>
 8    1  0.5542925E-011  0.9118800E+02  0.7816164E-02  0.1184000E+00
        -11   -1    0    0    0    0  0.00000000000E+00  0.00000000000E+00  0.45593999997E+02  0.45594000000E+02  0.51100000000E-03 0. -1.
         11   -1    0    0    0    0 -0.00000000000E+00 -0.00000000000E+00 -0.45593999997E+02  0.45594000000E+02  0.51100000000E-03 0.  1.
         23    2    1    2    0    0  0.00000000000E+00 -0.35527136788E-14  0.00000000000E+00  0.91188000000E+02  0.91188000000E+02 0.  0.
    9900012    2    3    3    0    0  0.25640940852E+02  0.29216377858E+02 -0.19302035948E+02  0.47787272187E+02  0.20000005210E+02 0.  0.
         12    1    3    3    0    0 -0.25640940852E+02 -0.29216377858E+02  0.19302035948E+02  0.43400727813E+02  0.00000000000E+00 0. -1.
         11    1    4    4    0    0  0.11858621454E+02  0.23395181675E+02 -0.76699974060E+01  0.27327464004E+02  0.51100000000E-03 0. -1.
        -11    1    4    4    0    0 -0.61296367920E+00  0.17600964215E+01 -0.15222134906E+01  0.24064077080E+01  0.51100000000E-03 0.  1.
        -12    1    4    4    0    0  0.14395283077E+02  0.40610997616E+01 -0.10109825052E+02  0.18053400476E+02  0.00000000000E+00 0.  1.
</event>
<event>
 8    1  0.5542925E-011  0.9118800E+02  0.7816164E-02  0.1184000E+00
        -11   -1    0    0    0    0  0.00000000000E+00  0.00000000000E+00  0.45593999997E+02  0.45594000000E+02  0.51100000000E-03 0. -1.
         11   -1    0    0    0    0 -0.00000000000E+00 -0.00000000000E+00 -0.45593999997E+02  0.45594000000E+02  0.51100000000E-03 0.  1.
         23    2    1    2    0    0  0.00000000000E+00  0.00000000000E+00  0.00000000000E+00  0.91188000000E+02  0.91188000000E+02 0.  0.
    9900012    2    3    3    0    0  0.57593518387E+01 -0.55725958601E+01 -0.42654417775E+02  0.47787270583E+02  0.19999997896E+02 0.  0.
         12    1    3    3    0    0 -0.57593518387E+01  0.55725958601E+01  0.42654417775E+02  0.43400729417E+02  0.00000000000E+00 0. -1.
         11    1    4    4    0    0 -0.31059931045E+01 -0.81395908394E+00  0.69169650161E+00  0.32845344978E+01  0.51100000000E-03 0. -1.
        -11    1    4    4    0    0  0.19704549203E+01 -0.92052023319E+00 -0.84329219032E+01  0.87088588333E+01  0.51100000000E-03 0.  1.
         12    1    4    4    0    0  0.68948900229E+01 -0.38381165430E+01 -0.34913192373E+02  0.35793877252E+02  0.00000000000E+00 0. -1.
</event>
<event>
 8    1  0.5542925E-011  0.9118800E+02  0.7816164E-02  0.1184000E+00
        -11   -1    0    0    0    0  0.00000000000E+00  0.00000000000E+00  0.45593999997E+02  0.45594000000E+02  0.51100000000E-03 0. -1.
         11   -1    0    0    0    0 -0.00000000000E+00 -0.00000000000E+00 -0.45593999997E+02  0.45594000000E+02  0.51100000000E-03 0.  1.
         23    2    1    2    0    0  0.17763568394E-14  0.00000000000E+00  0.00000000000E+00  0.91188000000E+02  0.91188000000E+02 0.  0.
    9900012    2    3    3    0    0 -0.94240528386E+01  0.22184087045E+02  0.36092614335E+02  0.47787270750E+02  0.19999998656E+02 0.  0.
        -12    1    3    3    0    0  0.94240528386E+01 -0.22184087045E+02 -0.36092614335E+02  0.43400729250E+02  0.00000000000E+00 0.  1.
         11    1    4    4    0    0 -0.68914385031E+00  0.76370850341E+01  0.11276330477E+02  0.13636554416E+02  0.51100000000E-03 0. -1.
        -11    1    4    4    0    0  0.42064356086E+01  0.37595497781E+01  0.24542810273E+01  0.61523825211E+01  0.51100000000E-03 0.  1.
         12    1    4    4    0    0 -0.12941344597E+02  0.10787452233E+02  0.22362002831E+02  0.27998333812E+02  0.00000000000E+00 0. -1.
</event>
<event>
 8    1  0.5542925E-011  0.9118800E+02  0.7816164E-02  0.1184000E+00
        -11   -1    0    0    0    0  0.00000000000E+00  0.00000000000E+00  0.45593999997E+02  0.45594000000E+02  0.51100000000E-03 0. -1.
         11   -1    0    0    0    0 -0.00000000000E+00 -0.00000000000E+00 -0.45593999997E+02  0.45594000000E+02  0.51100000000E-03 0.  1.
         23    2    1    2    0    0  0.00000000000E+00  0.00000000000E+00  0.00000000000E+00  0.91188000000E+02  0.91188000000E+02 0.  0.
    9900012    2    3    3    0    0 -0.84305267958E+01  0.97084291460E+01  0.41452333132E+02  0.47787270737E+02  0.19999998596E+02 0.  0.
        -12    1    3    3    0    0  0.84305267958E+01 -0.97084291460E+01 -0.41452333132E+02  0.43400729263E+02  0.00000000000E+00 0.  1.
         11    1    4    4    0    0  0.94605691242E+00  0.36420635285E+01  0.86445770081E+01  0.94280624911E+01  0.51100000000E-03 0. -1.
        -11    1    4    4    0    0  0.39434243966E+01  0.26708406275E+00  0.14269010737E+02  0.14806302629E+02  0.51100000000E-03 0.  1.
        -12    1    4    4    0    0 -0.13320008105E+02  0.57992815547E+01  0.18538745387E+02  0.23552905616E+02  0.00000000000E+00 0.  1.
</event>
<event>
 8    1  0.5542925E-011  0.9118800E+02  0.7816164E-02  0.1184000E+00
        -11   -1    0    0    0    0  0.00000000000E+00  0.00000000000E+00  0.45593999997E+02  0.45594000000E+02  0.51100000000E-03 0.  1.
         11   -1    0    0    0    0 -0.00000000000E+00 -0.00000000000E+00 -0.45593999997E+02  0.45594000000E+02  0.51100000000E-03 0. -1.
         23    2    1    2    0    0 -0.22204460493E-15  0.71054273576E-14  0.00000000000E+00  0.91188000000E+02  0.91188000000E+02 0.  0.
    9900012    2    3    3    0    0  0.16595165641E+01 -0.43229113997E+02  0.34803809498E+01  0.47787270239E+02  0.19999996330E+02 0.  0.
         12    1    3    3    0    0 -0.16595165641E+01  0.43229113997E+02 -0.34803809498E+01  0.43400729761E+02  0.00000000000E+00 0. -1.
         11    1    4    4    0    0  0.18600435963E+01  0.10931398912E+00  0.20845580334E+01  0.27959066837E+01  0.51100000000E-03 0. -1.
        -11    1    4    4    0    0 -0.10673483860E+01 -0.74995314664E+01 -0.42720463899E+01  0.86966996850E+01  0.51100000000E-03 0.  1.
        -12    1    4    4    0    0  0.86682135378E+00 -0.35838896520E+02  0.56678693063E+01  0.36294663871E+02  0.00000000000E+00 0.  1.
</event>
<event>
 8    1  0.5542925E-011  0.9118800E+02  0.7816164E-02  0.1184000E+00
        -11   -1    0    0    0    0  0.00000000000E+00  0.00000000000E+00  0.45593999997E+02  0.45594000000E+02  0.51100000000E-03 0.  1.
         11   -1    0    0    0    0 -0.00000000000E+00 -0.00000000000E+00 -0.45593999997E+02  0.45594000000E+02  0.51100000000E-03 0. -1.
         23    2    1    2    0    0 -0.66266436782E-15 -0.71054273576E-14  0.35527136788E-14  0.91188000000E+02  0.91188000000E+02 0.  0.
    9900012    2    3    3    0    0 -0.21207114927E-01  0.37593046230E+02 -0.21688377964E+02  0.47787270590E+02  0.19999997928E+02 0.  0.
         12    1    3    3    0    0  0.21207114927E-01 -0.37593046230E+02  0.21688377964E+02  0.43400729410E+02  0.00000000000E+00 0. -1.
         11    1    4    4    0    0 -0.42633566670E+01  0.40401511052E+00 -0.20228161836E+01  0.47361612993E+01  0.51100000000E-03 0. -1.
        -11    1    4    4    0    0 -0.46737359944E+00  0.24994283795E+02 -0.15094957551E+02  0.29202575302E+02  0.51100000000E-03 0.  1.
        -12    1    4    4    0    0  0.47095231515E+01  0.12194747325E+02 -0.45706042288E+01  0.13848533989E+02  0.00000000000E+00 0.  1.
</event>
<event>
 8    1  0.5542925E-011  0.9118800E+02  0.7816164E-02  0.1184000E+00
        -11   -1    0    0    0    0  0.00000000000E+00  0.00000000000E+00  0.45593999997E+02  0.45594000000E+02  0.51100000000E-03 0. -1.
         11   -1    0    0    0    0 -0.00000000000E+00 -0.00000000000E+00 -0.45593999997E+02  0.45594000000E+02  0.51100000000E-03 0.  1.
         23    2    1    2    0    0  0.00000000000E+00  0.00000000000E+00  0.00000000000E+00  0.91188000000E+02  0.91188000000E+02 0.  0.
    9900012    2    3    3    0    0  0.17577523847E+02  0.19775041247E+02  0.34403512596E+02  0.47787270976E+02  0.19999999687E+02 0.  0.
        -12    1    3    3    0    0 -0.17577523847E+02 -0.19775041247E+02 -0.34403512596E+02  0.43400729024E+02  0.00000000000E+00 0.  1.
         11    1    4    4    0    0  0.85733409000E+01  0.60091229473E+01  0.16244827198E+02  0.19326307038E+02  0.51100000000E-03 0. -1.
        -11    1    4    4    0    0  0.81015749797E+01  0.11281387810E+01  0.30188050283E+01  0.87190250785E+01  0.51100000000E-03 0.  1.
        -12    1    4    4    0    0  0.90260796685E+00  0.12637779519E+02  0.15139880370E+02  0.19741938859E+02  0.00000000000E+00 0.  1.
</event>
<event>
 8    1  0.5542925E-011  0.9118800E+02  0.7816164E-02  0.1184000E+00
        -11   -1    0    0    0    0  0.00000000000E+00  0.00000000000E+00  0.45593999997E+02  0.45594000000E+02  0.51100000000E-03 0. -1.
         11   -1    0    0    0    0 -0.00000000000E+00 -0.00000000000E+00 -0.45593999997E+02  0.45594000000E+02  0.51100000000E-03 0.  1.
         23    2    1    2    0    0  0.17763568394E-14  0.00000000000E+00  0.71054273576E-14  0.91188000000E+02  0.91188000000E+02 0.  0.
    9900012    2    3    3    0    0  0.92193307617E+01  0.48577734641E+01  0.42131097283E+02  0.47787269810E+02  0.19999994373E+02 0.  0.
        -12    1    3    3    0    0 -0.92193307617E+01 -0.48577734641E+01 -0.42131097283E+02  0.43400730190E+02  0.00000000000E+00 0.  1.
         11    1    4    4    0    0  0.32045359800E+01  0.89127400363E+01  0.18628028961E+02  0.20897594336E+02  0.51100000000E-03 0. -1.
        -11    1    4    4    0    0  0.91021728748E+01 -0.29449931367E+01  0.15177513741E+02  0.17940999394E+02  0.51100000000E-03 0.  1.
        -12    1    4    4    0    0 -0.30873780931E+01 -0.11099734355E+01  0.83255545812E+01  0.89486760809E+01  0.00000000000E+00 0.  1.
</event>
<event>
 8    1  0.5542925E-011  0.9118800E+02  0.7816164E-02  0.1184000E+00
        -11   -1    0    0    0    0  0.00000000000E+00  0.00000000000E+00  0.45593999997E+02  0.45594000000E+02  0.51100000000E-03 0. -1.
         11   -1    0    0    0    0 -0.00000000000E+00 -0.00000000000E+00 -0.45593999997E+02  0.45594000000E+02  0.51100000000E-03 0.  1.
         23    2    1    2    0    0  0.00000000000E+00  0.44408920985E-15  0.00000000000E+00  0.91188000000E+02  0.91188000000E+02 0.  0.
    9900012    2    3    3    0    0 -0.15623344361E+02  0.17945184405E+01  0.40451379699E+02  0.47787270685E+02  0.19999998363E+02 0.  0.
        -12    1    3    3    0    0  0.15623344361E+02 -0.17945184405E+01 -0.40451379699E+02  0.43400729315E+02  0.00000000000E+00 0.  1.
         11    1    4    4    0    0 -0.15974325363E+01  0.78200805752E+01  0.80993385579E+01  0.11371224043E+02  0.51100000000E-03 0. -1.
        -11    1    4    4    0    0 -0.20896002571E+01  0.90631196353E-03  0.11190862211E+02  0.11384279834E+02  0.51100000000E-03 0.  1.
         12    1    4    4    0    0 -0.11936311568E+02 -0.60264684467E+01  0.21161178930E+02  0.25031766807E+02  0.00000000000E+00 0. -1.
</event>
<event>
 8    1  0.5542925E-011  0.9118800E+02  0.7816164E-02  0.1184000E+00
        -11   -1    0    0    0    0  0.00000000000E+00  0.00000000000E+00  0.45593999997E+02  0.45594000000E+02  0.51100000000E-03 0. -1.
         11   -1    0    0    0    0 -0.00000000000E+00 -0.00000000000E+00 -0.45593999997E+02  0.45594000000E+02  0.51100000000E-03 0.  1.
         23    2    1    2    0    0  0.00000000000E+00  0.00000000000E+00  0.00000000000E+00  0.91188000000E+02  0.91188000000E+02 0.  0.
    9900012    2    3    3    0    0 -0.34466609581E+01  0.39123236137E+02 -0.18469328818E+02  0.47787272073E+02  0.20000004690E+02 0.  0.
         12    1    3    3    0    0  0.34466609581E+01 -0.39123236137E+02  0.18469328818E+02  0.43400727927E+02  0.00000000000E+00 0. -1.
         11    1    4    4    0    0 -0.80367829107E+01  0.17104510023E+02 -0.48696148862E+01  0.19515821584E+02  0.51100000000E-03 0. -1.
        -11    1    4    4    0    0 -0.29648372980E+01  0.58539602482E+01 -0.59493012359E+01  0.88573865360E+01  0.51100000000E-03 0.  1.
         12    1    4    4    0    0  0.75549592506E+01  0.16164765866E+02 -0.76504126953E+01  0.19414063953E+02  0.00000000000E+00 0. -1.
</event>
<event>
 8    1  0.5542925E-011  0.9118800E+02  0.7816164E-02  0.1184000E+00
        -11   -1    0    0    0    0  0.00000000000E+00  0.00000000000E+00  0.45593999997E+02  0.45594000000E+02  0.51100000000E-03 0. -1.
         11   -1    0    0    0    0 -0.00000000000E+00 -0.00000000000E+00 -0.45593999997E+02  0.45594000000E+02  0.51100000000E-03 0.  1.
         23    2    1    2    0    0  0.00000000000E+00  0.00000000000E+00  0.71054273576E-14  0.91188000000E+02  0.91188000000E+02 0.  0.
    9900012    2    3    3    0    0 -0.22170688099E+02 -0.22757168071E+02 -0.29566797612E+02  0.47787266937E+02  0.19999981273E+02 0.  0.
         12    1    3    3    0    0  0.22170688099E+02  0.22757168071E+02  0.29566797612E+02  0.43400733063E+02  0.00000000000E+00 0. -1.
         11    1    4    4    0    0 -0.45266155811E+01  0.16678970005E+01 -0.75969727370E+01  0.89992290809E+01  0.51100000000E-03 0. -1.
        -11    1    4    4    0    0 -0.98278245851E+01 -0.75389092994E+01 -0.13568634866E+02  0.18371966195E+02  0.51100000000E-03 0.  1.
         12    1    4    4    0    0 -0.78162479327E+01 -0.16886155772E+02 -0.84011900088E+01  0.20416071661E+02  0.00000000000E+00 0. -1.
</event>
<event>
 8    1  0.5542925E-011  0.9118800E+02  0.7816164E-02  0.1184000E+00
        -11   -1    0    0    0    0  0.00000000000E+00  0.00000000000E+00  0.45593999997E+02  0.45594000000E+02  0.51100000000E-03 0. -1.
         11   -1    0    0    0    0 -0.00000000000E+00 -0.00000000000E+00 -0.45593999997E+02  0.45594000000E+02  0.51100000000E-03 0.  1.
         23    2    1    2    0    0 -0.35527136788E-14  0.35527136788E-14  0.00000000000E+00  0.91188000000E+02  0.91188000000E+02 0.  0.
    9900012    2    3    3    0    0  0.28669301307E+02  0.23054924356E+02 -0.23025314107E+02  0.47787268852E+02  0.19999990003E+02 0.  0.
         12    1    3    3    0    0 -0.28669301307E+02 -0.23054924356E+02  0.23025314107E+02  0.43400731148E+02  0.00000000000E+00 0. -1.
         11    1    4    4    0    0  0.12441772916E+02  0.15809920845E+02 -0.17691469018E+02  0.26790658572E+02  0.51100000000E-03 0. -1.
        -11    1    4    4    0    0  0.17083084939E+01  0.24623578306E+01 -0.48513211364E+01  0.57023539899E+01  0.51100000000E-03 0.  1.
        -12    1    4    4    0    0  0.14519219897E+02  0.47826456801E+01 -0.48252395241E+00  0.15294256290E+02  0.00000000000E+00 0.  1.
</event>
<event>
 8    1  0.5542925E-011  0.9118800E+02  0.7816164E-02  0.1184000E+00
        -11   -1    0    0    0    0  0.00000000000E+00  0.00000000000E+00  0.45593999997E+02  0.45594000000E+02  0.51100000000E-03 0. -1.
         11   -1    0    0    0    0 -0.00000000000E+00 -0.00000000000E+00 -0.45593999997E+02  0.45594000000E+02  0.51100000000E-03 0.  1.
         23    2    1    2    0    0  0.00000000000E+00  0.17763568394E-14 -0.35527136788E-14  0.91188000000E+02  0.91188000000E+02 0.  0.
    9900012    2    3    3    0    0 -0.34654195921E+02 -0.94144073789E+01  0.24373648249E+02  0.47787319243E+02  0.20000219756E+02 0.  0.
        -12    1    3    3    0    0  0.34654195921E+02  0.94144073789E+01 -0.24373648249E+02  0.43400680757E+02  0.00000000000E+00 0.  1.
         11    1    4    4    0    0 -0.28197459575E+02 -0.10513734455E+02  0.23306508316E+02  0.38063482090E+02  0.51100000000E-03 0. -1.
        -11    1    4    4    0    0 -0.59130607926E+01 -0.11453112247E+01 -0.15641436144E+01  0.62227462784E+01  0.51100000000E-03 0.  1.
        -12    1    4    4    0    0 -0.54367555314E+00  0.22446383006E+01  0.26312835468E+01  0.35010908744E+01  0.00000000000E+00 0.  1.
</event>
<event>
 8    1  0.5542925E-011  0.9118800E+02  0.7816164E-02  0.1184000E+00
        -11   -1    0    0    0    0  0.00000000000E+00  0.00000000000E+00  0.45593999997E+02  0.45594000000E+02  0.51100000000E-03 0. -1.
         11   -1    0    0    0    0 -0.00000000000E+00 -0.00000000000E+00 -0.45593999997E+02  0.45594000000E+02  0.51100000000E-03 0.  1.
         23    2    1    2    0    0  0.00000000000E+00  0.00000000000E+00  0.00000000000E+00  0.91188000000E+02  0.91188000000E+02 0.  0.
    9900012    2    3    3    0    0 -0.21624023060E+02 -0.36699987161E+02  0.83148338815E+01  0.47787263908E+02  0.19999967461E+02 0.  0.
        -12    1    3    3    0    0  0.21624023060E+02  0.36699987161E+02 -0.83148338815E+01  0.43400736092E+02  0.00000000000E+00 0.  1.
         11    1    4    4    0    0 -0.84510854804E+01 -0.20182582112E+01  0.59906101765E+01  0.10553749218E+02  0.51100000000E-03 0.  1.
        -11    1    4    4    0    0 -0.48965631662E+00 -0.19403131477E+01  0.55545052538E+00  0.20768013788E+01  0.51100000000E-03 0. -1.
        -12    1    4    4    0    0 -0.12683281263E+02 -0.32741415802E+02  0.17687731797E+01  0.35156713311E+02  0.00000000000E+00 0.  1.
</event>
<event>
 8    1  0.5542925E-011  0.9118800E+02  0.7816164E-02  0.1184000E+00
        -11   -1    0    0    0    0  0.00000000000E+00  0.00000000000E+00  0.45593999997E+02  0.45594000000E+02  0.51100000000E-03 0. -1.
         11   -1    0    0    0    0 -0.00000000000E+00 -0.00000000000E+00 -0.45593999997E+02  0.45594000000E+02  0.51100000000E-03 0.  1.
         23    2    1    2    0    0  0.00000000000E+00  0.00000000000E+00  0.00000000000E+00  0.91188000000E+02  0.91188000000E+02 0.  0.
    9900012    2    3    3    0    0 -0.20714194931E+02 -0.25099946586E+02 -0.28714773331E+02  0.47787269618E+02  0.19999993497E+02 0.  0.
         12    1    3    3    0    0  0.20714194931E+02  0.25099946586E+02  0.28714773331E+02  0.43400730382E+02  0.00000000000E+00 0. -1.
         11    1    4    4    0    0 -0.14104607452E+02 -0.59726547296E+01 -0.10775278031E+02  0.18727497772E+02  0.51100000000E-03 0. -1.
        -11    1    4    4    0    0 -0.14435532507E+01 -0.41438924610E+01  0.85928887596E+00  0.44714727271E+01  0.51100000000E-03 0.  1.
        -12    1    4    4    0    0 -0.51660342283E+01 -0.14983399395E+02 -0.18798784176E+02  0.24588299119E+02  0.00000000000E+00 0.  1.
</event>
<event>
 8    1  0.5542925E-011  0.9118800E+02  0.7816164E-02  0.1184000E+00
        -11   -1    0    0    0    0  0.00000000000E+00  0.00000000000E+00  0.45593999997E+02  0.45594000000E+02  0.51100000000E-03 0.  1.
         11   -1    0    0    0    0 -0.00000000000E+00 -0.00000000000E+00 -0.45593999997E+02  0.45594000000E+02  0.51100000000E-03 0. -1.
         23    2    1    2    0    0  0.00000000000E+00  0.00000000000E+00  0.88817841970E-15  0.91188000000E+02  0.91188000000E+02 0.  0.
    9900012    2    3    3    0    0 -0.16951760051E+02  0.39289980221E+02 -0.72497669858E+01  0.47787264569E+02  0.19999970478E+02 0.  0.
         12    1    3    3    0    0  0.16951760051E+02 -0.39289980221E+02  0.72497669858E+01  0.43400735431E+02  0.00000000000E+00 0. -1.
         11    1    4    4    0    0 -0.44273642249E+01  0.36726726658E+01  0.43860291997E+00  0.57690944933E+01  0.51100000000E-03 0. -1.
        -11    1    4    4    0    0 -0.10391202658E+02  0.37079097910E+02 -0.61121716367E+01  0.38989681159E+02  0.51100000000E-03 0.  1.
         12    1    4    4    0    0 -0.21331931684E+01 -0.14617903553E+01 -0.15761982691E+01  0.30284889170E+01  0.00000000000E+00 0. -1.
</event>
<event>
 8    1  0.5542925E-011  0.9118800E+02  0.7816164E-02  0.1184000E+00
        -11   -1    0    0    0    0  0.00000000000E+00  0.00000000000E+00  0.45593999997E+02  0.45594000000E+02  0.51100000000E-03 0. -1.
         11   -1    0    0    0    0 -0.00000000000E+00 -0.00000000000E+00 -0.45593999997E+02  0.45594000000E+02  0.51100000000E-03 0.  1.
         23    2    1    2    0    0  0.88817841970E-15  0.71054273576E-14  0.00000000000E+00  0.91188000000E+02  0.91188000000E+02 0.  0.
    9900012    2    3    3    0    0  0.60753084635E+01  0.24202431679E+02  0.35509943802E+02  0.47787272115E+02  0.20000004883E+02 0.  0.
        -12    1    3    3    0    0 -0.60753084635E+01 -0.24202431679E+02 -0.35509943802E+02  0.43400727885E+02  0.00000000000E+00 0.  1.
         11    1    4    4    0    0  0.21582264152E+01  0.95532713434E+01  0.98173365305E+01  0.13867336854E+02  0.51100000000E-03 0. -1.
        -11    1    4    4    0    0  0.14541143607E+01  0.86094153792E+01  0.25962842020E+02  0.27391707646E+02  0.51100000000E-03 0.  1.
        -12    1    4    4    0    0  0.24629676875E+01  0.60397449566E+01 -0.27023474906E+00  0.65282276147E+01  0.00000000000E+00 0.  1.
</event>
<event>
 8    1  0.5542925E-011  0.9118800E+02  0.7816164E-02  0.1184000E+00
        -11   -1    0    0    0    0  0.00000000000E+00  0.00000000000E+00  0.45593999997E+02  0.45594000000E+02  0.51100000000E-03 0. -1.
         11   -1    0    0    0    0 -0.00000000000E+00 -0.00000000000E+00 -0.45593999997E+02  0.45594000000E+02  0.51100000000E-03 0.  1.
         23    2    1    2    0    0 -0.44408920985E-15  0.00000000000E+00  0.00000000000E+00  0.91188000000E+02  0.91188000000E+02 0.  0.
    9900012    2    3    3    0    0 -0.32709388775E+01 -0.10146309499E+02 -0.42071092212E+02  0.47787269159E+02  0.19999991404E+02 0.  0.
         12    1    3    3    0    0  0.32709388775E+01  0.10146309499E+02  0.42071092212E+02  0.43400730841E+02  0.00000000000E+00 0. -1.
         11    1    4    4    0    0 -0.17860811387E+01 -0.16862550838E+01 -0.67600950527E+00  0.25476520866E+01  0.51100000000E-03 0. -1.
        -11    1    4    4    0    0  0.89592692880E+00 -0.12906311876E+02 -0.33008394003E+02  0.35453203611E+02  0.51100000000E-03 0.  1.
        -12    1    4    4    0    0 -0.23807846676E+01  0.44462574608E+01 -0.83866887035E+01  0.97864134621E+01  0.00000000000E+00 0.  1.
</event>
<event>
 8    1  0.5542925E-011  0.9118800E+02  0.7816164E-02  0.1184000E+00
        -11   -1    0    0    0    0  0.00000000000E+00  0.00000000000E+00  0.45593999997E+02  0.45594000000E+02  0.51100000000E-03 0. -1.
         11   -1    0    0    0    0 -0.00000000000E+00 -0.00000000000E+00 -0.45593999997E+02  0.45594000000E+02  0.51100000000E-03 0.  1.
         23    2    1    2    0    0  0.00000000000E+00  0.00000000000E+00  0.00000000000E+00  0.91188000000E+02  0.91188000000E+02 0.  0.
    9900012    2    3    3    0    0  0.23893347065E+02 -0.28376087828E+02 -0.22528402102E+02  0.47787270794E+02  0.19999998856E+02 0.  0.
         12    1    3    3    0    0 -0.23893347065E+02  0.28376087828E+02  0.22528402102E+02  0.43400729206E+02  0.00000000000E+00 0. -1.
         11    1    4    4    0    0  0.70388697474E+01 -0.85842198647E+01 -0.17122784466E+02  0.20406476083E+02  0.51100000000E-03 0. -1.
        -11    1    4    4    0    0  0.76680603233E+00 -0.47430460216E+01 -0.70965313675E+00  0.48567566224E+01  0.51100000000E-03 0.  1.
        -12    1    4    4    0    0  0.16087671285E+02 -0.15048821942E+02 -0.46959644993E+01  0.22524038088E+02  0.00000000000E+00 0.  1.
</event>
<event>
 8    1  0.5542925E-011  0.9118800E+02  0.7816164E-02  0.1184000E+00
        -11   -1    0    0    0    0  0.00000000000E+00  0.00000000000E+00  0.45593999997E+02  0.45594000000E+02  0.51100000000E-03 0. -1.
         11   -1    0    0    0    0 -0.00000000000E+00 -0.00000000000E+00 -0.45593999997E+02  0.45594000000E+02  0.51100000000E-03 0.  1.
         23    2    1    2    0    0 -0.35527136788E-14 -0.35527136788E-14  0.00000000000E+00  0.91188000000E+02  0.91188000000E+02 0.  0.
    9900012    2    3    3    0    0  0.22301468131E+02  0.24527813131E+02  0.28011650853E+02  0.47787289392E+02  0.20000083654E+02 0.  0.
        -12    1    3    3    0    0 -0.22301468131E+02 -0.24527813131E+02 -0.28011650853E+02  0.43400710608E+02  0.00000000000E+00 0.  1.
         11    1    4    4    0    0 -0.28814980461E+00 -0.84352203610E+00  0.23411374599E+01  0.25050917353E+01  0.51100000000E-03 0. -1.
        -11    1    4    4    0    0  0.56056588297E+01 -0.99570292932E+00  0.59436877868E+01  0.82305686320E+01  0.51100000000E-03 0.  1.
        -12    1    4    4    0    0  0.16983959106E+02  0.26367038096E+02  0.19726825606E+02  0.37051629025E+02  0.00000000000E+00 0.  1.
</event>
<event>
 8    1  0.5542925E-011  0.9118800E+02  0.7816164E-02  0.1184000E+00
        -11   -1    0    0    0    0  0.00000000000E+00  0.00000000000E+00  0.45593999997E+02  0.45594000000E+02  0.51100000000E-03 0. -1.
         11   -1    0    0    0    0 -0.00000000000E+00 -0.00000000000E+00 -0.45593999997E+02  0.45594000000E+02  0.51100000000E-03 0.  1.
         23    2    1    2    0    0  0.00000000000E+00  0.35527136788E-14  0.00000000000E+00  0.91188000000E+02  0.91188000000E+02 0.  0.
    9900012    2    3    3    0    0 -0.29816700563E+02  0.19181208381E+02  0.25033350311E+02  0.47787274024E+02  0.20000013586E+02 0.  0.
        -12    1    3    3    0    0  0.29816700563E+02 -0.19181208381E+02 -0.25033350311E+02  0.43400725976E+02  0.00000000000E+00 0.  1.
         11    1    4    4    0    0 -0.92902335464E+01  0.39340150967E+01  0.17410794448E+02  0.20122640923E+02  0.51100000000E-03 0. -1.
        -11    1    4    4    0    0  0.89043225410E-01 -0.25170432066E+00 -0.54804331443E+00  0.60961914065E+00  0.51100000000E-03 0.  1.
        -12    1    4    4    0    0 -0.20615510242E+02  0.15498897604E+02  0.81705991778E+01  0.27055013961E+02  0.00000000000E+00 0.  1.
</event>
<event>
 8    1  0.5542925E-011  0.9118800E+02  0.7816164E-02  0.1184000E+00
        -11   -1    0    0    0    0  0.00000000000E+00  0.00000000000E+00  0.45593999997E+02  0.45594000000E+02  0.51100000000E-03 0. -1.
         11   -1    0    0    0    0 -0.00000000000E+00 -0.00000000000E+00 -0.45593999997E+02  0.45594000000E+02  0.51100000000E-03 0.  1.
         23    2    1    2    0    0  0.17763568394E-14  0.00000000000E+00 -0.17763568394E-14  0.91188000000E+02  0.91188000000E+02 0.  0.
    9900012    2    3    3    0    0  0.11522315952E+02  0.39653316405E+02 -0.13359416957E+02  0.47787270879E+02  0.19999999244E+02 0.  0.
         12    1    3    3    0    0 -0.11522315952E+02 -0.39653316405E+02  0.13359416957E+02  0.43400729121E+02  0.00000000000E+00 0. -1.
         11    1    4    4    0    0  0.22464594206E+01  0.77815825081E+01  0.50613087458E+01  0.95507304820E+01  0.51100000000E-03 0.  1.
        -11    1    4    4    0    0 -0.28995833789E+00  0.70655649771E+00  0.53510117513E-01  0.76561185725E+00  0.51100000000E-03 0. -1.
        -12    1    4    4    0    0  0.95658148696E+01  0.31165177400E+02 -0.18474235820E+02  0.37470928539E+02  0.00000000000E+00 0.  1.
</event>
<event>
 8    1  0.5542925E-011  0.9118800E+02  0.7816164E-02  0.1184000E+00
        -11   -1    0    0    0    0  0.00000000000E+00  0.00000000000E+00  0.45593999997E+02  0.45594000000E+02  0.51100000000E-03 0. -1.
         11   -1    0    0    0    0 -0.00000000000E+00 -0.00000000000E+00 -0.45593999997E+02  0.45594000000E+02  0.51100000000E-03 0.  1.
         23    2    1    2    0    0  0.00000000000E+00  0.00000000000E+00  0.35527136788E-14  0.91188000000E+02  0.91188000000E+02 0.  0.
    9900012    2    3    3    0    0  0.35160161453E+02 -0.13758494467E+02 -0.21403042725E+02  0.47787270037E+02  0.19999995408E+02 0.  0.
         12    1    3    3    0    0 -0.35160161453E+02  0.13758494467E+02  0.21403042725E+02  0.43400729963E+02  0.00000000000E+00 0. -1.
         11    1    4    4    0    0 -0.17128030793E+01  0.52132408858E-01 -0.11526344308E+01  0.20651824541E+01  0.51100000000E-03 0. -1.
        -11    1    4    4    0    0  0.68488575053E+01 -0.64797682944E+01 -0.14291764565E+01  0.95360784331E+01  0.51100000000E-03 0.  1.
        -12    1    4    4    0    0  0.30024107027E+02 -0.73308585815E+01 -0.18821231838E+02  0.36186009150E+02  0.00000000000E+00 0.  1.
</event>
<event>
 8    1  0.5542925E-011  0.9118800E+02  0.7816164E-02  0.1184000E+00
        -11   -1    0    0    0    0  0.00000000000E+00  0.00000000000E+00  0.45593999997E+02  0.45594000000E+02  0.51100000000E-03 0. -1.
         11   -1    0    0    0    0 -0.00000000000E+00 -0.00000000000E+00 -0.45593999997E+02  0.45594000000E+02  0.51100000000E-03 0.  1.
         23    2    1    2    0    0  0.00000000000E+00  0.00000000000E+00 -0.17763568394E-14  0.91188000000E+02  0.91188000000E+02 0.  0.
    9900012    2    3    3    0    0  0.25454189073E+02 -0.33908852408E+02  0.92681635849E+01  0.47787252665E+02  0.19999916200E+02 0.  0.
        -12    1    3    3    0    0 -0.25454189073E+02  0.33908852408E+02 -0.92681635849E+01  0.43400747335E+02  0.00000000000E+00 0.  1.
         11    1    4    4    0    0  0.20432386093E+01 -0.22028710227E+01 -0.16498106178E+01  0.34277310415E+01  0.51100000000E-03 0.  1.
        -11    1    4    4    0    0  0.12511781770E+02 -0.92277020088E+01  0.11554499726E+02  0.19370122137E+02  0.51100000000E-03 0. -1.
         12    1    4    4    0    0  0.10899168694E+02 -0.22478279377E+02 -0.63652552282E+00  0.24989399487E+02  0.00000000000E+00 0. -1.
</event>
<event>
 8    1  0.5542925E-011  0.9118800E+02  0.7816164E-02  0.1184000E+00
        -11   -1    0    0    0    0  0.00000000000E+00  0.00000000000E+00  0.45593999997E+02  0.45594000000E+02  0.51100000000E-03 0. -1.
         11   -1    0    0    0    0 -0.00000000000E+00 -0.00000000000E+00 -0.45593999997E+02  0.45594000000E+02  0.51100000000E-03 0.  1.
         23    2    1    2    0    0  0.35527136788E-14  0.44408920985E-15  0.00000000000E+00  0.91188000000E+02  0.91188000000E+02 0.  0.
    9900012    2    3    3    0    0 -0.29249367250E+02 -0.28649269319E+01  0.31935735289E+02  0.47787257157E+02  0.19999936682E+02 0.  0.
        -12    1    3    3    0    0  0.29249367250E+02  0.28649269319E+01 -0.31935735289E+02  0.43400742843E+02  0.00000000000E+00 0.  1.
         11    1    4    4    0    0 -0.13560352111E+02  0.76208304401E+00  0.18891612182E+02  0.23267078266E+02  0.51100000000E-03 0. -1.
        -11    1    4    4    0    0 -0.17876955909E+02 -0.19757682532E+01  0.11791039286E+02  0.21506227481E+02  0.51100000000E-03 0.  1.
        -12    1    4    4    0    0  0.21879407698E+01 -0.16512417227E+01  0.12530838216E+01  0.30139514102E+01  0.00000000000E+00 0.  1.
</event>
<event>
 8    1  0.5542925E-011  0.9118800E+02  0.7816164E-02  0.1184000E+00
        -11   -1    0    0    0    0  0.00000000000E+00  0.00000000000E+00  0.45593999997E+02  0.45594000000E+02  0.51100000000E-03 0. -1.
         11   -1    0    0    0    0 -0.00000000000E+00 -0.00000000000E+00 -0.45593999997E+02  0.45594000000E+02  0.51100000000E-03 0.  1.
         23    2    1    2    0    0  0.00000000000E+00  0.00000000000E+00  0.00000000000E+00  0.91188000000E+02  0.91188000000E+02 0.  0.
    9900012    2    3    3    0    0  0.17944300866E+02 -0.21706696055E+02 -0.33021905906E+02  0.47787252807E+02  0.19999916849E+02 0.  0.
         12    1    3    3    0    0 -0.17944300866E+02  0.21706696055E+02  0.33021905906E+02  0.43400747193E+02  0.00000000000E+00 0. -1.
         11    1    4    4    0    0  0.12395597314E+02 -0.41492050218E+01 -0.60034795513E+01  0.14384314446E+02  0.51100000000E-03 0. -1.
        -11    1    4    4    0    0  0.39560741342E+01 -0.31801013283E+01 -0.56076605764E+01  0.75636911898E+01  0.51100000000E-03 0.  1.
        -12    1    4    4    0    0  0.15926294182E+01 -0.14377389705E+02 -0.21410765778E+02  0.25839247172E+02  0.00000000000E+00 0.  1.
</event>
<event>
 8    1  0.5542925E-011  0.9118800E+02  0.7816164E-02  0.1184000E+00
        -11   -1    0    0    0    0  0.00000000000E+00  0.00000000000E+00  0.45593999997E+02  0.45594000000E+02  0.51100000000E-03 0. -1.
         11   -1    0    0    0    0 -0.00000000000E+00 -0.00000000000E+00 -0.45593999997E+02  0.45594000000E+02  0.51100000000E-03 0.  1.
         23    2    1    2    0    0  0.00000000000E+00  0.35527136788E-14  0.00000000000E+00  0.91188000000E+02  0.91188000000E+02 0.  0.
    9900012    2    3    3    0    0 -0.40807746296E+02 -0.92864196686E+01  0.11494031605E+02  0.47787279838E+02  0.20000040096E+02 0.  0.
        -12    1    3    3    0    0  0.40807746296E+02  0.92864196686E+01 -0.11494031605E+02  0.43400720162E+02  0.00000000000E+00 0.  1.
         11    1    4    4    0    0 -0.87636571471E+01 -0.28388964030E+01  0.45132140456E+01  0.10258173359E+02  0.51100000000E-03 0. -1.
        -11    1    4    4    0    0 -0.25049299476E+02 -0.85360132262E+01 -0.12929536889E+01  0.26495332713E+02  0.51100000000E-03 0.  1.
        -12    1    4    4    0    0 -0.69947896725E+01  0.20884899606E+01  0.82737712479E+01  0.11033773767E+02  0.00000000000E+00 0.  1.
</event>
<event>
 8    1  0.5542925E-011  0.9118800E+02  0.7816164E-02  0.1184000E+00
        -11   -1    0    0    0    0  0.00000000000E+00  0.00000000000E+00  0.45593999997E+02  0.45594000000E+02  0.51100000000E-03 0. -1.
         11   -1    0    0    0    0 -0.00000000000E+00 -0.00000000000E+00 -0.45593999997E+02  0.45594000000E+02  0.51100000000E-03 0.  1.
         23    2    1    2    0    0  0.88817841970E-15  0.00000000000E+00  0.00000000000E+00  0.91188000000E+02  0.91188000000E+02 0.  0.
    9900012    2    3    3    0    0 -0.79166069374E+01  0.25990089662E+02 -0.33844738887E+02  0.47787265256E+02  0.19999973607E+02 0.  0.
         12    1    3    3    0    0  0.79166069374E+01 -0.25990089662E+02  0.33844738887E+02  0.43400734744E+02  0.00000000000E+00 0. -1.
         11    1    4    4    0    0  0.28230868996E+01  0.70888615502E+01 -0.51153771121E+01  0.91863410006E+01  0.51100000000E-03 0. -1.
        -11    1    4    4    0    0  0.59585313730E+00  0.12524394175E+02 -0.16713000272E+02  0.20893536530E+02  0.51100000000E-03 0.  1.
         12    1    4    4    0    0 -0.11335546974E+02  0.63768339367E+01 -0.12016361503E+02  0.17707387725E+02  0.00000000000E+00 0. -1.
</event>
<event>
 8    1  0.5542925E-011  0.9118800E+02  0.7816164E-02  0.1184000E+00
        -11   -1    0    0    0    0  0.00000000000E+00  0.00000000000E+00  0.45593999997E+02  0.45594000000E+02  0.51100000000E-03 0. -1.
         11   -1    0    0    0    0 -0.00000000000E+00 -0.00000000000E+00 -0.45593999997E+02  0.45594000000E+02  0.51100000000E-03 0.  1.
         23    2    1    2    0    0  0.00000000000E+00  0.00000000000E+00  0.00000000000E+00  0.91188000000E+02  0.91188000000E+02 0.  0.
    9900012    2    3    3    0    0 -0.34570546480E+02 -0.64871187991E+01 -0.25424750281E+02  0.47787270501E+02  0.19999997521E+02 0.  0.
         12    1    3    3    0    0  0.34570546480E+02  0.64871187991E+01  0.25424750281E+02  0.43400729499E+02  0.00000000000E+00 0. -1.
         11    1    4    4    0    0 -0.14012466127E+02  0.90018633137E+00 -0.95939227105E+01  0.17005966471E+02  0.51100000000E-03 0. -1.
        -11    1    4    4    0    0 -0.11722202708E+02 -0.13401621665E+01 -0.16231725224E+02  0.20066762942E+02  0.51100000000E-03 0.  1.
         12    1    4    4    0    0 -0.88358776452E+01 -0.60471429640E+01  0.40089765350E+00  0.10714541088E+02  0.00000000000E+00 0. -1.
</event>
<event>
 8    1  0.5542925E-011  0.9118800E+02  0.7816164E-02  0.1184000E+00
        -11   -1    0    0    0    0  0.00000000000E+00  0.00000000000E+00  0.45593999997E+02  0.45594000000E+02  0.51100000000E-03 0. -1.
         11   -1    0    0    0    0 -0.00000000000E+00 -0.00000000000E+00 -0.45593999997E+02  0.45594000000E+02  0.51100000000E-03 0.  1.
         23    2    1    2    0    0  0.00000000000E+00  0.00000000000E+00 -0.17763568394E-14  0.91188000000E+02  0.91188000000E+02 0.  0.
    9900012    2    3    3    0    0  0.36390800941E+02 -0.19577901942E+02  0.13267950791E+02  0.47787272405E+02  0.20000006203E+02 0.  0.
        -12    1    3    3    0    0 -0.36390800941E+02  0.19577901942E+02 -0.13267950791E+02  0.43400727595E+02  0.00000000000E+00 0.  1.
         11    1    4    4    0    0  0.80061393297E+01 -0.10090751854E+02  0.28254261616E+01  0.13187288318E+02  0.51100000000E-03 0. -1.
        -11    1    4    4    0    0  0.42320559497E+01 -0.74176511988E+01  0.10561393827E+01  0.86050727786E+01  0.51100000000E-03 0.  1.
         12    1    4    4    0    0  0.24152605662E+02 -0.20694988897E+01  0.93863852469E+01  0.25994911308E+02  0.00000000000E+00 0. -1.
</event>
<event>
 8    1  0.5542925E-011  0.9118800E+02  0.7816164E-02  0.1184000E+00
        -11   -1    0    0    0    0  0.00000000000E+00  0.00000000000E+00  0.45593999997E+02  0.45594000000E+02  0.51100000000E-03 0. -1.
         11   -1    0    0    0    0 -0.00000000000E+00 -0.00000000000E+00 -0.45593999997E+02  0.45594000000E+02  0.51100000000E-03 0.  1.
         23    2    1    2    0    0  0.00000000000E+00  0.35527136788E-14  0.00000000000E+00  0.91188000000E+02  0.91188000000E+02 0.  0.
    9900012    2    3    3    0    0 -0.19473978433E+02 -0.20597179478E+02 -0.32865564362E+02  0.47787251627E+02  0.19999911470E+02 0.  0.
         12    1    3    3    0    0  0.19473978433E+02  0.20597179478E+02  0.32865564362E+02  0.43400748373E+02  0.00000000000E+00 0. -1.
         11    1    4    4    0    0 -0.59548218728E+01 -0.24976480215E+01 -0.78556665728E+01  0.10169053385E+02  0.51100000000E-03 0. -1.
        -11    1    4    4    0    0 -0.10191874780E+02 -0.18845314091E+02 -0.12835713380E+02  0.24975502256E+02  0.51100000000E-03 0.  1.
        -12    1    4    4    0    0 -0.33272817806E+01  0.74578263416E+00 -0.12174184409E+02  0.12642695986E+02  0.00000000000E+00 0.  1.
</event>
<event>
 8    1  0.5542925E-011  0.9118800E+02  0.7816164E-02  0.1184000E+00
        -11   -1    0    0    0    0  0.00000000000E+00  0.00000000000E+00  0.45593999997E+02  0.45594000000E+02  0.51100000000E-03 0.  1.
         11   -1    0    0    0    0 -0.00000000000E+00 -0.00000000000E+00 -0.45593999997E+02  0.45594000000E+02  0.51100000000E-03 0. -1.
         23    2    1    2    0    0  0.71054273576E-14 -0.88817841970E-15  0.00000000000E+00  0.91188000000E+02  0.91188000000E+02 0.  0.
    9900012    2    3    3    0    0 -0.40577295767E+02 -0.65084517478E+01  0.13955161858E+02  0.47787269379E+02  0.19999992408E+02 0.  0.
        -12    1    3    3    0    0  0.40577295767E+02  0.65084517478E+01 -0.13955161858E+02  0.43400730621E+02  0.00000000000E+00 0.  1.
         11    1    4    4    0    0 -0.23111706384E+02 -0.68853274859E+01  0.46556658837E+01  0.24560821070E+02  0.51100000000E-03 0. -1.
        -11    1    4    4    0    0 -0.58353534612E+01 -0.54360751232E+01  0.54751367172E+01  0.96736438375E+01  0.51100000000E-03 0.  1.
        -12    1    4    4    0    0 -0.11630235922E+02  0.58129508613E+01  0.38243592572E+01  0.13552804472E+02  0.00000000000E+00 0.  1.
</event>
<event>
 8    1  0.5542925E-011  0.9118800E+02  0.7816164E-02  0.1184000E+00
        -11   -1    0    0    0    0  0.00000000000E+00  0.00000000000E+00  0.45593999997E+02  0.45594000000E+02  0.51100000000E-03 0. -1.
         11   -1    0    0    0    0 -0.00000000000E+00 -0.00000000000E+00 -0.45593999997E+02  0.45594000000E+02  0.51100000000E-03 0.  1.
         23    2    1    2    0    0  0.35527136788E-14 -0.71054273576E-14  0.88817841970E-15  0.91188000000E+02  0.91188000000E+02 0.  0.
    9900012    2    3    3    0    0 -0.23192147244E+02  0.36076104604E+02  0.66529882424E+01  0.47787271092E+02  0.20000000218E+02 0.  0.
        -12    1    3    3    0    0  0.23192147244E+02 -0.36076104604E+02 -0.66529882424E+01  0.43400728908E+02  0.00000000000E+00 0.  1.
         11    1    4    4    0    0 -0.14225183758E+02  0.16132133806E+02  0.12023012465E+00  0.21508511097E+02  0.51100000000E-03 0. -1.
        -11    1    4    4    0    0 -0.52156400279E+01  0.62860957167E+01 -0.35362818464E+01  0.89007409702E+01  0.51100000000E-03 0.  1.
        -12    1    4    4    0    0 -0.37513234581E+01  0.13657875081E+02  0.10069039964E+02  0.17378019025E+02  0.00000000000E+00 0.  1.
</event>
<event>
 8    1  0.5542925E-011  0.9118800E+02  0.7816164E-02  0.1184000E+00
        -11   -1    0    0    0    0  0.00000000000E+00  0.00000000000E+00  0.45593999997E+02  0.45594000000E+02  0.51100000000E-03 0. -1.
         11   -1    0    0    0    0 -0.00000000000E+00 -0.00000000000E+00 -0.45593999997E+02  0.45594000000E+02  0.51100000000E-03 0.  1.
         23    2    1    2    0    0  0.00000000000E+00  0.00000000000E+00 -0.35527136788E-14  0.91188000000E+02  0.91188000000E+02 0.  0.
    9900012    2    3    3    0    0 -0.33043705604E+02 -0.46394979138E+01  0.27752687288E+02  0.47787273363E+02  0.20000010570E+02 0.  0.
        -12    1    3    3    0    0  0.33043705604E+02  0.46394979138E+01 -0.27752687288E+02  0.43400726637E+02  0.00000000000E+00 0.  1.
         11    1    4    4    0    0 -0.14453076004E+02 -0.60522052349E+01  0.54251424561E+01  0.16581699705E+02  0.51100000000E-03 0. -1.
        -11    1    4    4    0    0 -0.66482591577E+01 -0.23967673592E+01  0.20362523752E+01  0.73546017974E+01  0.51100000000E-03 0.  1.
        -12    1    4    4    0    0 -0.11942370443E+02  0.38094746803E+01  0.20291292456E+02  0.23850971860E+02  0.00000000000E+00 0.  1.
</event>
<event>
 8    1  0.5542925E-011  0.9118800E+02  0.7816164E-02  0.1184000E+00
        -11   -1    0    0    0    0  0.00000000000E+00  0.00000000000E+00  0.45593999997E+02  0.45594000000E+02  0.51100000000E-03 0. -1.
         11   -1    0    0    0    0 -0.00000000000E+00 -0.00000000000E+00 -0.45593999997E+02  0.45594000000E+02  0.51100000000E-03 0.  1.
         23    2    1    2    0    0 -0.44408920985E-15  0.00000000000E+00  0.00000000000E+00  0.91188000000E+02  0.91188000000E+02 0.  0.
    9900012    2    3    3    0    0 -0.38345788685E+01 -0.39963971831E+02  0.16486359263E+02  0.47787273262E+02  0.20000010110E+02 0.  0.
        -12    1    3    3    0    0  0.38345788685E+01  0.39963971831E+02 -0.16486359263E+02  0.43400726738E+02  0.00000000000E+00 0.  1.
         11    1    4    4    0    0  0.15685451750E+01 -0.48794609309E+01  0.42791424322E+01  0.66768655190E+01  0.51100000000E-03 0. -1.
        -11    1    4    4    0    0 -0.35414744679E+01 -0.63355533042E+01 -0.37578802939E+01  0.81733066529E+01  0.51100000000E-03 0.  1.
        -12    1    4    4    0    0 -0.18616495756E+01 -0.28748957596E+02  0.15965097125E+02  0.32937101090E+02  0.00000000000E+00 0.  1.
</event>
<event>
 8    1  0.5542925E-011  0.9118800E+02  0.7816164E-02  0.1184000E+00
        -11   -1    0    0    0    0  0.00000000000E+00  0.00000000000E+00  0.45593999997E+02  0.45594000000E+02  0.51100000000E-03 0. -1.
         11   -1    0    0    0    0 -0.00000000000E+00 -0.00000000000E+00 -0.45593999997E+02  0.45594000000E+02  0.51100000000E-03 0.  1.
         23    2    1    2    0    0  0.00000000000E+00  0.00000000000E+00 -0.71054273576E-14  0.91188000000E+02  0.91188000000E+02 0.  0.
    9900012    2    3    3    0    0 -0.10266078832E+02 -0.14932187521E+02 -0.39436793117E+02  0.47787271318E+02  0.20000001247E+02 0.  0.
         12    1    3    3    0    0  0.10266078832E+02  0.14932187521E+02  0.39436793117E+02  0.43400728682E+02  0.00000000000E+00 0. -1.
         11    1    4    4    0    0  0.24281578686E+01 -0.17038181278E+01 -0.97192397993E+00  0.31214713408E+01  0.51100000000E-03 0.  1.
        -11    1    4    4    0    0 -0.20856323004E-01  0.20322343697E+01 -0.84293958722E+01  0.86709357368E+01  0.51100000000E-03 0. -1.
        -12    1    4    4    0    0 -0.12673380378E+02 -0.15260603763E+02 -0.30035473265E+02  0.35994864240E+02  0.00000000000E+00 0.  1.
</event>
<event>
 8    1  0.5542925E-011  0.9118800E+02  0.7816164E-02  0.1184000E+00
        -11   -1    0    0    0    0  0.00000000000E+00  0.00000000000E+00  0.45593999997E+02  0.45594000000E+02  0.51100000000E-03 0. -1.
         11   -1    0    0    0    0 -0.00000000000E+00 -0.00000000000E+00 -0.45593999997E+02  0.45594000000E+02  0.51100000000E-03 0.  1.
         23    2    1    2    0    0  0.00000000000E+00 -0.35527136788E-14  0.00000000000E+00  0.91188000000E+02  0.91188000000E+02 0.  0.
    9900012    2    3    3    0    0  0.19233729219E+02  0.16101911371E+02 -0.35417728404E+02  0.47787269882E+02  0.19999994698E+02 0.  0.
         12    1    3    3    0    0 -0.19233729219E+02 -0.16101911371E+02  0.35417728404E+02  0.43400730118E+02  0.00000000000E+00 0. -1.
         11    1    4    4    0    0  0.48503517856E+01  0.73238518185E+01 -0.55370780097E+01  0.10383831232E+02  0.51100000000E-03 0. -1.
        -11    1    4    4    0    0  0.14302073513E+02  0.69659453606E+01 -0.13333238683E+02  0.20756901396E+02  0.51100000000E-03 0.  1.
         12    1    4    4    0    0  0.81303920794E-01  0.18121141918E+01 -0.16547411712E+02  0.16646537253E+02  0.00000000000E+00 0. -1.
</event>
<event>
 8    1  0.5542925E-011  0.9118800E+02  0.7816164E-02  0.1184000E+00
        -11   -1    0    0    0    0  0.00000000000E+00  0.00000000000E+00  0.45593999997E+02  0.45594000000E+02  0.51100000000E-03 0. -1.
         11   -1    0    0    0    0 -0.00000000000E+00 -0.00000000000E+00 -0.45593999997E+02  0.45594000000E+02  0.51100000000E-03 0.  1.
         23    2    1    2    0    0  0.44408920985E-15  0.00000000000E+00  0.35527136788E-14  0.91188000000E+02  0.91188000000E+02 0.  0.
    9900012    2    3    3    0    0 -0.77015131948E+00 -0.33800972470E+02 -0.27212584132E+02  0.47787267193E+02  0.19999982441E+02 0.  0.
         12    1    3    3    0    0  0.77015131948E+00  0.33800972470E+02  0.27212584132E+02  0.43400732807E+02  0.00000000000E+00 0. -1.
         11    1    4    4    0    0  0.42831483649E+01 -0.53855889291E+01 -0.57484553977E+01  0.89663073642E+01  0.51100000000E-03 0. -1.
        -11    1    4    4    0    0  0.47959237691E+01 -0.93444921219E+01 -0.99294584530E+01  0.14453877101E+02  0.51100000000E-03 0.  1.
         12    1    4    4    0    0 -0.98492234535E+01 -0.19070891419E+02 -0.11534670282E+02  0.24367082728E+02  0.00000000000E+00 0. -1.
</event>
<event>
 8    1  0.5542925E-011  0.9118800E+02  0.7816164E-02  0.1184000E+00
        -11   -1    0    0    0    0  0.00000000000E+00  0.00000000000E+00  0.45593999997E+02  0.45594000000E+02  0.51100000000E-03 0. -1.
         11   -1    0    0    0    0 -0.00000000000E+00 -0.00000000000E+00 -0.45593999997E+02  0.45594000000E+02  0.51100000000E-03 0.  1.
         23    2    1    2    0    0  0.00000000000E+00  0.00000000000E+00  0.00000000000E+00  0.91188000000E+02  0.91188000000E+02 0.  0.
    9900012    2    3    3    0    0  0.18781298770E+02 -0.34207360206E+02  0.18993226808E+02  0.47787270279E+02  0.19999996510E+02 0.  0.
        -12    1    3    3    0    0 -0.18781298770E+02  0.34207360206E+02 -0.18993226808E+02  0.43400729721E+02  0.00000000000E+00 0.  1.
         11    1    4    4    0    0  0.73433969755E+01 -0.11389372784E+02  0.99466017928E+00  0.13587959401E+02  0.51100000000E-03 0. -1.
        -11    1    4    4    0    0  0.37516098416E+00 -0.93782029095E+01  0.32294978302E+00  0.93912582969E+01  0.51100000000E-03 0.  1.
         12    1    4    4    0    0  0.11062740810E+02 -0.13439784513E+02  0.17675616846E+02  0.24808052581E+02  0.00000000000E+00 0. -1.
</event>
<event>
 8    1  0.5542925E-011  0.9118800E+02  0.7816164E-02  0.1184000E+00
        -11   -1    0    0    0    0  0.00000000000E+00  0.00000000000E+00  0.45593999997E+02  0.45594000000E+02  0.51100000000E-03 0. -1.
         11   -1    0    0    0    0 -0.00000000000E+00 -0.00000000000E+00 -0.45593999997E+02  0.45594000000E+02  0.51100000000E-03 0.  1.
         23    2    1    2    0    0 -0.17763568394E-14  0.00000000000E+00  0.00000000000E+00  0.91188000000E+02  0.91188000000E+02 0.  0.
    9900012    2    3    3    0    0 -0.10353761654E+02  0.89502777083E+01 -0.41186348334E+02  0.47787272581E+02  0.20000007006E+02 0.  0.
         12    1    3    3    0    0  0.10353761654E+02 -0.89502777083E+01  0.41186348334E+02  0.43400727419E+02  0.00000000000E+00 0. -1.
         11    1    4    4    0    0 -0.22590312347E+01  0.41394644974E+01 -0.58160749049E+00  0.47514898693E+01  0.51100000000E-03 0. -1.
        -11    1    4    4    0    0  0.22758753532E+01  0.29227819845E+01 -0.11417092921E+02  0.12003011046E+02  0.51100000000E-03 0.  1.
        -12    1    4    4    0    0 -0.10370605773E+02  0.18880312264E+01 -0.29187647922E+02  0.31032771665E+02  0.00000000000E+00 0.  1.
</event>
<event>
 8    1  0.5542925E-011  0.9118800E+02  0.7816164E-02  0.1184000E+00
        -11   -1    0    0    0    0  0.00000000000E+00  0.00000000000E+00  0.45593999997E+02  0.45594000000E+02  0.51100000000E-03 0.  1.
         11   -1    0    0    0    0 -0.00000000000E+00 -0.00000000000E+00 -0.45593999997E+02  0.45594000000E+02  0.51100000000E-03 0. -1.
         23    2    1    2    0    0  0.71054273576E-14  0.00000000000E+00  0.17763568394E-14  0.91188000000E+02  0.91188000000E+02 0.  0.
    9900012    2    3    3    0    0  0.40372682887E+02  0.11895346892E+02  0.10591060906E+02  0.47787269911E+02  0.19999994831E+02 0.  0.
         12    1    3    3    0    0 -0.40372682887E+02 -0.11895346892E+02 -0.10591060906E+02  0.43400730089E+02  0.00000000000E+00 0. -1.
         11    1    4    4    0    0  0.13803476427E+01  0.11200394039E+01  0.43603701000E+01  0.47087870573E+01  0.51100000000E-03 0. -1.
        -11    1    4    4    0    0  0.10627827277E+02 -0.30061281669E+01  0.74744965647E+00  0.11070058736E+02  0.51100000000E-03 0.  1.
         12    1    4    4    0    0  0.28364507967E+02  0.13781435655E+02  0.54832411496E+01  0.32008424117E+02  0.00000000000E+00 0. -1.
</event>
<event>
 8    1  0.7785364E-011  0.9118800E+02  0.7816164E-02  0.1184000E+00
        -11   -1    0    0    0    0  0.00000000000E+00  0.00000000000E+00  0.45593999997E+02  0.45594000000E+02  0.51100000000E-03 0. -1.
         11   -1    0    0    0    0 -0.00000000000E+00 -0.00000000000E+00 -0.45593999997E+02  0.45594000000E+02  0.51100000000E-03 0.  1.
         23    2    1    2    0    0 -0.22204460493E-15  0.00000000000E+00  0.00000000000E+00  0.91188000000E+02  0.91188000000E+02 0.  0.
    9900012    2    3    3    0    0 -0.19726367723E+01 -0.33457468399E+01  0.43226590807E+02  0.47787268779E+02  0.19999989671E+02 0.  0.
        -12    1    3    3    0    0  0.19726367723E+01  0.33457468399E+01 -0.43226590807E+02  0.43400731221E+02  0.00000000000E+00 0.  1.
         11    1    4    4    0    0  0.64432868650E+00 -0.56554255381E+01  0.49637963831E+01  0.75523686528E+01  0.51100000000E-03 0. -1.
        -11    1    4    4    0    0  0.56522217110E+00 -0.22874097627E+00 -0.77462656406E+00  0.98582204875E+00  0.51100000000E-03 0.  1.
         12    1    4    4    0    0 -0.31821876299E+01  0.25384196745E+01  0.39037420988E+02  0.39249078077E+02  0.00000000000E+00 0. -1.
</event>
<event>
 8    1  0.5542925E-011  0.9118800E+02  0.7816164E-02  0.1184000E+00
        -11   -1    0    0    0    0  0.00000000000E+00  0.00000000000E+00  0.45593999997E+02  0.45594000000E+02  0.51100000000E-03 0. -1.
         11   -1    0    0    0    0 -0.00000000000E+00 -0.00000000000E+00 -0.45593999997E+02  0.45594000000E+02  0.51100000000E-03 0.  1.
         23    2    1    2    0    0  0.00000000000E+00 -0.17763568394E-14  0.00000000000E+00  0.91188000000E+02  0.91188000000E+02 0.  0.
    9900012    2    3    3    0    0 -0.26180216638E+02  0.12506860763E+02  0.32276902059E+02  0.47787265952E+02  0.19999976780E+02 0.  0.
        -12    1    3    3    0    0  0.26180216638E+02 -0.12506860763E+02 -0.32276902059E+02  0.43400734048E+02  0.00000000000E+00 0.  1.
         11    1    4    4    0    0 -0.29900973985E+01 -0.24385874743E+01  0.54231746810E+01  0.66556904379E+01  0.51100000000E-03 0. -1.
        -11    1    4    4    0    0 -0.21736871667E+02  0.69362823982E+01  0.21759222659E+02  0.31528834015E+02  0.51100000000E-03 0.  1.
        -12    1    4    4    0    0 -0.14532475727E+01  0.80091658396E+01  0.50945047192E+01  0.96027414985E+01  0.00000000000E+00 0.  1.
</event>
<event>
 8    1  0.5542925E-011  0.9118800E+02  0.7816164E-02  0.1184000E+00
        -11   -1    0    0    0    0  0.00000000000E+00  0.00000000000E+00  0.45593999997E+02  0.45594000000E+02  0.51100000000E-03 0. -1.
         11   -1    0    0    0    0 -0.00000000000E+00 -0.00000000000E+00 -0.45593999997E+02  0.45594000000E+02  0.51100000000E-03 0.  1.
         23    2    1    2    0    0  0.00000000000E+00 -0.88817841970E-15  0.00000000000E+00  0.91188000000E+02  0.91188000000E+02 0.  0.
    9900012    2    3    3    0    0  0.24796805945E+02  0.52986726330E+01  0.35223084073E+02  0.47787272260E+02  0.20000005542E+02 0.  0.
        -12    1    3    3    0    0 -0.24796805945E+02 -0.52986726330E+01 -0.35223084073E+02  0.43400727740E+02  0.00000000000E+00 0.  1.
         11    1    4    4    0    0  0.10005889704E+02  0.40415903259E+01  0.13693360522E+02  0.17434460237E+02  0.51100000000E-03 0. -1.
        -11    1    4    4    0    0  0.71376740783E+01  0.21383561448E+01  0.21386868293E+02  0.22647673035E+02  0.51100000000E-03 0.  1.
        -12    1    4    4    0    0  0.76532421635E+01 -0.88127383771E+00  0.14285525750E+00  0.77051389874E+01  0.00000000000E+00 0.  1.
</event>
<event>
 8    1  0.5542925E-011  0.9118800E+02  0.7816164E-02  0.1184000E+00
        -11   -1    0    0    0    0  0.00000000000E+00  0.00000000000E+00  0.45593999997E+02  0.45594000000E+02  0.51100000000E-03 0. -1.
         11   -1    0    0    0    0 -0.00000000000E+00 -0.00000000000E+00 -0.45593999997E+02  0.45594000000E+02  0.51100000000E-03 0.  1.
         23    2    1    2    0    0  0.00000000000E+00  0.17763568394E-14  0.71054273576E-14  0.91188000000E+02  0.91188000000E+02 0.  0.
    9900012    2    3    3    0    0  0.26177302849E+02 -0.33498609787E+01 -0.34455093164E+02  0.47787237357E+02  0.19999846407E+02 0.  0.
         12    1    3    3    0    0 -0.26177302849E+02  0.33498609787E+01  0.34455093164E+02  0.43400762643E+02  0.00000000000E+00 0. -1.
         11    1    4    4    0    0  0.77621611145E+01 -0.82090463979E+01 -0.80896495359E+01  0.13895395561E+02  0.51100000000E-03 0. -1.
        -11    1    4    4    0    0  0.79571716876E+01 -0.26406714090E+01 -0.11462673897E+02  0.14201500621E+02  0.51100000000E-03 0.  1.
         12    1    4    4    0    0  0.10457970047E+02  0.74998568282E+01 -0.14902769731E+02  0.19690341175E+02  0.00000000000E+00 0. -1.
</event>
<event>
 8    1  0.5542925E-011  0.9118800E+02  0.7816164E-02  0.1184000E+00
        -11   -1    0    0    0    0  0.00000000000E+00  0.00000000000E+00  0.45593999997E+02  0.45594000000E+02  0.51100000000E-03 0. -1.
         11   -1    0    0    0    0 -0.00000000000E+00 -0.00000000000E+00 -0.45593999997E+02  0.45594000000E+02  0.51100000000E-03 0.  1.
         23    2    1    2    0    0  0.00000000000E+00  0.00000000000E+00  0.00000000000E+00  0.91188000000E+02  0.91188000000E+02 0.  0.
    9900012    2    3    3    0    0 -0.34710368612E+02  0.15255125644E+02 -0.21120949281E+02  0.47787273669E+02  0.20000011965E+02 0.  0.
         12    1    3    3    0    0  0.34710368612E+02 -0.15255125644E+02  0.21120949281E+02  0.43400726331E+02  0.00000000000E+00 0. -1.
         11    1    4    4    0    0 -0.79281830814E+01  0.60554594557E+01 -0.13659895155E+02  0.16915005531E+02  0.51100000000E-03 0.  1.
        -11    1    4    4    0    0 -0.10465812698E+02  0.76223280164E+01 -0.64073171048E+01  0.14445997112E+02  0.51100000000E-03 0. -1.
        -12    1    4    4    0    0 -0.16316372832E+02  0.15773381719E+01 -0.10537370206E+01  0.16426271026E+02  0.00000000000E+00 0.  1.
</event>
<event>
 8    1  0.1427386E-010  0.9118800E+02  0.7816164E-02  0.1184000E+00
        -11   -1    0    0    0    0  0.00000000000E+00  0.00000000000E+00  0.45593999997E+02  0.45594000000E+02  0.51100000000E-03 0. -1.
         11   -1    0    0    0    0 -0.00000000000E+00 -0.00000000000E+00 -0.45593999997E+02  0.45594000000E+02  0.51100000000E-03 0.  1.
         23    2    1    2    0    0 -0.35527136788E-14  0.00000000000E+00  0.00000000000E+00  0.91188000000E+02  0.91188000000E+02 0.  0.
    9900012    2    3    3    0    0  0.21111274271E+02  0.85827343406E+01  0.36936085332E+02  0.47787266944E+02  0.19999981305E+02 0.  0.
        -12    1    3    3    0    0 -0.21111274271E+02 -0.85827343406E+01 -0.36936085332E+02  0.43400733056E+02  0.00000000000E+00 0.  1.
         11    1    4    4    0    0  0.21313687797E+01  0.54692287453E+01  0.19902860519E+01  0.61980992871E+01  0.51100000000E-03 0. -1.
        -11    1    4    4    0    0  0.76561055835E+00 -0.30695471322E+01  0.67822907819E+01  0.74838324163E+01  0.51100000000E-03 0.  1.
         12    1    4    4    0    0  0.18214294933E+02  0.61830527275E+01  0.28163508498E+02  0.34105335241E+02  0.00000000000E+00 0. -1.
</event>
<event>
 8    1  0.5542925E-011  0.9118800E+02  0.7816164E-02  0.1184000E+00
        -11   -1    0    0    0    0  0.00000000000E+00  0.00000000000E+00  0.45593999997E+02  0.45594000000E+02  0.51100000000E-03 0. -1.
         11   -1    0    0    0    0 -0.00000000000E+00 -0.00000000000E+00 -0.45593999997E+02  0.45594000000E+02  0.51100000000E-03 0.  1.
         23    2    1    2    0    0 -0.88817841970E-15  0.00000000000E+00 -0.35527136788E-14  0.91188000000E+02  0.91188000000E+02 0.  0.
    9900012    2    3    3    0    0 -0.42217840459E+01  0.34120317969E+02 -0.26487799351E+02  0.47787273356E+02  0.20000010537E+02 0.  0.
         12    1    3    3    0    0  0.42217840459E+01 -0.34120317969E+02  0.26487799351E+02  0.43400726644E+02  0.00000000000E+00 0. -1.
         11    1    4    4    0    0 -0.19107436568E+01  0.16701990294E+02 -0.14317192314E+02  0.22081426972E+02  0.51100000000E-03 0. -1.
        -11    1    4    4    0    0  0.12310278617E+01  0.16856038039E+02 -0.13749377818E+02  0.21787309118E+02  0.51100000000E-03 0.  1.
         12    1    4    4    0    0 -0.35420682509E+01  0.56228963585E+00  0.15787707804E+01  0.39185372661E+01  0.00000000000E+00 0. -1.
</event>
<event>
 8    1  0.5542925E-011  0.9118800E+02  0.7816164E-02  0.1184000E+00
        -11   -1    0    0    0    0  0.00000000000E+00  0.00000000000E+00  0.45593999997E+02  0.45594000000E+02  0.51100000000E-03 0. -1.
         11   -1    0    0    0    0 -0.00000000000E+00 -0.00000000000E+00 -0.45593999997E+02  0.45594000000E+02  0.51100000000E-03 0.  1.
         23    2    1    2    0    0  0.00000000000E+00  0.00000000000E+00  0.00000000000E+00  0.91188000000E+02  0.91188000000E+02 0.  0.
    9900012    2    3    3    0    0  0.28934907846E+02 -0.74866595476E+01 -0.31469735674E+02  0.47787271589E+02  0.20000002484E+02 0.  0.
         12    1    3    3    0    0 -0.28934907846E+02  0.74866595476E+01  0.31469735674E+02  0.43400728411E+02  0.00000000000E+00 0. -1.
         11    1    4    4    0    0  0.17703714371E+01  0.10175462429E+01 -0.11173485060E+02  0.11358537936E+02  0.51100000000E-03 0. -1.
        -11    1    4    4    0    0  0.10869850073E+02 -0.17507094751E+01 -0.13749032200E+02  0.17614043004E+02  0.51100000000E-03 0.  1.
         12    1    4    4    0    0  0.16294686336E+02 -0.67534963154E+01 -0.65472184136E+01  0.18814690649E+02  0.00000000000E+00 0. -1.
</event>
<event>
 8    1  0.5542925E-011  0.9118800E+02  0.7816164E-02  0.1184000E+00
        -11   -1    0    0    0    0  0.00000000000E+00  0.00000000000E+00  0.45593999997E+02  0.45594000000E+02  0.51100000000E-03 0. -1.
         11   -1    0    0    0    0 -0.00000000000E+00 -0.00000000000E+00 -0.45593999997E+02  0.45594000000E+02  0.51100000000E-03 0.  1.
         23    2    1    2    0    0  0.00000000000E+00  0.14210854715E-13 -0.17763568394E-14  0.91188000000E+02  0.91188000000E+02 0.  0.
    9900012    2    3    3    0    0 -0.64687374086E+01  0.41078620896E+02 -0.12422756146E+02  0.47787279630E+02  0.20000039144E+02 0.  0.
         12    1    3    3    0    0  0.64687374086E+01 -0.41078620896E+02  0.12422756146E+02  0.43400720370E+02  0.00000000000E+00 0. -1.
         11    1    4    4    0    0 -0.15822890585E+00  0.20774069866E+01 -0.54076079668E+01  0.57950738009E+01  0.51100000000E-03 0. -1.
        -11    1    4    4    0    0 -0.82524542453E+01  0.23455183517E+02 -0.94285833113E-01  0.24864784836E+02  0.51100000000E-03 0.  1.
         12    1    4    4    0    0  0.19419457425E+01  0.15546030393E+02 -0.69208623462E+01  0.17127420993E+02  0.00000000000E+00 0. -1.
</event>
<event>
 8    1  0.5542925E-011  0.9118800E+02  0.7816164E-02  0.1184000E+00
        -11   -1    0    0    0    0  0.00000000000E+00  0.00000000000E+00  0.45593999997E+02  0.45594000000E+02  0.51100000000E-03 0.  1.
         11   -1    0    0    0    0 -0.00000000000E+00 -0.00000000000E+00 -0.45593999997E+02  0.45594000000E+02  0.51100000000E-03 0. -1.
         23    2    1    2    0    0  0.00000000000E+00 -0.35527136788E-14  0.44408920985E-15  0.91188000000E+02  0.91188000000E+02 0.  0.
    9900012    2    3    3    0    0  0.32514235896E+02  0.28632416566E+02 -0.25754008619E+01  0.47787268394E+02  0.19999987916E+02 0.  0.
        -12    1    3    3    0    0 -0.32514235896E+02 -0.28632416566E+02  0.25754008619E+01  0.43400731606E+02  0.00000000000E+00 0.  1.
         11    1    4    4    0    0  0.28058368442E+02  0.15994037149E+02  0.77074623096E+00  0.32305964062E+02  0.51100000000E-03 0. -1.
        -11    1    4    4    0    0  0.61255555582E+01  0.81392605552E+01 -0.32095414288E+01  0.10680409624E+02  0.51100000000E-03 0.  1.
        -12    1    4    4    0    0 -0.16696881039E+01  0.44991188621E+01 -0.13660566405E+00  0.48008947090E+01  0.00000000000E+00 0.  1.
</event>
<event>
 8    1  0.5542925E-011  0.9118800E+02  0.7816164E-02  0.1184000E+00
        -11   -1    0    0    0    0  0.00000000000E+00  0.00000000000E+00  0.45593999997E+02  0.45594000000E+02  0.51100000000E-03 0.  1.
         11   -1    0    0    0    0 -0.00000000000E+00 -0.00000000000E+00 -0.45593999997E+02  0.45594000000E+02  0.51100000000E-03 0. -1.
         23    2    1    2    0    0  0.71054273576E-14  0.88817841970E-15  0.00000000000E+00  0.91188000000E+02  0.91188000000E+02 0.  0.
    9900012    2    3    3    0    0 -0.37690017364E+02  0.72933682827E+01  0.20245807412E+02  0.47787270195E+02  0.19999996129E+02 0.  0.
        -12    1    3    3    0    0  0.37690017364E+02 -0.72933682827E+01 -0.20245807412E+02  0.43400729805E+02  0.00000000000E+00 0.  1.
         11    1    4    4    0    0 -0.74205846353E+01  0.58082586312E+01  0.12835149066E+01  0.95104340297E+01  0.51100000000E-03 0. -1.
        -11    1    4    4    0    0 -0.68173917973E+00  0.13612021124E+01 -0.16284915837E+01  0.22292654843E+01  0.51100000000E-03 0.  1.
         12    1    4    4    0    0 -0.29587693549E+02  0.12390753908E+00  0.20590784089E+02  0.36047570681E+02  0.00000000000E+00 0. -1.
</event>
<event>
 8    1  0.5542925E-011  0.9118800E+02  0.7816164E-02  0.1184000E+00
        -11   -1    0    0    0    0  0.00000000000E+00  0.00000000000E+00  0.45593999997E+02  0.45594000000E+02  0.51100000000E-03 0. -1.
         11   -1    0    0    0    0 -0.00000000000E+00 -0.00000000000E+00 -0.45593999997E+02  0.45594000000E+02  0.51100000000E-03 0.  1.
         23    2    1    2    0    0  0.00000000000E+00 -0.37470027081E-15  0.00000000000E+00  0.91188000000E+02  0.91188000000E+02 0.  0.
    9900012    2    3    3    0    0 -0.16612334259E+02  0.43292050256E-01 -0.40095529056E+02  0.47787274499E+02  0.20000015752E+02 0.  0.
         12    1    3    3    0    0  0.16612334259E+02 -0.43292050256E-01  0.40095529056E+02  0.43400725501E+02  0.00000000000E+00 0. -1.
         11    1    4    4    0    0 -0.92914176050E+00 -0.34229058598E+01 -0.10740896218E+02  0.11311341245E+02  0.51100000000E-03 0. -1.
        -11    1    4    4    0    0  0.63748276695E+00 -0.10272418270E+01 -0.12601947763E+02  0.12659806386E+02  0.51100000000E-03 0.  1.
        -12    1    4    4    0    0 -0.16320675266E+02  0.44934397371E+01 -0.16752685075E+02  0.23816126869E+02  0.00000000000E+00 0.  1.
</event>
<event>
 8    1  0.5542925E-011  0.9118800E+02  0.7816164E-02  0.1184000E+00
        -11   -1    0    0    0    0  0.00000000000E+00  0.00000000000E+00  0.45593999997E+02  0.45594000000E+02  0.51100000000E-03 0.  1.
         11   -1    0    0    0    0 -0.00000000000E+00 -0.00000000000E+00 -0.45593999997E+02  0.45594000000E+02  0.51100000000E-03 0. -1.
         23    2    1    2    0    0 -0.71054273576E-14  0.00000000000E+00 -0.17763568394E-14  0.91188000000E+02  0.91188000000E+02 0.  0.
    9900012    2    3    3    0    0 -0.41545579997E+02  0.54011591963E+01 -0.11332050862E+02  0.47787272878E+02  0.20000008361E+02 0.  0.
        -12    1    3    3    0    0  0.41545579997E+02 -0.54011591963E+01  0.11332050862E+02  0.43400727122E+02  0.00000000000E+00 0.  1.
         11    1    4    4    0    0 -0.11580107298E+02  0.13919456337E+01 -0.50512357446E+01  0.12710286404E+02  0.51100000000E-03 0. -1.
        -11    1    4    4    0    0 -0.80267612403E+01 -0.37721811512E+01  0.38770669475E+01  0.96793540602E+01  0.51100000000E-03 0.  1.
         12    1    4    4    0    0 -0.21938711459E+02  0.77813947138E+01 -0.10157882064E+02  0.25397632414E+02  0.00000000000E+00 0. -1.
</event>
<event>
 8    1  0.5542925E-011  0.9118800E+02  0.7816164E-02  0.1184000E+00
        -11   -1    0    0    0    0  0.00000000000E+00  0.00000000000E+00  0.45593999997E+02  0.45594000000E+02  0.51100000000E-03 0.  1.
         11   -1    0    0    0    0 -0.00000000000E+00 -0.00000000000E+00 -0.45593999997E+02  0.45594000000E+02  0.51100000000E-03 0. -1.
         23    2    1    2    0    0  0.00000000000E+00  0.00000000000E+00  0.35527136788E-14  0.91188000000E+02  0.91188000000E+02 0.  0.
    9900012    2    3    3    0    0  0.35009580517E+02  0.19539541577E+02  0.16618022628E+02  0.47787273174E+02  0.20000009708E+02 0.  0.
        -12    1    3    3    0    0 -0.35009580517E+02 -0.19539541577E+02 -0.16618022628E+02  0.43400726826E+02  0.00000000000E+00 0.  1.
         11    1    4    4    0    0  0.16979274977E+02  0.96232081233E+01  0.10774369163E+02  0.22293248853E+02  0.51100000000E-03 0. -1.
        -11    1    4    4    0    0  0.10063722616E+02 -0.19510244325E+01  0.43039453950E+01  0.11117956442E+02  0.51100000000E-03 0.  1.
        -12    1    4    4    0    0  0.79665829238E+01  0.11867357887E+02  0.15397080700E+01  0.14376067878E+02  0.00000000000E+00 0.  1.
</event>
<event>
 8    1  0.5542925E-011  0.9118800E+02  0.7816164E-02  0.1184000E+00
        -11   -1    0    0    0    0  0.00000000000E+00  0.00000000000E+00  0.45593999997E+02  0.45594000000E+02  0.51100000000E-03 0. -1.
         11   -1    0    0    0    0 -0.00000000000E+00 -0.00000000000E+00 -0.45593999997E+02  0.45594000000E+02  0.51100000000E-03 0.  1.
         23    2    1    2    0    0  0.00000000000E+00  0.88817841970E-15  0.71054273576E-14  0.91188000000E+02  0.91188000000E+02 0.  0.
    9900012    2    3    3    0    0  0.68112658325E+01  0.42458705850E+01  0.42652111847E+02  0.47787269542E+02  0.19999993149E+02 0.  0.
        -12    1    3    3    0    0 -0.68112658325E+01 -0.42458705850E+01 -0.42652111847E+02  0.43400730458E+02  0.00000000000E+00 0.  1.
         11    1    4    4    0    0 -0.16778903834E+01  0.22554435691E+01  0.24921150644E+02  0.25079196389E+02  0.51100000000E-03 0. -1.
        -11    1    4    4    0    0  0.16562937325E+01 -0.23644642039E+01  0.13018382881E+02  0.13334627591E+02  0.51100000000E-03 0.  1.
        -12    1    4    4    0    0  0.68328624834E+01  0.43548912199E+01  0.47125783220E+01  0.93734455615E+01  0.00000000000E+00 0.  1.
</event>
<event>
 8    1  0.5542925E-011  0.9118800E+02  0.7816164E-02  0.1184000E+00
        -11   -1    0    0    0    0  0.00000000000E+00  0.00000000000E+00  0.45593999997E+02  0.45594000000E+02  0.51100000000E-03 0. -1.
         11   -1    0    0    0    0 -0.00000000000E+00 -0.00000000000E+00 -0.45593999997E+02  0.45594000000E+02  0.51100000000E-03 0.  1.
         23    2    1    2    0    0  0.17763568394E-14  0.71054273576E-14 -0.35527136788E-14  0.91188000000E+02  0.91188000000E+02 0.  0.
    9900012    2    3    3    0    0  0.64174328320E+01  0.39000757360E+02 -0.17927101412E+02  0.47787268626E+02  0.19999988974E+02 0.  0.
         12    1    3    3    0    0 -0.64174328320E+01 -0.39000757360E+02  0.17927101412E+02  0.43400731374E+02  0.00000000000E+00 0. -1.
         11    1    4    4    0    0  0.11336982402E+01  0.13336300202E+01  0.17538459619E+01  0.24778653413E+01  0.51100000000E-03 0. -1.
        -11    1    4    4    0    0  0.95590244718E+01  0.29589816718E+02 -0.11859122750E+02  0.33280189226E+02  0.51100000000E-03 0.  1.
         12    1    4    4    0    0 -0.42752898800E+01  0.80773106211E+01 -0.78218246231E+01  0.12029214058E+02  0.00000000000E+00 0. -1.
</event>
<event>
 8    1  0.5542925E-011  0.9118800E+02  0.7816164E-02  0.1184000E+00
        -11   -1    0    0    0    0  0.00000000000E+00  0.00000000000E+00  0.45593999997E+02  0.45594000000E+02  0.51100000000E-03 0. -1.
         11   -1    0    0    0    0 -0.00000000000E+00 -0.00000000000E+00 -0.45593999997E+02  0.45594000000E+02  0.51100000000E-03 0.  1.
         23    2    1    2    0    0 -0.44408920985E-15  0.00000000000E+00  0.00000000000E+00  0.91188000000E+02  0.91188000000E+02 0.  0.
    9900012    2    3    3    0    0  0.32121725816E+01  0.35172093249E+02 -0.25223624031E+02  0.47787246487E+02  0.19999888032E+02 0.  0.
         12    1    3    3    0    0 -0.32121725816E+01 -0.35172093249E+02  0.25223624031E+02  0.43400753513E+02  0.00000000000E+00 0. -1.
         11    1    4    4    0    0  0.32564642621E+01  0.48600538633E+01 -0.29449360333E+01  0.65496054496E+01  0.51100000000E-03 0. -1.
        -11    1    4    4    0    0  0.65049000277E+01  0.41268919914E+01 -0.52761379297E+01  0.93371619668E+01  0.51100000000E-03 0.  1.
         12    1    4    4    0    0 -0.65491917081E+01  0.26185147395E+02 -0.17002550068E+02  0.31900479071E+02  0.00000000000E+00 0. -1.
</event>
<event>
 8    1  0.5542925E-011  0.9118800E+02  0.7816164E-02  0.1184000E+00
        -11   -1    0    0    0    0  0.00000000000E+00  0.00000000000E+00  0.45593999997E+02  0.45594000000E+02  0.51100000000E-03 0. -1.
         11   -1    0    0    0    0 -0.00000000000E+00 -0.00000000000E+00 -0.45593999997E+02  0.45594000000E+02  0.51100000000E-03 0.  1.
         23    2    1    2    0    0  0.00000000000E+00  0.00000000000E+00  0.35527136788E-14  0.91188000000E+02  0.91188000000E+02 0.  0.
    9900012    2    3    3    0    0  0.18360629057E+02  0.32640902453E+02  0.21933586257E+02  0.47787269379E+02  0.19999992408E+02 0.  0.
        -12    1    3    3    0    0 -0.18360629057E+02 -0.32640902453E+02 -0.21933586257E+02  0.43400730621E+02  0.00000000000E+00 0.  1.
         11    1    4    4    0    0  0.83638981222E+01  0.72824334980E+01  0.10363871228E+02  0.15178881927E+02  0.51100000000E-03 0. -1.
        -11    1    4    4    0    0  0.15905379666E+01 -0.17464425183E+00 -0.19469580670E+01  0.25201106352E+01  0.51100000000E-03 0.  1.
        -12    1    4    4    0    0  0.84061929679E+01  0.25533113207E+02  0.13516673095E+02  0.30088276817E+02  0.00000000000E+00 0.  1.
</event>
<event>
 8    1  0.5542925E-011  0.9118800E+02  0.7816164E-02  0.1184000E+00
        -11   -1    0    0    0    0  0.00000000000E+00  0.00000000000E+00  0.45593999997E+02  0.45594000000E+02  0.51100000000E-03 0. -1.
         11   -1    0    0    0    0 -0.00000000000E+00 -0.00000000000E+00 -0.45593999997E+02  0.45594000000E+02  0.51100000000E-03 0.  1.
         23    2    1    2    0    0  0.71054273576E-14  0.17763568394E-14 -0.17763568394E-14  0.91188000000E+02  0.91188000000E+02 0.  0.
    9900012    2    3    3    0    0  0.38750074015E+02  0.15308560516E+02 -0.12153323758E+02  0.47787267983E+02  0.19999986044E+02 0.  0.
         12    1    3    3    0    0 -0.38750074015E+02 -0.15308560516E+02  0.12153323758E+02  0.43400732017E+02  0.00000000000E+00 0. -1.
         11    1    4    4    0    0  0.17800518430E+02  0.28174163991E+01 -0.12492412983E+02  0.21928444403E+02  0.51100000000E-03 0. -1.
        -11    1    4    4    0    0  0.49093813688E+01  0.62267560139E+01 -0.26924055378E+01  0.83739813543E+01  0.51100000000E-03 0.  1.
         12    1    4    4    0    0  0.16040174216E+02  0.62643881027E+01  0.30314947627E+01  0.17484842226E+02  0.00000000000E+00 0. -1.
</event>
<event>
 8    1  0.5542925E-011  0.9118800E+02  0.7816164E-02  0.1184000E+00
        -11   -1    0    0    0    0  0.00000000000E+00  0.00000000000E+00  0.45593999997E+02  0.45594000000E+02  0.51100000000E-03 0. -1.
         11   -1    0    0    0    0 -0.00000000000E+00 -0.00000000000E+00 -0.45593999997E+02  0.45594000000E+02  0.51100000000E-03 0.  1.
         23    2    1    2    0    0  0.35527136788E-14  0.00000000000E+00  0.00000000000E+00  0.91188000000E+02  0.91188000000E+02 0.  0.
    9900012    2    3    3    0    0  0.16993216027E+02  0.12427109159E+02 -0.37952881982E+02  0.47787266322E+02  0.19999978470E+02 0.  0.
         12    1    3    3    0    0 -0.16993216027E+02 -0.12427109159E+02  0.37952881982E+02  0.43400733678E+02  0.00000000000E+00 0. -1.
         11    1    4    4    0    0  0.14162876474E+01 -0.20190896574E+01 -0.50500718280E+01  0.56201262863E+01  0.51100000000E-03 0. -1.
        -11    1    4    4    0    0  0.16441351236E+02  0.74949563393E+01 -0.17083796405E+02  0.24866614182E+02  0.51100000000E-03 0.  1.
         12    1    4    4    0    0 -0.86442285549E+00  0.69512424767E+01 -0.15819013749E+02  0.17300525854E+02  0.00000000000E+00 0. -1.
</event>
<event>
 8    1  0.5542925E-011  0.9118800E+02  0.7816164E-02  0.1184000E+00
        -11   -1    0    0    0    0  0.00000000000E+00  0.00000000000E+00  0.45593999997E+02  0.45594000000E+02  0.51100000000E-03 0. -1.
         11   -1    0    0    0    0 -0.00000000000E+00 -0.00000000000E+00 -0.45593999997E+02  0.45594000000E+02  0.51100000000E-03 0.  1.
         23    2    1    2    0    0  0.00000000000E+00  0.00000000000E+00  0.00000000000E+00  0.91188000000E+02  0.91188000000E+02 0.  0.
    9900012    2    3    3    0    0  0.21475390812E+01  0.21502008156E+02 -0.37638746386E+02  0.47787268343E+02  0.19999987684E+02 0.  0.
         12    1    3    3    0    0 -0.21475390812E+01 -0.21502008156E+02  0.37638746386E+02  0.43400731657E+02  0.00000000000E+00 0. -1.
         11    1    4    4    0    0 -0.15884830762E+01  0.20146821811E+01  0.68653458281E-01  0.25665027436E+01  0.51100000000E-03 0. -1.
        -11    1    4    4    0    0  0.13330311995E+01  0.16798019012E+01 -0.19578166389E+02  0.19695261004E+02  0.51100000000E-03 0.  1.
        -12    1    4    4    0    0  0.24029909579E+01  0.17807524073E+02 -0.18129233455E+02  0.25525504595E+02  0.00000000000E+00 0.  1.
</event>
<event>
 8    1  0.5542925E-011  0.9118800E+02  0.7816164E-02  0.1184000E+00
        -11   -1    0    0    0    0  0.00000000000E+00  0.00000000000E+00  0.45593999997E+02  0.45594000000E+02  0.51100000000E-03 0. -1.
         11   -1    0    0    0    0 -0.00000000000E+00 -0.00000000000E+00 -0.45593999997E+02  0.45594000000E+02  0.51100000000E-03 0.  1.
         23    2    1    2    0    0  0.35527136788E-14  0.00000000000E+00 -0.71054273576E-14  0.91188000000E+02  0.91188000000E+02 0.  0.
    9900012    2    3    3    0    0  0.15088310080E+02  0.23888253277E+02 -0.32944156353E+02  0.47787272085E+02  0.20000004745E+02 0.  0.
         12    1    3    3    0    0 -0.15088310080E+02 -0.23888253277E+02  0.32944156353E+02  0.43400727915E+02  0.00000000000E+00 0. -1.
         11    1    4    4    0    0  0.35410338183E+01  0.10265699500E+02 -0.21661817056E+02  0.24231339731E+02  0.51100000000E-03 0. -1.
        -11    1    4    4    0    0 -0.14786957359E+01  0.11037389084E+01 -0.33504418753E+01  0.38249498923E+01  0.51100000000E-03 0.  1.
         12    1    4    4    0    0  0.13025971998E+02  0.12518814869E+02 -0.79318974218E+01  0.19730982462E+02  0.00000000000E+00 0. -1.
</event>
<event>
 8    1  0.5542925E-011  0.9118800E+02  0.7816164E-02  0.1184000E+00
        -11   -1    0    0    0    0  0.00000000000E+00  0.00000000000E+00  0.45593999997E+02  0.45594000000E+02  0.51100000000E-03 0. -1.
         11   -1    0    0    0    0 -0.00000000000E+00 -0.00000000000E+00 -0.45593999997E+02  0.45594000000E+02  0.51100000000E-03 0.  1.
         23    2    1    2    0    0  0.00000000000E+00 -0.88817841970E-15  0.00000000000E+00  0.91188000000E+02  0.91188000000E+02 0.  0.
    9900012    2    3    3    0    0  0.31322612272E+02  0.62675234575E+01  0.29380868414E+02  0.47787270530E+02  0.19999997652E+02 0.  0.
        -12    1    3    3    0    0 -0.31322612272E+02 -0.62675234575E+01 -0.29380868414E+02  0.43400729470E+02  0.00000000000E+00 0.  1.
         11    1    4    4    0    0  0.13799267936E+02  0.76610310111E+01  0.11690437792E+02  0.19641220119E+02  0.51100000000E-03 0. -1.
        -11    1    4    4    0    0  0.68129948028E+01  0.10801173439E+00  0.15746658010E+02  0.17157674769E+02  0.51100000000E-03 0.  1.
        -12    1    4    4    0    0  0.10710349533E+02 -0.15015192880E+01  0.19437726117E+01  0.10988375642E+02  0.00000000000E+00 0.  1.
</event>
<event>
 8    1  0.5542925E-011  0.9118800E+02  0.7816164E-02  0.1184000E+00
        -11   -1    0    0    0    0  0.00000000000E+00  0.00000000000E+00  0.45593999997E+02  0.45594000000E+02  0.51100000000E-03 0. -1.
         11   -1    0    0    0    0 -0.00000000000E+00 -0.00000000000E+00 -0.45593999997E+02  0.45594000000E+02  0.51100000000E-03 0.  1.
         23    2    1    2    0    0  0.00000000000E+00 -0.35527136788E-14 -0.88817841970E-15  0.91188000000E+02  0.91188000000E+02 0.  0.
    9900012    2    3    3    0    0 -0.38594312053E+02  0.18559827852E+02  0.70452207802E+01  0.47787271106E+02  0.20000000279E+02 0.  0.
        -12    1    3    3    0    0  0.38594312053E+02 -0.18559827852E+02 -0.70452207802E+01  0.43400728894E+02  0.00000000000E+00 0.  1.
         11    1    4    4    0    0 -0.18020013113E+00  0.93484793941E-02 -0.19648952447E+00  0.26677307899E+00  0.51100000000E-03 0. -1.
        -11    1    4    4    0    0 -0.12937084304E+02 -0.18033457417E+01 -0.28813636832E+01  0.13376190156E+02  0.51100000000E-03 0.  1.
         12    1    4    4    0    0 -0.25477027618E+02  0.20353825114E+02  0.10123073988E+02  0.34144307871E+02  0.00000000000E+00 0. -1.
</event>
<event>
 8    1  0.5542925E-011  0.9118800E+02  0.7816164E-02  0.1184000E+00
        -11   -1    0    0    0    0  0.00000000000E+00  0.00000000000E+00  0.45593999997E+02  0.45594000000E+02  0.51100000000E-03 0. -1.
         11   -1    0    0    0    0 -0.00000000000E+00 -0.00000000000E+00 -0.45593999997E+02  0.45594000000E+02  0.51100000000E-03 0.  1.
         23    2    1    2    0    0  0.35527136788E-14  0.00000000000E+00  0.00000000000E+00  0.91188000000E+02  0.91188000000E+02 0.  0.
    9900012    2    3    3    0    0  0.28525830040E+02  0.55846853977E+01 -0.32229047819E+02  0.47787271736E+02  0.20000003154E+02 0.  0.
         12    1    3    3    0    0 -0.28525830040E+02 -0.55846853977E+01  0.32229047819E+02  0.43400728264E+02  0.00000000000E+00 0. -1.
         11    1    4    4    0    0 -0.20821012685E+01  0.52311943468E+00 -0.69120124240E+00  0.22553401193E+01  0.51100000000E-03 0. -1.
        -11    1    4    4    0    0  0.40107287992E+01 -0.22576287642E+01 -0.81778122416E+01  0.93839994916E+01  0.51100000000E-03 0.  1.
        -12    1    4    4    0    0  0.26597202509E+02  0.73191947272E+01 -0.23360034335E+02  0.36147932125E+02  0.00000000000E+00 0.  1.
</event>
<event>
 8    1  0.5542925E-011  0.9118800E+02  0.7816164E-02  0.1184000E+00
        -11   -1    0    0    0    0  0.00000000000E+00  0.00000000000E+00  0.45593999997E+02  0.45594000000E+02  0.51100000000E-03 0.  1.
         11   -1    0    0    0    0 -0.00000000000E+00 -0.00000000000E+00 -0.45593999997E+02  0.45594000000E+02  0.51100000000E-03 0. -1.
         23    2    1    2    0    0 -0.88817841970E-15  0.00000000000E+00  0.00000000000E+00  0.91188000000E+02  0.91188000000E+02 0.  0.
    9900012    2    3    3    0    0  0.79264828865E+01 -0.42455354165E+02 -0.42822247821E+01  0.47787266397E+02  0.19999978811E+02 0.  0.
        -12    1    3    3    0    0 -0.79264828865E+01  0.42455354165E+02  0.42822247821E+01  0.43400733603E+02  0.00000000000E+00 0.  1.
         11    1    4    4    0    0  0.26110085911E+01 -0.30336314104E+02 -0.94788318431E+01  0.31889772226E+02  0.51100000000E-03 0. -1.
        -11    1    4    4    0    0 -0.23787602329E+00 -0.82203058832E+01  0.24915371855E+01  0.85928907606E+01  0.51100000000E-03 0.  1.
        -12    1    4    4    0    0  0.55533503187E+01 -0.38987341775E+01  0.27050698754E+01  0.73046034102E+01  0.00000000000E+00 0.  1.
</event>
<event>
 8    1  0.5542925E-011  0.9118800E+02  0.7816164E-02  0.1184000E+00
        -11   -1    0    0    0    0  0.00000000000E+00  0.00000000000E+00  0.45593999997E+02  0.45594000000E+02  0.51100000000E-03 0. -1.
         11   -1    0    0    0    0 -0.00000000000E+00 -0.00000000000E+00 -0.45593999997E+02  0.45594000000E+02  0.51100000000E-03 0.  1.
         23    2    1    2    0    0 -0.88817841970E-15 -0.71054273576E-14  0.71054273576E-14  0.91188000000E+02  0.91188000000E+02 0.  0.
    9900012    2    3    3    0    0 -0.40325097961E+01 -0.28105958756E+02  0.32824036463E+02  0.47787269331E+02  0.19999992189E+02 0.  0.
        -12    1    3    3    0    0  0.40325097961E+01  0.28105958756E+02 -0.32824036463E+02  0.43400730669E+02  0.00000000000E+00 0.  1.
         11    1    4    4    0    0  0.46586150856E-01 -0.12009316809E+02  0.41258005339E+01  0.12698349925E+02  0.51100000000E-03 0.  1.
        -11    1    4    4    0    0  0.76965699345E+00  0.13421644873E+01  0.58771681983E+00  0.16550494614E+01  0.51100000000E-03 0. -1.
         12    1    4    4    0    0 -0.48487529404E+01 -0.17438806433E+02  0.28110519110E+02  0.33433869945E+02  0.00000000000E+00 0. -1.
</event>
<event>
 8    1  0.5542925E-011  0.9118800E+02  0.7816164E-02  0.1184000E+00
        -11   -1    0    0    0    0  0.00000000000E+00  0.00000000000E+00  0.45593999997E+02  0.45594000000E+02  0.51100000000E-03 0. -1.
         11   -1    0    0    0    0 -0.00000000000E+00 -0.00000000000E+00 -0.45593999997E+02  0.45594000000E+02  0.51100000000E-03 0.  1.
         23    2    1    2    0    0  0.00000000000E+00 -0.35527136788E-14  0.00000000000E+00  0.91188000000E+02  0.91188000000E+02 0.  0.
    9900012    2    3    3    0    0 -0.48162363241E+01 -0.19810225935E+02 -0.38314253076E+02  0.47787272210E+02  0.20000005314E+02 0.  0.
         12    1    3    3    0    0  0.48162363241E+01  0.19810225935E+02  0.38314253076E+02  0.43400727790E+02  0.00000000000E+00 0. -1.
         11    1    4    4    0    0  0.72898294714E+00 -0.84813030654E+01 -0.44159622839E+01  0.95898196531E+01  0.51100000000E-03 0. -1.
        -11    1    4    4    0    0 -0.27004468326E+01 -0.91709349454E+01 -0.92867659227E+01  0.13328258792E+02  0.51100000000E-03 0.  1.
         12    1    4    4    0    0 -0.28447724386E+01 -0.21579879245E+01 -0.24611524869E+02  0.24869193765E+02  0.00000000000E+00 0. -1.
</event>
<event>
 8    1  0.5542925E-011  0.9118800E+02  0.7816164E-02  0.1184000E+00
        -11   -1    0    0    0    0  0.00000000000E+00  0.00000000000E+00  0.45593999997E+02  0.45594000000E+02  0.51100000000E-03 0. -1.
         11   -1    0    0    0    0 -0.00000000000E+00 -0.00000000000E+00 -0.45593999997E+02  0.45594000000E+02  0.51100000000E-03 0.  1.
         23    2    1    2    0    0  0.88817841970E-15  0.35527136788E-14  0.00000000000E+00  0.91188000000E+02  0.91188000000E+02 0.  0.
    9900012    2    3    3    0    0 -0.77547087900E+01 -0.27380435774E+02  0.32768875907E+02  0.47787274202E+02  0.20000014397E+02 0.  0.
        -12    1    3    3    0    0  0.77547087900E+01  0.27380435774E+02 -0.32768875907E+02  0.43400725798E+02  0.00000000000E+00 0.  1.
         11    1    4    4    0    0 -0.55721845718E+01 -0.19786298383E+01  0.78653472810E+01  0.98401171258E+01  0.51100000000E-03 0. -1.
        -11    1    4    4    0    0 -0.78232221849E-01 -0.12834845460E+02  0.39599745746E+01  0.13432080150E+02  0.51100000000E-03 0.  1.
         12    1    4    4    0    0 -0.21042919964E+01 -0.12566960476E+02  0.20943554051E+02  0.24515076926E+02  0.00000000000E+00 0. -1.
</event>
<event>
 8    1  0.5542925E-011  0.9118800E+02  0.7816164E-02  0.1184000E+00
        -11   -1    0    0    0    0  0.00000000000E+00  0.00000000000E+00  0.45593999997E+02  0.45594000000E+02  0.51100000000E-03 0. -1.
         11   -1    0    0    0    0 -0.00000000000E+00 -0.00000000000E+00 -0.45593999997E+02  0.45594000000E+02  0.51100000000E-03 0.  1.
         23    2    1    2    0    0  0.17763568394E-14 -0.71054273576E-14  0.71054273576E-14  0.91188000000E+02  0.91188000000E+02 0.  0.
    9900012    2    3    3    0    0  0.13496873876E+02 -0.34812105047E+02  0.22126377535E+02  0.47787252944E+02  0.19999917471E+02 0.  0.
        -12    1    3    3    0    0 -0.13496873876E+02  0.34812105047E+02 -0.22126377535E+02  0.43400747056E+02  0.00000000000E+00 0.  1.
         11    1    4    4    0    0 -0.39622876692E+00 -0.19843662156E+01  0.30184676015E+01  0.36339858882E+01  0.51100000000E-03 0. -1.
        -11    1    4    4    0    0  0.15588541542E+02 -0.18781278282E+02  0.17239336959E+02  0.29881997597E+02  0.51100000000E-03 0.  1.
         12    1    4    4    0    0 -0.16954388986E+01 -0.14046460549E+02  0.18685729748E+01  0.14271269459E+02  0.00000000000E+00 0. -1.
</event>
<event>
 8    1  0.5542925E-011  0.9118800E+02  0.7816164E-02  0.1184000E+00
        -11   -1    0    0    0    0  0.00000000000E+00  0.00000000000E+00  0.45593999997E+02  0.45594000000E+02  0.51100000000E-03 0. -1.
         11   -1    0    0    0    0 -0.00000000000E+00 -0.00000000000E+00 -0.45593999997E+02  0.45594000000E+02  0.51100000000E-03 0.  1.
         23    2    1    2    0    0 -0.35527136788E-14  0.71054273576E-14  0.00000000000E+00  0.91188000000E+02  0.91188000000E+02 0.  0.
    9900012    2    3    3    0    0  0.12767068776E+02  0.32803844596E+02 -0.25387648415E+02  0.47787274690E+02  0.20000016621E+02 0.  0.
         12    1    3    3    0    0 -0.12767068776E+02 -0.32803844596E+02  0.25387648415E+02  0.43400725310E+02  0.00000000000E+00 0. -1.
         11    1    4    4    0    0 -0.67122650533E+00 -0.74713726256E-01 -0.20972619944E+00  0.70718632778E+00  0.51100000000E-03 0. -1.
        -11    1    4    4    0    0  0.10696444566E+02  0.34258715875E+02 -0.25451464778E+02  0.43998302233E+02  0.51100000000E-03 0.  1.
        -12    1    4    4    0    0  0.27418507150E+01 -0.13801575528E+01  0.27354256223E+00  0.30817861294E+01  0.00000000000E+00 0.  1.
</event>
<event>
 8    1  0.5542925E-011  0.9118800E+02  0.7816164E-02  0.1184000E+00
        -11   -1    0    0    0    0  0.00000000000E+00  0.00000000000E+00  0.45593999997E+02  0.45594000000E+02  0.51100000000E-03 0.  1.
         11   -1    0    0    0    0 -0.00000000000E+00 -0.00000000000E+00 -0.45593999997E+02  0.45594000000E+02  0.51100000000E-03 0. -1.
         23    2    1    2    0    0  0.00000000000E+00 -0.17763568394E-14  0.88817841970E-15  0.91188000000E+02  0.91188000000E+02 0.  0.
    9900012    2    3    3    0    0  0.41737532184E+02  0.11205781504E+02  0.40040803023E+01  0.47787265087E+02  0.19999972837E+02 0.  0.
         12    1    3    3    0    0 -0.41737532184E+02 -0.11205781504E+02 -0.40040803023E+01  0.43400734913E+02  0.00000000000E+00 0. -1.
         11    1    4    4    0    0  0.17277876570E+02  0.10903483187E+01  0.75182892337E+01  0.18874282807E+02  0.51100000000E-03 0. -1.
        -11    1    4    4    0    0  0.93260930821E+01  0.15416394482E+01  0.36079104361E+01  0.10117790388E+02  0.51100000000E-03 0.  1.
         12    1    4    4    0    0  0.15133562532E+02  0.85737937371E+01 -0.71221193674E+01  0.18795191892E+02  0.00000000000E+00 0. -1.
</event>
<event>
 8    1  0.5542925E-011  0.9118800E+02  0.7816164E-02  0.1184000E+00
        -11   -1    0    0    0    0  0.00000000000E+00  0.00000000000E+00  0.45593999997E+02  0.45594000000E+02  0.51100000000E-03 0. -1.
         11   -1    0    0    0    0 -0.00000000000E+00 -0.00000000000E+00 -0.45593999997E+02  0.45594000000E+02  0.51100000000E-03 0.  1.
         23    2    1    2    0    0  0.00000000000E+00  0.00000000000E+00  0.00000000000E+00  0.91188000000E+02  0.91188000000E+02 0.  0.
    9900012    2    3    3    0    0 -0.21594960157E+02 -0.35189846099E+02  0.13377420723E+02  0.47787274686E+02  0.20000016602E+02 0.  0.
        -12    1    3    3    0    0  0.21594960157E+02  0.35189846099E+02 -0.13377420723E+02  0.43400725314E+02  0.00000000000E+00 0.  1.
         11    1    4    4    0    0 -0.15344245607E+02 -0.23865141740E+02  0.60039560150E+01  0.29000661227E+02  0.51100000000E-03 0. -1.
        -11    1    4    4    0    0 -0.88103152114E+01 -0.79350629135E+01  0.21435045339E+01  0.12049128164E+02  0.51100000000E-03 0.  1.
        -12    1    4    4    0    0  0.25596006618E+01 -0.33896414457E+01  0.52299601740E+01  0.67374852949E+01  0.00000000000E+00 0.  1.
</event>
<event>
 8    1  0.5542925E-011  0.9118800E+02  0.7816164E-02  0.1184000E+00
        -11   -1    0    0    0    0  0.00000000000E+00  0.00000000000E+00  0.45593999997E+02  0.45594000000E+02  0.51100000000E-03 0. -1.
         11   -1    0    0    0    0 -0.00000000000E+00 -0.00000000000E+00 -0.45593999997E+02  0.45594000000E+02  0.51100000000E-03 0.  1.
         23    2    1    2    0    0 -0.17763568394E-14  0.35527136788E-14  0.35527136788E-14  0.91188000000E+02  0.91188000000E+02 0.  0.
    9900012    2    3    3    0    0  0.15285772603E+02 -0.25434678771E+02 -0.31670892542E+02  0.47787272326E+02  0.20000005841E+02 0.  0.
         12    1    3    3    0    0 -0.15285772603E+02  0.25434678771E+02  0.31670892542E+02  0.43400727674E+02  0.00000000000E+00 0. -1.
         11    1    4    4    0    0 -0.67739338712E+00  0.17027418800E+01 -0.74071975036E+00  0.19765772741E+01  0.51100000000E-03 0. -1.
        -11    1    4    4    0    0  0.12107633180E+02 -0.85972876636E+01 -0.14036294955E+02  0.20433445933E+02  0.51100000000E-03 0.  1.
        -12    1    4    4    0    0  0.38555328101E+01 -0.18540132988E+02 -0.16893877837E+02  0.25377249118E+02  0.00000000000E+00 0.  1.
</event>
<event>
 8    1  0.5542925E-011  0.9118800E+02  0.7816164E-02  0.1184000E+00
        -11   -1    0    0    0    0  0.00000000000E+00  0.00000000000E+00  0.45593999997E+02  0.45594000000E+02  0.51100000000E-03 0. -1.
         11   -1    0    0    0    0 -0.00000000000E+00 -0.00000000000E+00 -0.45593999997E+02  0.45594000000E+02  0.51100000000E-03 0.  1.
         23    2    1    2    0    0  0.35527136788E-14 -0.35527136788E-14  0.00000000000E+00  0.91188000000E+02  0.91188000000E+02 0.  0.
    9900012    2    3    3    0    0  0.26349885934E+02 -0.24073500845E+02  0.24693583887E+02  0.47787274005E+02  0.20000013500E+02 0.  0.
        -12    1    3    3    0    0 -0.26349885934E+02  0.24073500845E+02 -0.24693583887E+02  0.43400725995E+02  0.00000000000E+00 0.  1.
         11    1    4    4    0    0 -0.61060368476E+00 -0.23894988570E+01  0.79677089255E+01  0.83406790749E+01  0.51100000000E-03 0. -1.
        -11    1    4    4    0    0  0.33549833376E+01 -0.21320034549E+01  0.55388048499E+01  0.68176030504E+01  0.51100000000E-03 0.  1.
        -12    1    4    4    0    0  0.23605506281E+02 -0.19551998533E+02  0.11187070112E+02  0.32628991880E+02  0.00000000000E+00 0.  1.
</event>
<event>
 8    1  0.5542925E-011  0.9118800E+02  0.7816164E-02  0.1184000E+00
        -11   -1    0    0    0    0  0.00000000000E+00  0.00000000000E+00  0.45593999997E+02  0.45594000000E+02  0.51100000000E-03 0. -1.
         11   -1    0    0    0    0 -0.00000000000E+00 -0.00000000000E+00 -0.45593999997E+02  0.45594000000E+02  0.51100000000E-03 0.  1.
         23    2    1    2    0    0  0.00000000000E+00 -0.22204460493E-15  0.00000000000E+00  0.91188000000E+02  0.91188000000E+02 0.  0.
    9900012    2    3    3    0    0 -0.98612677573E+01 -0.14163163881E+01  0.42241836760E+02  0.47787270435E+02  0.19999997223E+02 0.  0.
        -12    1    3    3    0    0  0.98612677573E+01  0.14163163881E+01 -0.42241836760E+02  0.43400729565E+02  0.00000000000E+00 0.  1.
         11    1    4    4    0    0 -0.69617721390E+01  0.42638672532E+01  0.20489701199E+02  0.22056171262E+02  0.51100000000E-03 0. -1.
        -11    1    4    4    0    0 -0.76357518055E+01 -0.44521027862E+01  0.13448031902E+02  0.16092715345E+02  0.51100000000E-03 0.  1.
        -12    1    4    4    0    0  0.47362561871E+01 -0.12280808551E+01  0.83041036584E+01  0.96383838286E+01  0.00000000000E+00 0.  1.
</event>
<event>
 8    1  0.5542925E-011  0.9118800E+02  0.7816164E-02  0.1184000E+00
        -11   -1    0    0    0    0  0.00000000000E+00  0.00000000000E+00  0.45593999997E+02  0.45594000000E+02  0.51100000000E-03 0.  1.
         11   -1    0    0    0    0 -0.00000000000E+00 -0.00000000000E+00 -0.45593999997E+02  0.45594000000E+02  0.51100000000E-03 0. -1.
         23    2    1    2    0    0 -0.71054273576E-14  0.00000000000E+00 -0.88817841970E-15  0.91188000000E+02  0.91188000000E+02 0.  0.
    9900012    2    3    3    0    0  0.41988523812E+02  0.10059389141E+02 -0.44040707533E+01  0.47787270962E+02  0.19999999625E+02 0.  0.
         12    1    3    3    0    0 -0.41988523812E+02 -0.10059389141E+02  0.44040707533E+01  0.43400729038E+02  0.00000000000E+00 0. -1.
         11    1    4    4    0    0  0.10916720465E+02  0.73478746660E+00 -0.79020514460E+01  0.13496559401E+02  0.51100000000E-03 0. -1.
        -11    1    4    4    0    0  0.18068379333E+02  0.34834720476E+00 -0.15857358182E+00  0.18072432690E+02  0.51100000000E-03 0.  1.
         12    1    4    4    0    0  0.13003424014E+02  0.89762544696E+01  0.36565542746E+01  0.16218278872E+02  0.00000000000E+00 0. -1.
</event>
<event>
 8    1  0.6578898E-011  0.9118800E+02  0.7816164E-02  0.1184000E+00
        -11   -1    0    0    0    0  0.00000000000E+00  0.00000000000E+00  0.45593999997E+02  0.45594000000E+02  0.51100000000E-03 0. -1.
         11   -1    0    0    0    0 -0.00000000000E+00 -0.00000000000E+00 -0.45593999997E+02  0.45594000000E+02  0.51100000000E-03 0.  1.
         23    2    1    2    0    0  0.00000000000E+00  0.00000000000E+00  0.00000000000E+00  0.91188000000E+02  0.91188000000E+02 0.  0.
    9900012    2    3    3    0    0  0.23241395033E+02  0.18043437026E+02  0.31904469745E+02  0.47787271290E+02  0.20000001121E+02 0.  0.
        -12    1    3    3    0    0 -0.23241395033E+02 -0.18043437026E+02 -0.31904469745E+02  0.43400728710E+02  0.00000000000E+00 0.  1.
         11    1    4    4    0    0  0.58555670425E+01  0.10946328018E+02  0.13877961041E+02  0.18620084999E+02  0.51100000000E-03 0. -1.
        -11    1    4    4    0    0  0.13462841750E+01  0.29845321264E+01 -0.14691704263E+01  0.35886453009E+01  0.51100000000E-03 0.  1.
         12    1    4    4    0    0  0.16039543816E+02  0.41125768819E+01  0.19495679130E+02  0.25578540990E+02  0.00000000000E+00 0. -1.
</event>
<event>
 8    1  0.5542925E-011  0.9118800E+02  0.7816164E-02  0.1184000E+00
        -11   -1    0    0    0    0  0.00000000000E+00  0.00000000000E+00  0.45593999997E+02  0.45594000000E+02  0.51100000000E-03 0. -1.
         11   -1    0    0    0    0 -0.00000000000E+00 -0.00000000000E+00 -0.45593999997E+02  0.45594000000E+02  0.51100000000E-03 0.  1.
         23    2    1    2    0    0  0.71054273576E-14  0.00000000000E+00  0.00000000000E+00  0.91188000000E+02  0.91188000000E+02 0.  0.
    9900012    2    3    3    0    0 -0.22817164765E+02 -0.42831947492E+01  0.36669527672E+02  0.47787273913E+02  0.20000013080E+02 0.  0.
        -12    1    3    3    0    0  0.22817164765E+02  0.42831947492E+01 -0.36669527672E+02  0.43400726087E+02  0.00000000000E+00 0.  1.
         11    1    4    4    0    0 -0.17446115614E+02 -0.37264065733E+01  0.19755937753E+02  0.26618605010E+02  0.51100000000E-03 0. -1.
        -11    1    4    4    0    0 -0.68319593682E+01  0.36286689638E+01  0.75539645251E+01  0.10812274856E+02  0.51100000000E-03 0.  1.
        -12    1    4    4    0    0  0.14609102169E+01 -0.41854571397E+01  0.93596253943E+01  0.10356394047E+02  0.00000000000E+00 0.  1.
</event>
<event>
 8    1  0.5542925E-011  0.9118800E+02  0.7816164E-02  0.1184000E+00
        -11   -1    0    0    0    0  0.00000000000E+00  0.00000000000E+00  0.45593999997E+02  0.45594000000E+02  0.51100000000E-03 0. -1.
         11   -1    0    0    0    0 -0.00000000000E+00 -0.00000000000E+00 -0.45593999997E+02  0.45594000000E+02  0.51100000000E-03 0.  1.
         23    2    1    2    0    0  0.00000000000E+00  0.22204460493E-15  0.17763568394E-14  0.91188000000E+02  0.91188000000E+02 0.  0.
    9900012    2    3    3    0    0 -0.41555004422E+02 -0.18726237502E+01  0.12381358527E+02  0.47787272458E+02  0.20000006444E+02 0.  0.
        -12    1    3    3    0    0  0.41555004422E+02  0.18726237502E+01 -0.12381358527E+02  0.43400727542E+02  0.00000000000E+00 0.  1.
         11    1    4    4    0    0 -0.21857056013E+02 -0.39693245763E+01  0.58108979820E+01  0.22961989695E+02  0.51100000000E-03 0. -1.
        -11    1    4    4    0    0 -0.13088697373E+01  0.42345034802E+01 -0.14306247281E+01  0.46573433507E+01  0.51100000000E-03 0.  1.
         12    1    4    4    0    0 -0.18389078672E+02 -0.21378026540E+01  0.80010852727E+01  0.20167939412E+02  0.00000000000E+00 0. -1.
</event>
<event>
 8    1  0.5542925E-011  0.9118800E+02  0.7816164E-02  0.1184000E+00
        -11   -1    0    0    0    0  0.00000000000E+00  0.00000000000E+00  0.45593999997E+02  0.45594000000E+02  0.51100000000E-03 0.  1.
         11   -1    0    0    0    0 -0.00000000000E+00 -0.00000000000E+00 -0.45593999997E+02  0.45594000000E+02  0.51100000000E-03 0. -1.
         23    2    1    2    0    0  0.00000000000E+00  0.00000000000E+00  0.00000000000E+00  0.91188000000E+02  0.91188000000E+02 0.  0.
    9900012    2    3    3    0    0  0.35999426656E+02  0.22552513938E+02  0.88909381162E+01  0.47787269764E+02  0.19999994161E+02 0.  0.
        -12    1    3    3    0    0 -0.35999426656E+02 -0.22552513938E+02 -0.88909381162E+01  0.43400730236E+02  0.00000000000E+00 0.  1.
         11    1    4    4    0    0  0.11758551284E+02  0.57867206158E+01  0.86656921358E+00  0.13133948616E+02  0.51100000000E-03 0. -1.
        -11    1    4    4    0    0  0.21832831274E+02  0.60890668413E+01  0.66565274342E+01  0.23623264258E+02  0.51100000000E-03 0.  1.
        -12    1    4    4    0    0  0.24080440972E+01  0.10676726481E+02  0.13678414685E+01  0.11030056890E+02  0.00000000000E+00 0.  1.
</event>
<event>
 8    1  0.5542925E-011  0.9118800E+02  0.7816164E-02  0.1184000E+00
        -11   -1    0    0    0    0  0.00000000000E+00  0.00000000000E+00  0.45593999997E+02  0.45594000000E+02  0.51100000000E-03 0. -1.
         11   -1    0    0    0    0 -0.00000000000E+00 -0.00000000000E+00 -0.45593999997E+02  0.45594000000E+02  0.51100000000E-03 0.  1.
         23    2    1    2    0    0  0.00000000000E+00 -0.88817841970E-15  0.35527136788E-14  0.91188000000E+02  0.91188000000E+02 0.  0.
    9900012    2    3    3    0    0 -0.30605445889E+02 -0.74004151489E+01  0.29869107715E+02  0.47787273530E+02  0.20000011331E+02 0.  0.
        -12    1    3    3    0    0  0.30605445889E+02  0.74004151489E+01 -0.29869107715E+02  0.43400726470E+02  0.00000000000E+00 0.  1.
         11    1    4    4    0    0 -0.54802590589E+01 -0.15796272401E+01  0.13989125166E+02  0.15107087236E+02  0.51100000000E-03 0. -1.
        -11    1    4    4    0    0 -0.95346995974E+01 -0.10012350102E+01  0.12931171400E+02  0.16097458247E+02  0.51100000000E-03 0.  1.
        -12    1    4    4    0    0 -0.15590487233E+02 -0.48195528986E+01  0.29488111486E+01  0.16582728047E+02  0.00000000000E+00 0.  1.
</event>
<event>
 8    1  0.5542925E-011  0.9118800E+02  0.7816164E-02  0.1184000E+00
        -11   -1    0    0    0    0  0.00000000000E+00  0.00000000000E+00  0.45593999997E+02  0.45594000000E+02  0.51100000000E-03 0. -1.
         11   -1    0    0    0    0 -0.00000000000E+00 -0.00000000000E+00 -0.45593999997E+02  0.45594000000E+02  0.51100000000E-03 0.  1.
         23    2    1    2    0    0  0.17763568394E-14  0.00000000000E+00  0.00000000000E+00  0.91188000000E+02  0.91188000000E+02 0.  0.
    9900012    2    3    3    0    0  0.12378123463E+02 -0.38612578216E+02 -0.15475101379E+02  0.47787217753E+02  0.19999757021E+02 0.  0.
         12    1    3    3    0    0 -0.12378123463E+02  0.38612578216E+02  0.15475101379E+02  0.43400782247E+02  0.00000000000E+00 0. -1.
         11    1    4    4    0    0  0.72007128379E+00  0.23293761332E+01 -0.11751277841E+01  0.27065515687E+01  0.51100000000E-03 0. -1.
        -11    1    4    4    0    0  0.42657890690E+01 -0.18483033587E+02 -0.81784209130E+01  0.20656864618E+02  0.51100000000E-03 0.  1.
         12    1    4    4    0    0  0.73922631103E+01 -0.22458920763E+02 -0.61215526817E+01  0.24423801566E+02  0.00000000000E+00 0. -1.
</event>
<event>
 8    1  0.5542925E-011  0.9118800E+02  0.7816164E-02  0.1184000E+00
        -11   -1    0    0    0    0  0.00000000000E+00  0.00000000000E+00  0.45593999997E+02  0.45594000000E+02  0.51100000000E-03 0. -1.
         11   -1    0    0    0    0 -0.00000000000E+00 -0.00000000000E+00 -0.45593999997E+02  0.45594000000E+02  0.51100000000E-03 0.  1.
         23    2    1    2    0    0  0.17763568394E-14  0.00000000000E+00  0.00000000000E+00  0.91188000000E+02  0.91188000000E+02 0.  0.
    9900012    2    3    3    0    0 -0.12129115891E+02 -0.40690918035E+02 -0.89865005801E+01  0.47787268952E+02  0.19999990459E+02 0.  0.
         12    1    3    3    0    0  0.12129115891E+02  0.40690918035E+02  0.89865005801E+01  0.43400731048E+02  0.00000000000E+00 0. -1.
         11    1    4    4    0    0  0.56583998531E+00 -0.21534558450E+02 -0.72998102862E+00  0.21554355826E+02  0.51100000000E-03 0. -1.
        -11    1    4    4    0    0 -0.26666026058E+01 -0.22722855811E+01  0.20456362358E+01  0.40569297615E+01  0.51100000000E-03 0.  1.
        -12    1    4    4    0    0 -0.10028353270E+02 -0.16884074004E+02 -0.10302155787E+02  0.22175983364E+02  0.00000000000E+00 0.  1.
</event>
<event>
 8    1  0.5542925E-011  0.9118800E+02  0.7816164E-02  0.1184000E+00
        -11   -1    0    0    0    0  0.00000000000E+00  0.00000000000E+00  0.45593999997E+02  0.45594000000E+02  0.51100000000E-03 0. -1.
         11   -1    0    0    0    0 -0.00000000000E+00 -0.00000000000E+00 -0.45593999997E+02  0.45594000000E+02  0.51100000000E-03 0.  1.
         23    2    1    2    0    0  0.00000000000E+00  0.71054273576E-14 -0.35527136788E-14  0.91188000000E+02  0.91188000000E+02 0.  0.
    9900012    2    3    3    0    0  0.40009695072E+01  0.38662714282E+02 -0.19308292901E+02  0.47787269506E+02  0.19999992987E+02 0.  0.
         12    1    3    3    0    0 -0.40009695072E+01 -0.38662714282E+02  0.19308292901E+02  0.43400730494E+02  0.00000000000E+00 0. -1.
         11    1    4    4    0    0  0.61670619680E+01  0.15921516567E+02 -0.95301654241E+01  0.19553807721E+02  0.51100000000E-03 0. -1.
        -11    1    4    4    0    0 -0.81852425172E+00  0.24298886420E+02 -0.82701682170E+01  0.25680762173E+02  0.51100000000E-03 0.  1.
         12    1    4    4    0    0 -0.13475682091E+01 -0.15576887053E+01 -0.15079592601E+01  0.25526996124E+01  0.00000000000E+00 0. -1.
</event>
<event>
 8    1  0.5542925E-011  0.9118800E+02  0.7816164E-02  0.1184000E+00
        -11   -1    0    0    0    0  0.00000000000E+00  0.00000000000E+00  0.45593999997E+02  0.45594000000E+02  0.51100000000E-03 0. -1.
         11   -1    0    0    0    0 -0.00000000000E+00 -0.00000000000E+00 -0.45593999997E+02  0.45594000000E+02  0.51100000000E-03 0.  1.
         23    2    1    2    0    0  0.00000000000E+00  0.00000000000E+00  0.00000000000E+00  0.91188000000E+02  0.91188000000E+02 0.  0.
    9900012    2    3    3    0    0  0.32566147318E+01  0.18587879707E+02 -0.39083350368E+02  0.47787273192E+02  0.20000009789E+02 0.  0.
         12    1    3    3    0    0 -0.32566147318E+01 -0.18587879707E+02  0.39083350368E+02  0.43400726808E+02  0.00000000000E+00 0. -1.
         11    1    4    4    0    0  0.46653528672E+01  0.41346666246E+01 -0.57754248221E+01  0.84980302193E+01  0.51100000000E-03 0. -1.
        -11    1    4    4    0    0  0.11245892550E+01  0.43285093698E+01 -0.26393681968E+02  0.26769892463E+02  0.51100000000E-03 0.  1.
         12    1    4    4    0    0 -0.25333273904E+01  0.10124703712E+02 -0.69142435778E+01  0.12519350509E+02  0.00000000000E+00 0. -1.
</event>
<event>
 8    1  0.5542925E-011  0.9118800E+02  0.7816164E-02  0.1184000E+00
        -11   -1    0    0    0    0  0.00000000000E+00  0.00000000000E+00  0.45593999997E+02  0.45594000000E+02  0.51100000000E-03 0. -1.
         11   -1    0    0    0    0 -0.00000000000E+00 -0.00000000000E+00 -0.45593999997E+02  0.45594000000E+02  0.51100000000E-03 0.  1.
         23    2    1    2    0    0  0.00000000000E+00  0.35527136788E-14  0.00000000000E+00  0.91188000000E+02  0.91188000000E+02 0.  0.
    9900012    2    3    3    0    0  0.23469908848E+02  0.21503770950E+02  0.29502111893E+02  0.47787269678E+02  0.19999993769E+02 0.  0.
        -12    1    3    3    0    0 -0.23469908848E+02 -0.21503770950E+02 -0.29502111893E+02  0.43400730322E+02  0.00000000000E+00 0.  1.
         11    1    4    4    0    0  0.15615866144E+01 -0.25292664035E+01  0.99445743353E+00  0.31344356976E+01  0.51100000000E-03 0. -1.
        -11    1    4    4    0    0 -0.88953099977E+00  0.16518462542E+01  0.63040956762E-01  0.18771882885E+01  0.51100000000E-03 0.  1.
         12    1    4    4    0    0  0.22797853233E+02  0.22381191099E+02  0.28444613502E+02  0.42775645692E+02  0.00000000000E+00 0. -1.
</event>
<event>
 8    1  0.5542925E-011  0.9118800E+02  0.7816164E-02  0.1184000E+00
        -11   -1    0    0    0    0  0.00000000000E+00  0.00000000000E+00  0.45593999997E+02  0.45594000000E+02  0.51100000000E-03 0. -1.
         11   -1    0    0    0    0 -0.00000000000E+00 -0.00000000000E+00 -0.45593999997E+02  0.45594000000E+02  0.51100000000E-03 0.  1.
         23    2    1    2    0    0 -0.71054273576E-14  0.35527136788E-14  0.00000000000E+00  0.91188000000E+02  0.91188000000E+02 0.  0.
    9900012    2    3    3    0    0 -0.35056347002E+02  0.14745663326E+02 -0.20910311709E+02  0.47787272035E+02  0.20000004519E+02 0.  0.
         12    1    3    3    0    0  0.35056347002E+02 -0.14745663326E+02  0.20910311709E+02  0.43400727965E+02  0.00000000000E+00 0. -1.
         11    1    4    4    0    0 -0.58614862654E+01  0.76095092652E+01  0.68818069858E-01  0.96055394791E+01  0.51100000000E-03 0. -1.
        -11    1    4    4    0    0 -0.37798048877E+01 -0.21962255210E+00  0.85062399808E+00  0.38805567258E+01  0.51100000000E-03 0.  1.
        -12    1    4    4    0    0 -0.25415055849E+02  0.73557766131E+01 -0.21829753777E+02  0.34301175831E+02  0.00000000000E+00 0.  1.
</event>
<event>
 8    1  0.5542925E-011  0.9118800E+02  0.7816164E-02  0.1184000E+00
        -11   -1    0    0    0    0  0.00000000000E+00  0.00000000000E+00  0.45593999997E+02  0.45594000000E+02  0.51100000000E-03 0. -1.
         11   -1    0    0    0    0 -0.00000000000E+00 -0.00000000000E+00 -0.45593999997E+02  0.45594000000E+02  0.51100000000E-03 0.  1.
         23    2    1    2    0    0  0.00000000000E+00  0.00000000000E+00 -0.35527136788E-14  0.91188000000E+02  0.91188000000E+02 0.  0.
    9900012    2    3    3    0    0  0.26353377088E+02  0.17364199008E+02  0.29792751850E+02  0.47787263209E+02  0.19999964277E+02 0.  0.
        -12    1    3    3    0    0 -0.26353377088E+02 -0.17364199008E+02 -0.29792751850E+02  0.43400736791E+02  0.00000000000E+00 0.  1.
         11    1    4    4    0    0 -0.14454249052E+01  0.10897754771E+01  0.42100456836E+01  0.45827228441E+01  0.51100000000E-03 0. -1.
        -11    1    4    4    0    0  0.91050001067E+01  0.51907667098E+01  0.16722061717E+02  0.19735055974E+02  0.51100000000E-03 0.  1.
        -12    1    4    4    0    0  0.18693801887E+02  0.11083656821E+02  0.88606444497E+01  0.23469484391E+02  0.00000000000E+00 0.  1.
</event>
<event>
 8    1  0.5542925E-011  0.9118800E+02  0.7816164E-02  0.1184000E+00
        -11   -1    0    0    0    0  0.00000000000E+00  0.00000000000E+00  0.45593999997E+02  0.45594000000E+02  0.51100000000E-03 0. -1.
         11   -1    0    0    0    0 -0.00000000000E+00 -0.00000000000E+00 -0.45593999997E+02  0.45594000000E+02  0.51100000000E-03 0.  1.
         23    2    1    2    0    0  0.00000000000E+00  0.00000000000E+00  0.00000000000E+00  0.91188000000E+02  0.91188000000E+02 0.  0.
    9900012    2    3    3    0    0 -0.17755540643E+02  0.20503208699E+02 -0.33881891142E+02  0.47787270308E+02  0.19999996641E+02 0.  0.
         12    1    3    3    0    0  0.17755540643E+02 -0.20503208699E+02  0.33881891142E+02  0.43400729692E+02  0.00000000000E+00 0. -1.
         11    1    4    4    0    0  0.33570473689E+00  0.93984667222E+01 -0.94362711055E+01  0.13322427971E+02  0.51100000000E-03 0. -1.
        -11    1    4    4    0    0 -0.19981951430E+01 -0.33978176393E-01 -0.98479203249E+01  0.10048655300E+02  0.51100000000E-03 0.  1.
        -12    1    4    4    0    0 -0.16093050237E+02  0.11138720153E+02 -0.14597699712E+02  0.24416187037E+02  0.00000000000E+00 0.  1.
</event>
<event>
 8    1  0.5542925E-011  0.9118800E+02  0.7816164E-02  0.1184000E+00
        -11   -1    0    0    0    0  0.00000000000E+00  0.00000000000E+00  0.45593999997E+02  0.45594000000E+02  0.51100000000E-03 0. -1.
         11   -1    0    0    0    0 -0.00000000000E+00 -0.00000000000E+00 -0.45593999997E+02  0.45594000000E+02  0.51100000000E-03 0.  1.
         23    2    1    2    0    0 -0.17763568394E-14 -0.35527136788E-14  0.00000000000E+00  0.91188000000E+02  0.91188000000E+02 0.  0.
    9900012    2    3    3    0    0  0.13011546124E+02 -0.29845930562E+02  0.28697444065E+02  0.47787271902E+02  0.20000003908E+02 0.  0.
        -12    1    3    3    0    0 -0.13011546124E+02  0.29845930562E+02 -0.28697444065E+02  0.43400728098E+02  0.00000000000E+00 0.  1.
         11    1    4    4    0    0  0.15690363862E+02 -0.16705120631E+02  0.21155339688E+02  0.31189693346E+02  0.51100000000E-03 0. -1.
        -11    1    4    4    0    0  0.54513415757E+00 -0.18312212616E+01 -0.90895288183E+00  0.21158303716E+01  0.51100000000E-03 0.  1.
        -12    1    4    4    0    0 -0.32239518961E+01 -0.11309588669E+02  0.84510572587E+01  0.14481748184E+02  0.00000000000E+00 0.  1.
</event>
<event>
 8    1  0.5542925E-011  0.9118800E+02  0.7816164E-02  0.1184000E+00
        -11   -1    0    0    0    0  0.00000000000E+00  0.00000000000E+00  0.45593999997E+02  0.45594000000E+02  0.51100000000E-03 0. -1.
         11   -1    0    0    0    0 -0.00000000000E+00 -0.00000000000E+00 -0.45593999997E+02  0.45594000000E+02  0.51100000000E-03 0.  1.
         23    2    1    2    0    0  0.00000000000E+00  0.00000000000E+00  0.00000000000E+00  0.91188000000E+02  0.91188000000E+02 0.  0.
    9900012    2    3    3    0    0  0.91772209908E+01  0.34910319187E+02  0.24097128826E+02  0.47787269724E+02  0.19999993981E+02 0.  0.
        -12    1    3    3    0    0 -0.91772209908E+01 -0.34910319187E+02 -0.24097128826E+02  0.43400730276E+02  0.00000000000E+00 0.  1.
         11    1    4    4    0    0  0.39538477486E+01  0.74118908243E+01  0.36398190774E+00  0.84084196316E+01  0.51100000000E-03 0. -1.
        -11    1    4    4    0    0 -0.19518631937E+00  0.47071020474E+01 -0.15032152395E+01  0.49451555791E+01  0.51100000000E-03 0.  1.
         12    1    4    4    0    0  0.54185595615E+01  0.22791326315E+02  0.25236362157E+02  0.34433694514E+02  0.00000000000E+00 0. -1.
</event>
<event>
 8    1  0.5542925E-011  0.9118800E+02  0.7816164E-02  0.1184000E+00
        -11   -1    0    0    0    0  0.00000000000E+00  0.00000000000E+00  0.45593999997E+02  0.45594000000E+02  0.51100000000E-03 0.  1.
         11   -1    0    0    0    0 -0.00000000000E+00 -0.00000000000E+00 -0.45593999997E+02  0.45594000000E+02  0.51100000000E-03 0. -1.
         23    2    1    2    0    0  0.00000000000E+00  0.00000000000E+00  0.00000000000E+00  0.91188000000E+02  0.91188000000E+02 0.  0.
    9900012    2    3    3    0    0 -0.37617741511E+02 -0.17803076311E+02 -0.12311745295E+02  0.47787273339E+02  0.20000010462E+02 0.  0.
         12    1    3    3    0    0  0.37617741511E+02  0.17803076311E+02  0.12311745295E+02  0.43400726661E+02  0.00000000000E+00 0. -1.
         11    1    4    4    0    0  0.12359179021E+01 -0.22413677588E+01  0.67367530350E+00  0.26467076088E+01  0.51100000000E-03 0. -1.
        -11    1    4    4    0    0 -0.48641890140E+01 -0.45261932722E+01 -0.55082960900E+01  0.86306480856E+01  0.51100000000E-03 0.  1.
        -12    1    4    4    0    0 -0.33989470399E+02 -0.11035515279E+02 -0.74771245081E+01  0.36509917645E+02  0.00000000000E+00 0.  1.
</event>
<event>
 8    1  0.5542925E-011  0.9118800E+02  0.7816164E-02  0.1184000E+00
        -11   -1    0    0    0    0  0.00000000000E+00  0.00000000000E+00  0.45593999997E+02  0.45594000000E+02  0.51100000000E-03 0. -1.
         11   -1    0    0    0    0 -0.00000000000E+00 -0.00000000000E+00 -0.45593999997E+02  0.45594000000E+02  0.51100000000E-03 0.  1.
         23    2    1    2    0    0 -0.22204460493E-15 -0.44408920985E-15  0.71054273576E-14  0.91188000000E+02  0.91188000000E+02 0.  0.
    9900012    2    3    3    0    0  0.81005334440E+00  0.18864939882E+01 -0.43352143502E+02  0.47787269681E+02  0.19999993785E+02 0.  0.
         12    1    3    3    0    0 -0.81005334440E+00 -0.18864939882E+01  0.43352143502E+02  0.43400730319E+02  0.00000000000E+00 0. -1.
         11    1    4    4    0    0  0.16614154090E+01  0.27776373970E+01 -0.19308361833E+02  0.19577752874E+02  0.51100000000E-03 0. -1.
        -11    1    4    4    0    0  0.11196385380E+01  0.16848490328E+01 -0.24797232951E+02  0.24879611513E+02  0.51100000000E-03 0.  1.
         12    1    4    4    0    0 -0.19710006026E+01 -0.25759924416E+01  0.75345128246E+00  0.33299052944E+01  0.00000000000E+00 0. -1.
</event>
<event>
 8    1  0.5542925E-011  0.9118800E+02  0.7816164E-02  0.1184000E+00
        -11   -1    0    0    0    0  0.00000000000E+00  0.00000000000E+00  0.45593999997E+02  0.45594000000E+02  0.51100000000E-03 0. -1.
         11   -1    0    0    0    0 -0.00000000000E+00 -0.00000000000E+00 -0.45593999997E+02  0.45594000000E+02  0.51100000000E-03 0.  1.
         23    2    1    2    0    0  0.00000000000E+00  0.00000000000E+00  0.00000000000E+00  0.91188000000E+02  0.91188000000E+02 0.  0.
    9900012    2    3    3    0    0  0.77421428775E+01 -0.79007800054E+01 -0.41967372192E+02  0.47787269249E+02  0.19999991814E+02 0.  0.
         12    1    3    3    0    0 -0.77421428775E+01  0.79007800054E+01  0.41967372192E+02  0.43400730751E+02  0.00000000000E+00 0. -1.
         11    1    4    4    0    0 -0.10484489919E+01  0.22713810954E+01 -0.31344954198E+01  0.40104213204E+01  0.51100000000E-03 0. -1.
        -11    1    4    4    0    0  0.31126179233E+01  0.13239502807E+01 -0.23710020533E+02  0.23950079511E+02  0.51100000000E-03 0.  1.
         12    1    4    4    0    0  0.56779739460E+01 -0.11496111381E+02 -0.15122856239E+02  0.19826768417E+02  0.00000000000E+00 0. -1.
</event>
<event>
 8    1  0.5542925E-011  0.9118800E+02  0.7816164E-02  0.1184000E+00
        -11   -1    0    0    0    0  0.00000000000E+00  0.00000000000E+00  0.45593999997E+02  0.45594000000E+02  0.51100000000E-03 0. -1.
         11   -1    0    0    0    0 -0.00000000000E+00 -0.00000000000E+00 -0.45593999997E+02  0.45594000000E+02  0.51100000000E-03 0.  1.
         23    2    1    2    0    0 -0.17763568394E-14  0.00000000000E+00  0.00000000000E+00  0.91188000000E+02  0.91188000000E+02 0.  0.
    9900012    2    3    3    0    0 -0.11471201904E+02  0.30071329437E+02  0.29116116244E+02  0.47787290877E+02  0.20000090426E+02 0.  0.
        -12    1    3    3    0    0  0.11471201904E+02 -0.30071329437E+02 -0.29116116244E+02  0.43400709123E+02  0.00000000000E+00 0.  1.
         11    1    4    4    0    0 -0.16538219765E+01  0.10961416626E+02  0.21497985349E+02  0.24187830740E+02  0.51100000000E-03 0. -1.
        -11    1    4    4    0    0 -0.27429796141E+00  0.33639973613E+01 -0.61452566939E+00  0.34306500373E+01  0.51100000000E-03 0.  1.
         12    1    4    4    0    0 -0.95430819657E+01  0.15745915450E+02  0.82326565643E+01  0.20168810100E+02  0.00000000000E+00 0. -1.
</event>
<event>
 8    1  0.5542925E-011  0.9118800E+02  0.7816164E-02  0.1184000E+00
        -11   -1    0    0    0    0  0.00000000000E+00  0.00000000000E+00  0.45593999997E+02  0.45594000000E+02  0.51100000000E-03 0. -1.
         11   -1    0    0    0    0 -0.00000000000E+00 -0.00000000000E+00 -0.45593999997E+02  0.45594000000E+02  0.51100000000E-03 0.  1.
         23    2    1    2    0    0  0.00000000000E+00  0.00000000000E+00  0.71054273576E-14  0.91188000000E+02  0.91188000000E+02 0.  0.
    9900012    2    3    3    0    0  0.24195435644E+02 -0.39566296545E+01 -0.35812698624E+02  0.47787269512E+02  0.19999993011E+02 0.  0.
         12    1    3    3    0    0 -0.24195435644E+02  0.39566296545E+01  0.35812698624E+02  0.43400730488E+02  0.00000000000E+00 0. -1.
         11    1    4    4    0    0 -0.12238416641E+01  0.56585988696E+00 -0.32619409504E+00  0.13872233704E+01  0.51100000000E-03 0. -1.
        -11    1    4    4    0    0  0.61173675573E+01 -0.32763670485E+01 -0.21331027977E+02  0.22431440473E+02  0.51100000000E-03 0.  1.
         12    1    4    4    0    0  0.19301909751E+02 -0.12461224930E+01 -0.14155476552E+02  0.23968605669E+02  0.00000000000E+00 0. -1.
</event>
<event>
 8    1  0.5542925E-011  0.9118800E+02  0.7816164E-02  0.1184000E+00
        -11   -1    0    0    0    0  0.00000000000E+00  0.00000000000E+00  0.45593999997E+02  0.45594000000E+02  0.51100000000E-03 0. -1.
         11   -1    0    0    0    0 -0.00000000000E+00 -0.00000000000E+00 -0.45593999997E+02  0.45594000000E+02  0.51100000000E-03 0.  1.
         23    2    1    2    0    0 -0.17763568394E-14  0.00000000000E+00  0.00000000000E+00  0.91188000000E+02  0.91188000000E+02 0.  0.
    9900012    2    3    3    0    0  0.10542636457E+02 -0.42050793917E+02 -0.20510954314E+01  0.47787269073E+02  0.19999991010E+02 0.  0.
         12    1    3    3    0    0 -0.10542636457E+02  0.42050793917E+02  0.20510954314E+01  0.43400730927E+02  0.00000000000E+00 0. -1.
         11    1    4    4    0    0 -0.21779884789E+00 -0.11797144366E+02 -0.30023658239E+01  0.12175148966E+02  0.51100000000E-03 0. -1.
        -11    1    4    4    0    0  0.51305838356E+00 -0.13751011592E+01 -0.42812241259E+01  0.45258162115E+01  0.51100000000E-03 0.  1.
         12    1    4    4    0    0  0.10247376922E+02 -0.28878548392E+02  0.52324945184E+01  0.31086303895E+02  0.00000000000E+00 0. -1.
</event>
<event>
 8    1  0.5542925E-011  0.9118800E+02  0.7816164E-02  0.1184000E+00
        -11   -1    0    0    0    0  0.00000000000E+00  0.00000000000E+00  0.45593999997E+02  0.45594000000E+02  0.51100000000E-03 0. -1.
         11   -1    0    0    0    0 -0.00000000000E+00 -0.00000000000E+00 -0.45593999997E+02  0.45594000000E+02  0.51100000000E-03 0.  1.
         23    2    1    2    0    0  0.00000000000E+00  0.00000000000E+00  0.00000000000E+00  0.91188000000E+02  0.91188000000E+02 0.  0.
    9900012    2    3    3    0    0  0.36124345095E+02 -0.30448261652E+01 -0.23861772805E+02  0.47787268713E+02  0.19999989368E+02 0.  0.
         12    1    3    3    0    0 -0.36124345095E+02  0.30448261652E+01  0.23861772805E+02  0.43400731287E+02  0.00000000000E+00 0. -1.
         11    1    4    4    0    0  0.11464834738E+02  0.19001236407E+01 -0.11540386335E+02  0.16377833265E+02  0.51100000000E-03 0.  1.
        -11    1    4    4    0    0  0.12242538800E+02  0.34103312958E+01 -0.12037009282E+01  0.12765540020E+02  0.51100000000E-03 0. -1.
         12    1    4    4    0    0  0.12416971556E+02 -0.83552811017E+01 -0.11117685542E+02  0.18643895427E+02  0.00000000000E+00 0. -1.
</event>
<event>
 8    1  0.5542925E-011  0.9118800E+02  0.7816164E-02  0.1184000E+00
        -11   -1    0    0    0    0  0.00000000000E+00  0.00000000000E+00  0.45593999997E+02  0.45594000000E+02  0.51100000000E-03 0. -1.
         11   -1    0    0    0    0 -0.00000000000E+00 -0.00000000000E+00 -0.45593999997E+02  0.45594000000E+02  0.51100000000E-03 0.  1.
         23    2    1    2    0    0  0.00000000000E+00  0.00000000000E+00  0.00000000000E+00  0.91188000000E+02  0.91188000000E+02 0.  0.
    9900012    2    3    3    0    0  0.12289732484E+02  0.14924732097E+02 -0.38856633912E+02  0.47787272453E+02  0.20000006421E+02 0.  0.
         12    1    3    3    0    0 -0.12289732484E+02 -0.14924732097E+02  0.38856633912E+02  0.43400727547E+02  0.00000000000E+00 0. -1.
         11    1    4    4    0    0  0.48201487987E+01 -0.17660913946E+01 -0.10396300414E+02  0.11594652898E+02  0.51100000000E-03 0.  1.
        -11    1    4    4    0    0  0.71737788171E+01  0.38144888085E+01 -0.53269514677E+01  0.97154433552E+01  0.51100000000E-03 0. -1.
        -12    1    4    4    0    0  0.29580486782E+00  0.12876334683E+02 -0.23133382030E+02  0.26477176200E+02  0.00000000000E+00 0.  1.
</event>
<event>
 8    1  0.5542925E-011  0.9118800E+02  0.7816164E-02  0.1184000E+00
        -11   -1    0    0    0    0  0.00000000000E+00  0.00000000000E+00  0.45593999997E+02  0.45594000000E+02  0.51100000000E-03 0. -1.
         11   -1    0    0    0    0 -0.00000000000E+00 -0.00000000000E+00 -0.45593999997E+02  0.45594000000E+02  0.51100000000E-03 0.  1.
         23    2    1    2    0    0  0.00000000000E+00  0.00000000000E+00  0.00000000000E+00  0.91188000000E+02  0.91188000000E+02 0.  0.
    9900012    2    3    3    0    0  0.18843580140E+02  0.34632137279E+02  0.18142688377E+02  0.47787278963E+02  0.20000036105E+02 0.  0.
        -12    1    3    3    0    0 -0.18843580140E+02 -0.34632137279E+02 -0.18142688377E+02  0.43400721037E+02  0.00000000000E+00 0.  1.
         11    1    4    4    0    0 -0.54698125898E-02  0.10634779782E+02  0.90249502510E+01  0.13948057149E+02  0.51100000000E-03 0. -1.
        -11    1    4    4    0    0  0.31290759423E+01 -0.56134363752E+00  0.22142165149E+01  0.38741422235E+01  0.51100000000E-03 0.  1.
         12    1    4    4    0    0  0.15719974010E+02  0.24558701134E+02  0.69035216111E+01  0.29965079591E+02  0.00000000000E+00 0. -1.
</event>
<event>
 8    1  0.5542925E-011  0.9118800E+02  0.7816164E-02  0.1184000E+00
        -11   -1    0    0    0    0  0.00000000000E+00  0.00000000000E+00  0.45593999997E+02  0.45594000000E+02  0.51100000000E-03 0.  1.
         11   -1    0    0    0    0 -0.00000000000E+00 -0.00000000000E+00 -0.45593999997E+02  0.45594000000E+02  0.51100000000E-03 0. -1.
         23    2    1    2    0    0  0.00000000000E+00  0.00000000000E+00  0.00000000000E+00  0.91188000000E+02  0.91188000000E+02 0.  0.
    9900012    2    3    3    0    0  0.38736859666E+02 -0.12627628619E+02 -0.14953995823E+02  0.47787270831E+02  0.19999999027E+02 0.  0.
        -12    1    3    3    0    0 -0.38736859666E+02  0.12627628619E+02  0.14953995823E+02  0.43400729169E+02  0.00000000000E+00 0.  1.
         11    1    4    4    0    0  0.98194502193E+01 -0.80461518620E+01 -0.76368427144E-01  0.12695195737E+02  0.51100000000E-03 0. -1.
        -11    1    4    4    0    0  0.84199474969E+00 -0.16980316191E+01 -0.47376509683E+01  0.51027055075E+01  0.51100000000E-03 0.  1.
        -12    1    4    4    0    0  0.28075414697E+02 -0.28834451377E+01 -0.10139976428E+02  0.29989369587E+02  0.00000000000E+00 0.  1.
</event>
<event>
 8    1  0.5542925E-011  0.9118800E+02  0.7816164E-02  0.1184000E+00
        -11   -1    0    0    0    0  0.00000000000E+00  0.00000000000E+00  0.45593999997E+02  0.45594000000E+02  0.51100000000E-03 0. -1.
         11   -1    0    0    0    0 -0.00000000000E+00 -0.00000000000E+00 -0.45593999997E+02  0.45594000000E+02  0.51100000000E-03 0.  1.
         23    2    1    2    0    0  0.35527136788E-14  0.00000000000E+00  0.00000000000E+00  0.91188000000E+02  0.91188000000E+02 0.  0.
    9900012    2    3    3    0    0 -0.20599338704E+02 -0.14327235588E+02  0.35412155385E+02  0.47787272084E+02  0.20000004741E+02 0.  0.
        -12    1    3    3    0    0  0.20599338704E+02  0.14327235588E+02 -0.35412155385E+02  0.43400727916E+02  0.00000000000E+00 0.  1.
         11    1    4    4    0    0 -0.31357419236E+01 -0.10849569442E+02  0.13643008738E+02  0.17710949217E+02  0.51100000000E-03 0. -1.
        -11    1    4    4    0    0  0.11318449707E+01  0.27977734098E+00  0.36912161575E+01  0.38709721493E+01  0.51100000000E-03 0.  1.
         12    1    4    4    0    0 -0.18595441751E+02 -0.37574434867E+01  0.18077930489E+02  0.26205350718E+02  0.00000000000E+00 0. -1.
</event>
<event>
 8    1  0.5542925E-011  0.9118800E+02  0.7816164E-02  0.1184000E+00
        -11   -1    0    0    0    0  0.00000000000E+00  0.00000000000E+00  0.45593999997E+02  0.45594000000E+02  0.51100000000E-03 0. -1.
         11   -1    0    0    0    0 -0.00000000000E+00 -0.00000000000E+00 -0.45593999997E+02  0.45594000000E+02  0.51100000000E-03 0.  1.
         23    2    1    2    0    0 -0.35527136788E-14  0.00000000000E+00  0.00000000000E+00  0.91188000000E+02  0.91188000000E+02 0.  0.
    9900012    2    3    3    0    0 -0.31704046904E+02 -0.19162867333E+02  0.22611084540E+02  0.47787271681E+02  0.20000002904E+02 0.  0.
        -12    1    3    3    0    0  0.31704046904E+02  0.19162867333E+02 -0.22611084540E+02  0.43400728319E+02  0.00000000000E+00 0.  1.
         11    1    4    4    0    0 -0.14869445842E+01 -0.34184479516E+01 -0.17396754299E-01  0.37278805644E+01  0.51100000000E-03 0. -1.
        -11    1    4    4    0    0 -0.34661940589E+01 -0.50089124660E+01 -0.17176399029E+01  0.63288223583E+01  0.51100000000E-03 0.  1.
         12    1    4    4    0    0 -0.26750908261E+02 -0.10735506915E+02  0.24346121197E+02  0.37730568759E+02  0.00000000000E+00 0. -1.
</event>
<event>
 8    1  0.5542925E-011  0.9118800E+02  0.7816164E-02  0.1184000E+00
        -11   -1    0    0    0    0  0.00000000000E+00  0.00000000000E+00  0.45593999997E+02  0.45594000000E+02  0.51100000000E-03 0. -1.
         11   -1    0    0    0    0 -0.00000000000E+00 -0.00000000000E+00 -0.45593999997E+02  0.45594000000E+02  0.51100000000E-03 0.  1.
         23    2    1    2    0    0  0.88817841970E-15  0.17763568394E-14  0.00000000000E+00  0.91188000000E+02  0.91188000000E+02 0.  0.
    9900012    2    3    3    0    0  0.54669261399E+01 -0.14822397400E+02 -0.40423164360E+02  0.47787274626E+02  0.20000016332E+02 0.  0.
         12    1    3    3    0    0 -0.54669261399E+01  0.14822397400E+02  0.40423164360E+02  0.43400725374E+02  0.00000000000E+00 0. -1.
         11    1    4    4    0    0  0.37962175970E+01 -0.92393560305E+01 -0.11048683449E+02  0.14894642464E+02  0.51100000000E-03 0. -1.
        -11    1    4    4    0    0  0.15924350849E+01  0.21539959428E+01 -0.17393856883E+00  0.26843626633E+01  0.51100000000E-03 0.  1.
        -12    1    4    4    0    0  0.78273458035E-01 -0.77370373122E+01 -0.29200542342E+02  0.30208269499E+02  0.00000000000E+00 0.  1.
</event>
<event>
 8    1  0.5542925E-011  0.9118800E+02  0.7816164E-02  0.1184000E+00
        -11   -1    0    0    0    0  0.00000000000E+00  0.00000000000E+00  0.45593999997E+02  0.45594000000E+02  0.51100000000E-03 0. -1.
         11   -1    0    0    0    0 -0.00000000000E+00 -0.00000000000E+00 -0.45593999997E+02  0.45594000000E+02  0.51100000000E-03 0.  1.
         23    2    1    2    0    0  0.00000000000E+00  0.00000000000E+00 -0.71054273576E-14  0.91188000000E+02  0.91188000000E+02 0.  0.
    9900012    2    3    3    0    0  0.23514885410E+02 -0.20686424063E+02  0.30045722137E+02  0.47787269648E+02  0.19999993633E+02 0.  0.
        -12    1    3    3    0    0 -0.23514885410E+02  0.20686424063E+02 -0.30045722137E+02  0.43400730352E+02  0.00000000000E+00 0.  1.
         11    1    4    4    0    0  0.41498326918E+01 -0.33426772174E+01  0.51949007373E+01  0.74418812327E+01  0.51100000000E-03 0. -1.
        -11    1    4    4    0    0 -0.26229980575E+01 -0.39990220329E+01  0.88334952519E+01  0.10045045279E+02  0.51100000000E-03 0.  1.
        -12    1    4    4    0    0  0.21988050776E+02 -0.13344724812E+02  0.16017326148E+02  0.30300343136E+02  0.00000000000E+00 0.  1.
</event>
<event>
 8    1  0.5542925E-011  0.9118800E+02  0.7816164E-02  0.1184000E+00
        -11   -1    0    0    0    0  0.00000000000E+00  0.00000000000E+00  0.45593999997E+02  0.45594000000E+02  0.51100000000E-03 0.  1.
         11   -1    0    0    0    0 -0.00000000000E+00 -0.00000000000E+00 -0.45593999997E+02  0.45594000000E+02  0.51100000000E-03 0. -1.
         23    2    1    2    0    0  0.88817841970E-15  0.00000000000E+00  0.00000000000E+00  0.91188000000E+02  0.91188000000E+02 0.  0.
    9900012    2    3    3    0    0 -0.73344601094E+01 -0.42773348959E+02 -0.51925197922E+00  0.47787270642E+02  0.19999998163E+02 0.  0.
         12    1    3    3    0    0  0.73344601094E+01  0.42773348959E+02  0.51925197922E+00  0.43400729358E+02  0.00000000000E+00 0. -1.
         11    1    4    4    0    0 -0.28850983084E+00 -0.17946159757E+02 -0.32663911833E+01  0.18243278202E+02  0.51100000000E-03 0. -1.
        -11    1    4    4    0    0 -0.24804250201E+01 -0.24712427521E+02  0.26308202236E+01  0.24975543990E+02  0.51100000000E-03 0.  1.
         12    1    4    4    0    0 -0.45655252584E+01 -0.11476168024E+00  0.11631898050E+00  0.45684484492E+01  0.00000000000E+00 0. -1.
</event>
<event>
 8    1  0.5542925E-011  0.9118800E+02  0.7816164E-02  0.1184000E+00
        -11   -1    0    0    0    0  0.00000000000E+00  0.00000000000E+00  0.45593999997E+02  0.45594000000E+02  0.51100000000E-03 0. -1.
         11   -1    0    0    0    0 -0.00000000000E+00 -0.00000000000E+00 -0.45593999997E+02  0.45594000000E+02  0.51100000000E-03 0.  1.
         23    2    1    2    0    0  0.00000000000E+00  0.35527136788E-14 -0.17763568394E-14  0.91188000000E+02  0.91188000000E+02 0.  0.
    9900012    2    3    3    0    0  0.34450575992E+02 -0.24132185386E+02  0.10696696183E+02  0.47787264212E+02  0.19999968850E+02 0.  0.
        -12    1    3    3    0    0 -0.34450575992E+02  0.24132185386E+02 -0.10696696183E+02  0.43400735788E+02  0.00000000000E+00 0.  1.
         11    1    4    4    0    0  0.33592718401E+01 -0.10503146813E+01 -0.25248973228E+01  0.43316249811E+01  0.51100000000E-03 0. -1.
        -11    1    4    4    0    0  0.57345843183E+00  0.62670216465E+00 -0.18027049483E+01  0.19928260255E+01  0.51100000000E-03 0.  1.
         12    1    4    4    0    0  0.30517845720E+02 -0.23708572870E+02  0.15024298454E+02  0.41462813206E+02  0.00000000000E+00 0. -1.
</event>
<event>
 8    1  0.5542925E-011  0.9118800E+02  0.7816164E-02  0.1184000E+00
        -11   -1    0    0    0    0  0.00000000000E+00  0.00000000000E+00  0.45593999997E+02  0.45594000000E+02  0.51100000000E-03 0. -1.
         11   -1    0    0    0    0 -0.00000000000E+00 -0.00000000000E+00 -0.45593999997E+02  0.45594000000E+02  0.51100000000E-03 0.  1.
         23    2    1    2    0    0 -0.35527136788E-14  0.00000000000E+00  0.00000000000E+00  0.91188000000E+02  0.91188000000E+02 0.  0.
    9900012    2    3    3    0    0  0.20796869684E+02  0.98987592856E+01  0.36784885592E+02  0.47787273830E+02  0.20000012702E+02 0.  0.
        -12    1    3    3    0    0 -0.20796869684E+02 -0.98987592856E+01 -0.36784885592E+02  0.43400726170E+02  0.00000000000E+00 0.  1.
         11    1    4    4    0    0  0.45430435277E+01  0.35568841370E+01  0.32829116953E+01  0.66383867557E+01  0.51100000000E-03 0. -1.
        -11    1    4    4    0    0  0.22533983324E+01 -0.35569542566E+01  0.88943556831E+00  0.43035826377E+01  0.51100000000E-03 0.  1.
         12    1    4    4    0    0  0.14000427824E+02  0.98988294052E+01  0.32612538328E+02  0.36845304437E+02  0.00000000000E+00 0. -1.
</event>
<event>
 8    1  0.5542925E-011  0.9118800E+02  0.7816164E-02  0.1184000E+00
        -11   -1    0    0    0    0  0.00000000000E+00  0.00000000000E+00  0.45593999997E+02  0.45594000000E+02  0.51100000000E-03 0.  1.
         11   -1    0    0    0    0 -0.00000000000E+00 -0.00000000000E+00 -0.45593999997E+02  0.45594000000E+02  0.51100000000E-03 0. -1.
         23    2    1    2    0    0 -0.35527136788E-14  0.00000000000E+00  0.00000000000E+00  0.91188000000E+02  0.91188000000E+02 0.  0.
    9900012    2    3    3    0    0 -0.24942395603E+02  0.33457354157E+02 -0.11920810476E+02  0.47787269960E+02  0.19999995055E+02 0.  0.
         12    1    3    3    0    0  0.24942395603E+02 -0.33457354157E+02  0.11920810476E+02  0.43400730040E+02  0.00000000000E+00 0. -1.
         11    1    4    4    0    0 -0.93426844148E+01  0.11262873600E+02  0.53453193738E+00  0.14643216807E+02  0.51100000000E-03 0.  1.
        -11    1    4    4    0    0 -0.14012476457E+02  0.18258484335E+02 -0.35616220883E+01  0.23289630715E+02  0.51100000000E-03 0. -1.
         12    1    4    4    0    0 -0.15872347311E+01  0.39359962213E+01 -0.88937203255E+01  0.98544224374E+01  0.00000000000E+00 0. -1.
</event>
<event>
 8    1  0.5542925E-011  0.9118800E+02  0.7816164E-02  0.1184000E+00
        -11   -1    0    0    0    0  0.00000000000E+00  0.00000000000E+00  0.45593999997E+02  0.45594000000E+02  0.51100000000E-03 0. -1.
         11   -1    0    0    0    0 -0.00000000000E+00 -0.00000000000E+00 -0.45593999997E+02  0.45594000000E+02  0.51100000000E-03 0.  1.
         23    2    1    2    0    0  0.00000000000E+00 -0.71054273576E-14  0.00000000000E+00  0.91188000000E+02  0.91188000000E+02 0.  0.
    9900012    2    3    3    0    0  0.78051245670E+01  0.27991934809E+02 -0.32235941834E+02  0.47787258880E+02  0.19999944537E+02 0.  0.
         12    1    3    3    0    0 -0.78051245670E+01 -0.27991934809E+02  0.32235941834E+02  0.43400741120E+02  0.00000000000E+00 0. -1.
         11    1    4    4    0    0  0.34647063538E+01  0.26423150716E+02 -0.23882416080E+02  0.35784869455E+02  0.51100000000E-03 0.  1.
        -11    1    4    4    0    0  0.45619387342E+01  0.39442497191E+01 -0.47314341503E+01  0.76651718990E+01  0.51100000000E-03 0. -1.
        -12    1    4    4    0    0 -0.22152052103E+00 -0.23754656256E+01 -0.36220916035E+01  0.43372175255E+01  0.00000000000E+00 0.  1.
</event>
<event>
 8    1  0.5542925E-011  0.9118800E+02  0.7816164E-02  0.1184000E+00
        -11   -1    0    0    0    0  0.00000000000E+00  0.00000000000E+00  0.45593999997E+02  0.45594000000E+02  0.51100000000E-03 0. -1.
         11   -1    0    0    0    0 -0.00000000000E+00 -0.00000000000E+00 -0.45593999997E+02  0.45594000000E+02  0.51100000000E-03 0.  1.
         23    2    1    2    0    0  0.00000000000E+00  0.00000000000E+00  0.00000000000E+00  0.91188000000E+02  0.91188000000E+02 0.  0.
    9900012    2    3    3    0    0 -0.72885158338E+01  0.25815978806E+02 -0.34117974857E+02  0.47787269210E+02  0.19999991636E+02 0.  0.
         12    1    3    3    0    0  0.72885158338E+01 -0.25815978806E+02  0.34117974857E+02  0.43400730790E+02  0.00000000000E+00 0. -1.
         11    1    4    4    0    0  0.80118005359E-01  0.40049204680E+01 -0.10558358738E+02  0.11292685524E+02  0.51100000000E-03 0. -1.
        -11    1    4    4    0    0 -0.31814388432E+01  0.14771763195E+02 -0.23923569811E+02  0.28296002081E+02  0.51100000000E-03 0.  1.
         12    1    4    4    0    0 -0.41871949960E+01  0.70392951430E+01  0.36395369150E+00  0.81985816050E+01  0.00000000000E+00 0. -1.
</event>
<event>
 8    1  0.5542925E-011  0.9118800E+02  0.7816164E-02  0.1184000E+00
        -11   -1    0    0    0    0  0.00000000000E+00  0.00000000000E+00  0.45593999997E+02  0.45594000000E+02  0.51100000000E-03 0. -1.
         11   -1    0    0    0    0 -0.00000000000E+00 -0.00000000000E+00 -0.45593999997E+02  0.45594000000E+02  0.51100000000E-03 0.  1.
         23    2    1    2    0    0 -0.66613381478E-15  0.00000000000E+00  0.71054273576E-14  0.91188000000E+02  0.91188000000E+02 0.  0.
    9900012    2    3    3    0    0  0.15956410201E+01 -0.14408318462E+02  0.40908160400E+02  0.47787270761E+02  0.19999998709E+02 0.  0.
        -12    1    3    3    0    0 -0.15956410201E+01  0.14408318462E+02 -0.40908160400E+02  0.43400729239E+02  0.00000000000E+00 0.  1.
         11    1    4    4    0    0 -0.33941023572E+01 -0.70692365837E+01  0.25908701397E+02  0.27069444860E+02  0.51100000000E-03 0.  1.
        -11    1    4    4    0    0 -0.21332825707E+01 -0.36273577928E+01  0.10933232689E+02  0.11715126818E+02  0.51100000000E-03 0. -1.
         12    1    4    4    0    0  0.71230259480E+01 -0.37117240852E+01  0.40662263137E+01  0.90026990828E+01  0.00000000000E+00 0. -1.
</event>
<event>
 8    1  0.5542925E-011  0.9118800E+02  0.7816164E-02  0.1184000E+00
        -11   -1    0    0    0    0  0.00000000000E+00  0.00000000000E+00  0.45593999997E+02  0.45594000000E+02  0.51100000000E-03 0. -1.
         11   -1    0    0    0    0 -0.00000000000E+00 -0.00000000000E+00 -0.45593999997E+02  0.45594000000E+02  0.51100000000E-03 0.  1.
         23    2    1    2    0    0  0.35527136788E-14  0.00000000000E+00  0.00000000000E+00  0.91188000000E+02  0.91188000000E+02 0.  0.
    9900012    2    3    3    0    0 -0.24269358343E+02  0.27229938584E+02 -0.23519198381E+02  0.47787262654E+02  0.19999961746E+02 0.  0.
         12    1    3    3    0    0  0.24269358343E+02 -0.27229938584E+02  0.23519198381E+02  0.43400737346E+02  0.00000000000E+00 0. -1.
         11    1    4    4    0    0 -0.32101879615E+01  0.38273904306E+01 -0.90971898681E+00  0.50775794580E+01  0.51100000000E-03 0. -1.
        -11    1    4    4    0    0 -0.10404247075E+02  0.57168163876E+01  0.29173513026E+00  0.11874992903E+02  0.51100000000E-03 0.  1.
         12    1    4    4    0    0 -0.10654923306E+02  0.17685731766E+02 -0.22901214525E+02  0.30834690293E+02  0.00000000000E+00 0. -1.
</event>
<event>
 8    1  0.5542925E-011  0.9118800E+02  0.7816164E-02  0.1184000E+00
        -11   -1    0    0    0    0  0.00000000000E+00  0.00000000000E+00  0.45593999997E+02  0.45594000000E+02  0.51100000000E-03 0. -1.
         11   -1    0    0    0    0 -0.00000000000E+00 -0.00000000000E+00 -0.45593999997E+02  0.45594000000E+02  0.51100000000E-03 0.  1.
         23    2    1    2    0    0  0.49960036108E-15  0.35527136788E-14  0.00000000000E+00  0.91188000000E+02  0.91188000000E+02 0.  0.
    9900012    2    3    3    0    0 -0.21387267380E+00  0.22217251661E+02 -0.37282321442E+02  0.47787268382E+02  0.19999987861E+02 0.  0.
         12    1    3    3    0    0  0.21387267380E+00 -0.22217251661E+02  0.37282321442E+02  0.43400731618E+02  0.00000000000E+00 0. -1.
         11    1    4    4    0    0 -0.13104782865E+01  0.71211726349E+01 -0.11603934574E+01  0.73331416372E+01  0.51100000000E-03 0. -1.
        -11    1    4    4    0    0  0.47252567201E+01  0.66455383195E+01 -0.10934169136E+02  0.13639915161E+02  0.51100000000E-03 0.  1.
         12    1    4    4    0    0 -0.36286511074E+01  0.84505407068E+01 -0.25187758848E+02  0.26814211584E+02  0.00000000000E+00 0. -1.
</event>
<event>
 8    1  0.5542925E-011  0.9118800E+02  0.7816164E-02  0.1184000E+00
        -11   -1    0    0    0    0  0.00000000000E+00  0.00000000000E+00  0.45593999997E+02  0.45594000000E+02  0.51100000000E-03 0.  1.
         11   -1    0    0    0    0 -0.00000000000E+00 -0.00000000000E+00 -0.45593999997E+02  0.45594000000E+02  0.51100000000E-03 0. -1.
         23    2    1    2    0    0  0.00000000000E+00  0.00000000000E+00  0.35527136788E-14  0.91188000000E+02  0.91188000000E+02 0.  0.
    9900012    2    3    3    0    0  0.36401875961E+02 -0.15352221432E+02 -0.17967634304E+02  0.47787272369E+02  0.20000006041E+02 0.  0.
         12    1    3    3    0    0 -0.36401875961E+02  0.15352221432E+02  0.17967634304E+02  0.43400727631E+02  0.00000000000E+00 0. -1.
         11    1    4    4    0    0  0.99691055886E+01  0.22059642495E+01 -0.75455190859E+01  0.12695834082E+02  0.51100000000E-03 0. -1.
        -11    1    4    4    0    0  0.22822367243E+02 -0.96968026226E+01 -0.67956517975E+01  0.25711268177E+02  0.51100000000E-03 0.  1.
        -12    1    4    4    0    0  0.36104031299E+01 -0.78613830584E+01 -0.36264634206E+01  0.93801701100E+01  0.00000000000E+00 0.  1.
</event>
<event>
 8    1  0.5542925E-011  0.9118800E+02  0.7816164E-02  0.1184000E+00
        -11   -1    0    0    0    0  0.00000000000E+00  0.00000000000E+00  0.45593999997E+02  0.45594000000E+02  0.51100000000E-03 0. -1.
         11   -1    0    0    0    0 -0.00000000000E+00 -0.00000000000E+00 -0.45593999997E+02  0.45594000000E+02  0.51100000000E-03 0.  1.
         23    2    1    2    0    0  0.00000000000E+00  0.00000000000E+00  0.00000000000E+00  0.91188000000E+02  0.91188000000E+02 0.  0.
    9900012    2    3    3    0    0 -0.12575973941E+02  0.78934976692E+01  0.40781872707E+02  0.47787267662E+02  0.19999984576E+02 0.  0.
        -12    1    3    3    0    0  0.12575973941E+02 -0.78934976692E+01 -0.40781872707E+02  0.43400732338E+02  0.00000000000E+00 0.  1.
         11    1    4    4    0    0 -0.52269251678E+01  0.80725981949E+00  0.50034595461E+01  0.72805922023E+01  0.51100000000E-03 0. -1.
        -11    1    4    4    0    0 -0.77021440886E+01 -0.34309023897E+01  0.17182442567E+02  0.19139760908E+02  0.51100000000E-03 0.  1.
         12    1    4    4    0    0  0.35309531572E+00  0.10517140239E+02  0.18595970594E+02  0.21366914551E+02  0.00000000000E+00 0. -1.
</event>
<event>
 8    1  0.5542925E-011  0.9118800E+02  0.7816164E-02  0.1184000E+00
        -11   -1    0    0    0    0  0.00000000000E+00  0.00000000000E+00  0.45593999997E+02  0.45594000000E+02  0.51100000000E-03 0. -1.
         11   -1    0    0    0    0 -0.00000000000E+00 -0.00000000000E+00 -0.45593999997E+02  0.45594000000E+02  0.51100000000E-03 0.  1.
         23    2    1    2    0    0  0.00000000000E+00  0.00000000000E+00  0.00000000000E+00  0.91188000000E+02  0.91188000000E+02 0.  0.
    9900012    2    3    3    0    0  0.91258410293E+01 -0.22625267885E+02 -0.35894840406E+02  0.47787270868E+02  0.19999999198E+02 0.  0.
         12    1    3    3    0    0 -0.91258410293E+01  0.22625267885E+02  0.35894840406E+02  0.43400729132E+02  0.00000000000E+00 0. -1.
         11    1    4    4    0    0  0.29083766396E+01  0.18071973844E+01 -0.13933461320E+01  0.36967594956E+01  0.51100000000E-03 0. -1.
        -11    1    4    4    0    0  0.66271050599E+00  0.74703890735E+00 -0.41332448567E+01  0.42521718745E+01  0.51100000000E-03 0.  1.
        -12    1    4    4    0    0  0.55547538837E+01 -0.25179504177E+02 -0.30368249417E+02  0.39838339498E+02  0.00000000000E+00 0.  1.
</event>
<event>
 8    1  0.5542925E-011  0.9118800E+02  0.7816164E-02  0.1184000E+00
        -11   -1    0    0    0    0  0.00000000000E+00  0.00000000000E+00  0.45593999997E+02  0.45594000000E+02  0.51100000000E-03 0. -1.
         11   -1    0    0    0    0 -0.00000000000E+00 -0.00000000000E+00 -0.45593999997E+02  0.45594000000E+02  0.51100000000E-03 0.  1.
         23    2    1    2    0    0  0.00000000000E+00 -0.44408920985E-15  0.00000000000E+00  0.91188000000E+02  0.91188000000E+02 0.  0.
    9900012    2    3    3    0    0  0.38757924162E+02 -0.10075111707E+01  0.19504644740E+02  0.47787275000E+02  0.20000018035E+02 0.  0.
        -12    1    3    3    0    0 -0.38757924162E+02  0.10075111707E+01 -0.19504644740E+02  0.43400725000E+02  0.00000000000E+00 0.  1.
         11    1    4    4    0    0  0.27410622452E+02 -0.24039935715E+01  0.15200078441E+02  0.31435072661E+02  0.51100000000E-03 0. -1.
        -11    1    4    4    0    0  0.76030067546E+01 -0.39753484990E+00  0.78184587397E+01  0.10912930083E+02  0.51100000000E-03 0.  1.
        -12    1    4    4    0    0  0.37442949547E+01  0.17940172507E+01 -0.35138924398E+01  0.54392722566E+01  0.00000000000E+00 0.  1.
</event>
<event>
 8    1  0.5542925E-011  0.9118800E+02  0.7816164E-02  0.1184000E+00
        -11   -1    0    0    0    0  0.00000000000E+00  0.00000000000E+00  0.45593999997E+02  0.45594000000E+02  0.51100000000E-03 0. -1.
         11   -1    0    0    0    0 -0.00000000000E+00 -0.00000000000E+00 -0.45593999997E+02  0.45594000000E+02  0.51100000000E-03 0.  1.
         23    2    1    2    0    0 -0.35527136788E-14  0.00000000000E+00  0.00000000000E+00  0.91188000000E+02  0.91188000000E+02 0.  0.
    9900012    2    3    3    0    0  0.15620209144E+02  0.19181688722E+02 -0.35660790223E+02  0.47787307894E+02  0.20000168011E+02 0.  0.
         12    1    3    3    0    0 -0.15620209144E+02 -0.19181688722E+02  0.35660790223E+02  0.43400692106E+02  0.00000000000E+00 0. -1.
         11    1    4    4    0    0  0.16022368833E+02  0.21098817680E+02 -0.26577407597E+02  0.37526457405E+02  0.51100000000E-03 0. -1.
        -11    1    4    4    0    0  0.18327654866E+01 -0.21147801428E-01 -0.38027753193E+01  0.42214425199E+01  0.51100000000E-03 0.  1.
         12    1    4    4    0    0 -0.22349251759E+01 -0.18959811567E+01 -0.52806073069E+01  0.60394079692E+01  0.00000000000E+00 0. -1.
</event>
<event>
 8    1  0.5542925E-011  0.9118800E+02  0.7816164E-02  0.1184000E+00
        -11   -1    0    0    0    0  0.00000000000E+00  0.00000000000E+00  0.45593999997E+02  0.45594000000E+02  0.51100000000E-03 0. -1.
         11   -1    0    0    0    0 -0.00000000000E+00 -0.00000000000E+00 -0.45593999997E+02  0.45594000000E+02  0.51100000000E-03 0.  1.
         23    2    1    2    0    0  0.00000000000E+00  0.00000000000E+00  0.00000000000E+00  0.91188000000E+02  0.91188000000E+02 0.  0.
    9900012    2    3    3    0    0 -0.14109959460E+02  0.10338633944E+02 -0.39719578981E+02  0.47787271179E+02  0.20000000612E+02 0.  0.
         12    1    3    3    0    0  0.14109959460E+02 -0.10338633944E+02  0.39719578981E+02  0.43400728821E+02  0.00000000000E+00 0. -1.
         11    1    4    4    0    0 -0.69308653312E+01 -0.15623497872E+01 -0.25456162887E+02  0.26429038202E+02  0.51100000000E-03 0. -1.
        -11    1    4    4    0    0  0.23251849771E+00  0.43175543215E+01 -0.78605376936E+01  0.89712537175E+01  0.51100000000E-03 0.  1.
        -12    1    4    4    0    0 -0.74116126270E+01  0.75834294100E+01 -0.64028784001E+01  0.12386979259E+02  0.00000000000E+00 0.  1.
</event>
<event>
 8    1  0.5542925E-011  0.9118800E+02  0.7816164E-02  0.1184000E+00
        -11   -1    0    0    0    0  0.00000000000E+00  0.00000000000E+00  0.45593999997E+02  0.45594000000E+02  0.51100000000E-03 0. -1.
         11   -1    0    0    0    0 -0.00000000000E+00 -0.00000000000E+00 -0.45593999997E+02  0.45594000000E+02  0.51100000000E-03 0.  1.
         23    2    1    2    0    0  0.00000000000E+00  0.00000000000E+00  0.00000000000E+00  0.91188000000E+02  0.91188000000E+02 0.  0.
    9900012    2    3    3    0    0  0.15042392189E+02 -0.37250391570E+02  0.16424312238E+02  0.47787271119E+02  0.20000000340E+02 0.  0.
        -12    1    3    3    0    0 -0.15042392189E+02  0.37250391570E+02 -0.16424312238E+02  0.43400728881E+02  0.00000000000E+00 0.  1.
         11    1    4    4    0    0  0.48942808227E+01 -0.21395924647E+02  0.31677100253E+01  0.22175977168E+02  0.51100000000E-03 0. -1.
        -11    1    4    4    0    0  0.13648625014E+01 -0.12336752567E+02  0.67530489707E+01  0.14130179907E+02  0.51100000000E-03 0.  1.
        -12    1    4    4    0    0  0.87832488652E+01 -0.35177143555E+01  0.65035532422E+01  0.11481114044E+02  0.00000000000E+00 0.  1.
</event>
<event>
 8    1  0.5542925E-011  0.9118800E+02  0.7816164E-02  0.1184000E+00
        -11   -1    0    0    0    0  0.00000000000E+00  0.00000000000E+00  0.45593999997E+02  0.45594000000E+02  0.51100000000E-03 0. -1.
         11   -1    0    0    0    0 -0.00000000000E+00 -0.00000000000E+00 -0.45593999997E+02  0.45594000000E+02  0.51100000000E-03 0.  1.
         23    2    1    2    0    0  0.00000000000E+00  0.00000000000E+00  0.00000000000E+00  0.91188000000E+02  0.91188000000E+02 0.  0.
    9900012    2    3    3    0    0 -0.31618225955E+02 -0.16827815783E+02 -0.24509911528E+02  0.47787270056E+02  0.19999995495E+02 0.  0.
         12    1    3    3    0    0  0.31618225955E+02  0.16827815783E+02  0.24509911528E+02  0.43400729944E+02  0.00000000000E+00 0. -1.
         11    1    4    4    0    0  0.23661865382E+01 -0.14878212867E+01 -0.23704921824E+01  0.36649262425E+01  0.51100000000E-03 0. -1.
        -11    1    4    4    0    0 -0.10223929059E+02 -0.33728436483E+01 -0.24941106223E+01  0.11051035596E+02  0.51100000000E-03 0.  1.
        -12    1    4    4    0    0 -0.23760483434E+02 -0.11967150848E+02 -0.19645308723E+02  0.33071308218E+02  0.00000000000E+00 0.  1.
</event>
<event>
 8    1  0.5542925E-011  0.9118800E+02  0.7816164E-02  0.1184000E+00
        -11   -1    0    0    0    0  0.00000000000E+00  0.00000000000E+00  0.45593999997E+02  0.45594000000E+02  0.51100000000E-03 0. -1.
         11   -1    0    0    0    0 -0.00000000000E+00 -0.00000000000E+00 -0.45593999997E+02  0.45594000000E+02  0.51100000000E-03 0.  1.
         23    2    1    2    0    0  0.00000000000E+00  0.00000000000E+00  0.00000000000E+00  0.91188000000E+02  0.91188000000E+02 0.  0.
    9900012    2    3    3    0    0  0.20834176651E+02  0.12496158613E+02 -0.35963958991E+02  0.47787271399E+02  0.20000001616E+02 0.  0.
         12    1    3    3    0    0 -0.20834176651E+02 -0.12496158613E+02  0.35963958991E+02  0.43400728601E+02  0.00000000000E+00 0. -1.
         11    1    4    4    0    0  0.24044626434E+01  0.42487221706E+01 -0.16261798225E+02  0.16978785659E+02  0.51100000000E-03 0. -1.
        -11    1    4    4    0    0 -0.13650022155E+01 -0.11188319171E+01 -0.11395851903E+01  0.21008737644E+01  0.51100000000E-03 0.  1.
         12    1    4    4    0    0  0.19794716223E+02  0.93662683591E+01 -0.18562575576E+02  0.28707611976E+02  0.00000000000E+00 0. -1.
</event>
<event>
 8    1  0.5542925E-011  0.9118800E+02  0.7816164E-02  0.1184000E+00
        -11   -1    0    0    0    0  0.00000000000E+00  0.00000000000E+00  0.45593999997E+02  0.45594000000E+02  0.51100000000E-03 0. -1.
         11   -1    0    0    0    0 -0.00000000000E+00 -0.00000000000E+00 -0.45593999997E+02  0.45594000000E+02  0.51100000000E-03 0.  1.
         23    2    1    2    0    0 -0.66613381478E-15  0.71054273576E-14  0.00000000000E+00  0.91188000000E+02  0.91188000000E+02 0.  0.
    9900012    2    3    3    0    0  0.61067651917E+00 -0.42646078785E+02  0.80351258084E+01  0.47787260280E+02  0.19999950919E+02 0.  0.
        -12    1    3    3    0    0 -0.61067651917E+00  0.42646078785E+02 -0.80351258084E+01  0.43400739720E+02  0.00000000000E+00 0.  1.
         11    1    4    4    0    0 -0.81479823827E-01 -0.53030174041E+01  0.48143386242E+01  0.71628548220E+01  0.51100000000E-03 0. -1.
        -11    1    4    4    0    0  0.69764428165E+01 -0.30135104837E+02  0.23051398679E+01  0.31017881424E+02  0.51100000000E-03 0.  1.
        -12    1    4    4    0    0 -0.62842864735E+01 -0.72079565431E+01  0.91564731633E+00  0.96065240340E+01  0.00000000000E+00 0.  1.
</event>
<event>
 8    1  0.5542925E-011  0.9118800E+02  0.7816164E-02  0.1184000E+00
        -11   -1    0    0    0    0  0.00000000000E+00  0.00000000000E+00  0.45593999997E+02  0.45594000000E+02  0.51100000000E-03 0. -1.
         11   -1    0    0    0    0 -0.00000000000E+00 -0.00000000000E+00 -0.45593999997E+02  0.45594000000E+02  0.51100000000E-03 0.  1.
         23    2    1    2    0    0 -0.35527136788E-14  0.00000000000E+00  0.00000000000E+00  0.91188000000E+02  0.91188000000E+02 0.  0.
    9900012    2    3    3    0    0 -0.28039762239E+02 -0.20221626471E+02 -0.26238906543E+02  0.47787278115E+02  0.20000032236E+02 0.  0.
         12    1    3    3    0    0  0.28039762239E+02  0.20221626471E+02  0.26238906543E+02  0.43400721885E+02  0.00000000000E+00 0. -1.
         11    1    4    4    0    0 -0.66633546838E+01  0.39264608994E+00 -0.74959898317E+01  0.10037147524E+02  0.51100000000E-03 0. -1.
        -11    1    4    4    0    0 -0.23406529303E+01  0.18700732247E+01 -0.34199294257E+00  0.30154252502E+01  0.51100000000E-03 0.  1.
        -12    1    4    4    0    0 -0.19035754625E+02 -0.22484345786E+02 -0.18400923769E+02  0.34734705341E+02  0.00000000000E+00 0.  1.
</event>
<event>
 8    1  0.5542925E-011  0.9118800E+02  0.7816164E-02  0.1184000E+00
        -11   -1    0    0    0    0  0.00000000000E+00  0.00000000000E+00  0.45593999997E+02  0.45594000000E+02  0.51100000000E-03 0. -1.
         11   -1    0    0    0    0 -0.00000000000E+00 -0.00000000000E+00 -0.45593999997E+02  0.45594000000E+02  0.51100000000E-03 0.  1.
         23    2    1    2    0    0  0.00000000000E+00  0.00000000000E+00  0.35527136788E-14  0.91188000000E+02  0.91188000000E+02 0.  0.
    9900012    2    3    3    0    0 -0.40062870063E+01 -0.39047233333E+02 -0.18517194361E+02  0.47787271278E+02  0.20000001067E+02 0.  0.
         12    1    3    3    0    0  0.40062870063E+01  0.39047233333E+02  0.18517194361E+02  0.43400728722E+02  0.00000000000E+00 0. -1.
         11    1    4    4    0    0 -0.36292896238E+01 -0.91825401413E+01  0.32556721755E+01  0.10396643121E+02  0.51100000000E-03 0. -1.
        -11    1    4    4    0    0 -0.21961791720E+01 -0.12735776306E+02 -0.11719624750E+02  0.17446283432E+02  0.51100000000E-03 0.  1.
        -12    1    4    4    0    0  0.18191817895E+01 -0.17128916886E+02 -0.10053241787E+02  0.19944344725E+02  0.00000000000E+00 0.  1.
</event>
<event>
 8    1  0.5542925E-011  0.9118800E+02  0.7816164E-02  0.1184000E+00
        -11   -1    0    0    0    0  0.00000000000E+00  0.00000000000E+00  0.45593999997E+02  0.45594000000E+02  0.51100000000E-03 0. -1.
         11   -1    0    0    0    0 -0.00000000000E+00 -0.00000000000E+00 -0.45593999997E+02  0.45594000000E+02  0.51100000000E-03 0.  1.
         23    2    1    2    0    0  0.00000000000E+00  0.17763568394E-14  0.00000000000E+00  0.91188000000E+02  0.91188000000E+02 0.  0.
    9900012    2    3    3    0    0 -0.34777134663E+02  0.10803173792E+02 -0.23610703903E+02  0.47787274221E+02  0.20000014483E+02 0.  0.
         12    1    3    3    0    0  0.34777134663E+02 -0.10803173792E+02  0.23610703903E+02  0.43400725779E+02  0.00000000000E+00 0. -1.
         11    1    4    4    0    0 -0.11773387459E+02  0.16893471021E+01 -0.54128704485E+01  0.13067735559E+02  0.51100000000E-03 0. -1.
        -11    1    4    4    0    0 -0.18750729509E+02  0.25185485651E+01 -0.53439174245E+01  0.19659359036E+02  0.51100000000E-03 0.  1.
         12    1    4    4    0    0 -0.42530176949E+01  0.65952781251E+01 -0.12853916030E+02  0.15060179626E+02  0.00000000000E+00 0. -1.
</event>
<event>
 8    1  0.5542925E-011  0.9118800E+02  0.7816164E-02  0.1184000E+00
        -11   -1    0    0    0    0  0.00000000000E+00  0.00000000000E+00  0.45593999997E+02  0.45594000000E+02  0.51100000000E-03 0. -1.
         11   -1    0    0    0    0 -0.00000000000E+00 -0.00000000000E+00 -0.45593999997E+02  0.45594000000E+02  0.51100000000E-03 0.  1.
         23    2    1    2    0    0  0.00000000000E+00 -0.35527136788E-14  0.00000000000E+00  0.91188000000E+02  0.91188000000E+02 0.  0.
    9900012    2    3    3    0    0 -0.47929237478E+01  0.23266702831E+02  0.36322331609E+02  0.47787270143E+02  0.19999995888E+02 0.  0.
        -12    1    3    3    0    0  0.47929237478E+01 -0.23266702831E+02 -0.36322331609E+02  0.43400729857E+02  0.00000000000E+00 0.  1.
         11    1    4    4    0    0 -0.79384075553E+00  0.80381390230E+01  0.11306963320E+02  0.13895656943E+02  0.51100000000E-03 0. -1.
        -11    1    4    4    0    0  0.59826068789E+01  0.30050496796E+01  0.47617599787E+01  0.82156111763E+01  0.51100000000E-03 0.  1.
         12    1    4    4    0    0 -0.99816898713E+01  0.12223514128E+02  0.20253608310E+02  0.25676002023E+02  0.00000000000E+00 0. -1.
</event>
<event>
 8    1  0.5542925E-011  0.9118800E+02  0.7816164E-02  0.1184000E+00
        -11   -1    0    0    0    0  0.00000000000E+00  0.00000000000E+00  0.45593999997E+02  0.45594000000E+02  0.51100000000E-03 0. -1.
         11   -1    0    0    0    0 -0.00000000000E+00 -0.00000000000E+00 -0.45593999997E+02  0.45594000000E+02  0.51100000000E-03 0.  1.
         23    2    1    2    0    0 -0.88817841970E-15 -0.35527136788E-14  0.00000000000E+00  0.91188000000E+02  0.91188000000E+02 0.  0.
    9900012    2    3    3    0    0  0.52574350362E+01 -0.30747507518E+02  0.30175678342E+02  0.47787292573E+02  0.20000098159E+02 0.  0.
        -12    1    3    3    0    0 -0.52574350362E+01  0.30747507518E+02 -0.30175678342E+02  0.43400707427E+02  0.00000000000E+00 0.  1.
         11    1    4    4    0    0  0.15314251435E+01 -0.20566656120E+02  0.13183929135E+02  0.24477512018E+02  0.51100000000E-03 0. -1.
        -11    1    4    4    0    0  0.70895660087E+01 -0.93515009920E+01  0.96556403919E+01  0.15196838771E+02  0.51100000000E-03 0.  1.
        -12    1    4    4    0    0 -0.33635561160E+01 -0.82935040622E+00  0.73361088154E+01  0.81129417841E+01  0.00000000000E+00 0.  1.
</event>
<event>
 8    1  0.5542925E-011  0.9118800E+02  0.7816164E-02  0.1184000E+00
        -11   -1    0    0    0    0  0.00000000000E+00  0.00000000000E+00  0.45593999997E+02  0.45594000000E+02  0.51100000000E-03 0. -1.
         11   -1    0    0    0    0 -0.00000000000E+00 -0.00000000000E+00 -0.45593999997E+02  0.45594000000E+02  0.51100000000E-03 0.  1.
         23    2    1    2    0    0  0.00000000000E+00  0.00000000000E+00  0.00000000000E+00  0.91188000000E+02  0.91188000000E+02 0.  0.
    9900012    2    3    3    0    0 -0.16492219884E+02  0.11666643746E+02 -0.38412487721E+02  0.47787272979E+02  0.20000008822E+02 0.  0.
         12    1    3    3    0    0  0.16492219884E+02 -0.11666643746E+02  0.38412487721E+02  0.43400727021E+02  0.00000000000E+00 0. -1.
         11    1    4    4    0    0 -0.44098861331E+01 -0.24017530997E+01 -0.50544177918E+01  0.71247914449E+01  0.51100000000E-03 0. -1.
        -11    1    4    4    0    0 -0.43121894172E+01 -0.13947274483E+01 -0.22386583504E+01  0.50548821644E+01  0.51100000000E-03 0.  1.
         12    1    4    4    0    0 -0.77701443342E+01  0.15463124294E+02 -0.31119411579E+02  0.35607599370E+02  0.00000000000E+00 0. -1.
</event>
<event>
 8    1  0.5542925E-011  0.9118800E+02  0.7816164E-02  0.1184000E+00
        -11   -1    0    0    0    0  0.00000000000E+00  0.00000000000E+00  0.45593999997E+02  0.45594000000E+02  0.51100000000E-03 0. -1.
         11   -1    0    0    0    0 -0.00000000000E+00 -0.00000000000E+00 -0.45593999997E+02  0.45594000000E+02  0.51100000000E-03 0.  1.
         23    2    1    2    0    0  0.35527136788E-14 -0.13322676296E-14  0.00000000000E+00  0.91188000000E+02  0.91188000000E+02 0.  0.
    9900012    2    3    3    0    0  0.29177529846E+02 -0.62580498507E-01 -0.32129281144E+02  0.47787275685E+02  0.20000021156E+02 0.  0.
         12    1    3    3    0    0 -0.29177529846E+02  0.62580498507E-01  0.32129281144E+02  0.43400724315E+02  0.00000000000E+00 0. -1.
         11    1    4    4    0    0  0.56634873681E+01  0.66207426260E+01 -0.24439435056E+01  0.90488774005E+01  0.51100000000E-03 0. -1.
        -11    1    4    4    0    0  0.77354397426E+01 -0.19335874515E+01 -0.64630080268E+01  0.10263832689E+02  0.51100000000E-03 0.  1.
        -12    1    4    4    0    0  0.15778602736E+02 -0.47497356730E+01 -0.23222329612E+02  0.28474565596E+02  0.00000000000E+00 0.  1.
</event>
<event>
 8    1  0.5542925E-011  0.9118800E+02  0.7816164E-02  0.1184000E+00
        -11   -1    0    0    0    0  0.00000000000E+00  0.00000000000E+00  0.45593999997E+02  0.45594000000E+02  0.51100000000E-03 0. -1.
         11   -1    0    0    0    0 -0.00000000000E+00 -0.00000000000E+00 -0.45593999997E+02  0.45594000000E+02  0.51100000000E-03 0.  1.
         23    2    1    2    0    0  0.35527136788E-14  0.00000000000E+00  0.12212453271E-14  0.91188000000E+02  0.91188000000E+02 0.  0.
    9900012    2    3    3    0    0 -0.25954534164E+02  0.34776825879E+02  0.74701211938E+00  0.47787268566E+02  0.19999988701E+02 0.  0.
         12    1    3    3    0    0  0.25954534164E+02 -0.34776825879E+02 -0.74701211938E+00  0.43400731434E+02  0.00000000000E+00 0. -1.
         11    1    4    4    0    0 -0.11133056664E+02  0.65848709471E+01  0.70138457710E+01  0.14713922279E+02  0.51100000000E-03 0. -1.
        -11    1    4    4    0    0 -0.50545844220E+01  0.10899060661E+02  0.67925572079E+00  0.12033276178E+02  0.51100000000E-03 0.  1.
         12    1    4    4    0    0 -0.97668930783E+01  0.17292894271E+02 -0.69460893724E+01  0.21040070110E+02  0.00000000000E+00 0. -1.
</event>
<event>
 8    1  0.5542925E-011  0.9118800E+02  0.7816164E-02  0.1184000E+00
        -11   -1    0    0    0    0  0.00000000000E+00  0.00000000000E+00  0.45593999997E+02  0.45594000000E+02  0.51100000000E-03 0. -1.
         11   -1    0    0    0    0 -0.00000000000E+00 -0.00000000000E+00 -0.45593999997E+02  0.45594000000E+02  0.51100000000E-03 0.  1.
         23    2    1    2    0    0 -0.17763568394E-14  0.71054273576E-14  0.00000000000E+00  0.91188000000E+02  0.91188000000E+02 0.  0.
    9900012    2    3    3    0    0 -0.12791720502E+02  0.36700798914E+02  0.19314412978E+02  0.47787270709E+02  0.19999998471E+02 0.  0.
        -12    1    3    3    0    0  0.12791720502E+02 -0.36700798914E+02 -0.19314412978E+02  0.43400729291E+02  0.00000000000E+00 0.  1.
         11    1    4    4    0    0 -0.97925330706E+01  0.16257071921E+02  0.13392461915E+02  0.23228089198E+02  0.51100000000E-03 0. -1.
        -11    1    4    4    0    0 -0.56037654544E+00  0.17833611430E+02  0.88718752725E+01  0.19926411861E+02  0.51100000000E-03 0.  1.
        -12    1    4    4    0    0 -0.24388108859E+01  0.26101155622E+01 -0.29499242102E+01  0.46327696501E+01  0.00000000000E+00 0.  1.
</event>
<event>
 8    1  0.5542925E-011  0.9118800E+02  0.7816164E-02  0.1184000E+00
        -11   -1    0    0    0    0  0.00000000000E+00  0.00000000000E+00  0.45593999997E+02  0.45594000000E+02  0.51100000000E-03 0. -1.
         11   -1    0    0    0    0 -0.00000000000E+00 -0.00000000000E+00 -0.45593999997E+02  0.45594000000E+02  0.51100000000E-03 0.  1.
         23    2    1    2    0    0  0.35527136788E-14  0.00000000000E+00 -0.35527136788E-14  0.91188000000E+02  0.91188000000E+02 0.  0.
    9900012    2    3    3    0    0  0.24576398688E+02 -0.28548573338E+02 -0.21554691090E+02  0.47787249775E+02  0.19999903023E+02 0.  0.
         12    1    3    3    0    0 -0.24576398688E+02  0.28548573338E+02  0.21554691090E+02  0.43400750225E+02  0.00000000000E+00 0. -1.
         11    1    4    4    0    0  0.87881115924E+01 -0.26646367887E+01 -0.88080002436E+01  0.12724467106E+02  0.51100000000E-03 0. -1.
        -11    1    4    4    0    0  0.13107043263E+02 -0.18456503124E+02 -0.14619088023E+02  0.26947260075E+02  0.51100000000E-03 0.  1.
         12    1    4    4    0    0  0.26812438329E+01 -0.74274334252E+01  0.18723971772E+01  0.81155225935E+01  0.00000000000E+00 0. -1.
</event>
<event>
 8    1  0.5542925E-011  0.9118800E+02  0.7816164E-02  0.1184000E+00
        -11   -1    0    0    0    0  0.00000000000E+00  0.00000000000E+00  0.45593999997E+02  0.45594000000E+02  0.51100000000E-03 0. -1.
         11   -1    0    0    0    0 -0.00000000000E+00 -0.00000000000E+00 -0.45593999997E+02  0.45594000000E+02  0.51100000000E-03 0.  1.
         23    2    1    2    0    0  0.35527136788E-14 -0.17763568394E-14 -0.71054273576E-14  0.91188000000E+02  0.91188000000E+02 0.  0.
    9900012    2    3    3    0    0 -0.23313378141E+02  0.12819823535E+02  0.34289379285E+02  0.47787274113E+02  0.20000013991E+02 0.  0.
        -12    1    3    3    0    0  0.23313378141E+02 -0.12819823535E+02 -0.34289379285E+02  0.43400725887E+02  0.00000000000E+00 0.  1.
         11    1    4    4    0    0 -0.15211584298E+01  0.13341057130E+01  0.27102537694E+01  0.33821940775E+01  0.51100000000E-03 0. -1.
        -11    1    4    4    0    0 -0.52846713922E+01  0.88147641023E+01  0.23875692824E+02  0.25993778601E+02  0.51100000000E-03 0.  1.
         12    1    4    4    0    0 -0.16507548319E+02  0.26709537194E+01  0.77034326917E+01  0.18411301434E+02  0.00000000000E+00 0. -1.
</event>
<event>
 8    1  0.5542925E-011  0.9118800E+02  0.7816164E-02  0.1184000E+00
        -11   -1    0    0    0    0  0.00000000000E+00  0.00000000000E+00  0.45593999997E+02  0.45594000000E+02  0.51100000000E-03 0. -1.
         11   -1    0    0    0    0 -0.00000000000E+00 -0.00000000000E+00 -0.45593999997E+02  0.45594000000E+02  0.51100000000E-03 0.  1.
         23    2    1    2    0    0 -0.44408920985E-15  0.00000000000E+00 -0.17763568394E-14  0.91188000000E+02  0.91188000000E+02 0.  0.
    9900012    2    3    3    0    0 -0.28994439626E+01 -0.41042621871E+02  0.13810117796E+02  0.47787274904E+02  0.20000017596E+02 0.  0.
        -12    1    3    3    0    0  0.28994439626E+01  0.41042621871E+02 -0.13810117796E+02  0.43400725096E+02  0.00000000000E+00 0.  1.
         11    1    4    4    0    0  0.36668232157E+01 -0.22809617656E+02  0.79911348600E+01  0.24445500337E+02  0.51100000000E-03 0. -1.
        -11    1    4    4    0    0 -0.10507694870E+01 -0.15574968247E+02  0.11699336021E+01  0.15654152717E+02  0.51100000000E-03 0.  1.
        -12    1    4    4    0    0 -0.55154976913E+01 -0.26580359682E+01  0.46490493338E+01  0.76876218493E+01  0.00000000000E+00 0.  1.
</event>
<event>
 8    1  0.5542925E-011  0.9118800E+02  0.7816164E-02  0.1184000E+00
        -11   -1    0    0    0    0  0.00000000000E+00  0.00000000000E+00  0.45593999997E+02  0.45594000000E+02  0.51100000000E-03 0.  1.
         11   -1    0    0    0    0 -0.00000000000E+00 -0.00000000000E+00 -0.45593999997E+02  0.45594000000E+02  0.51100000000E-03 0. -1.
         23    2    1    2    0    0 -0.88817841970E-15  0.71054273576E-14 -0.35527136788E-14  0.91188000000E+02  0.91188000000E+02 0.  0.
    9900012    2    3    3    0    0 -0.79913096482E+01 -0.32670846167E+02  0.27429511596E+02  0.47787270449E+02  0.19999997285E+02 0.  0.
        -12    1    3    3    0    0  0.79913096482E+01  0.32670846167E+02 -0.27429511596E+02  0.43400729551E+02  0.00000000000E+00 0.  1.
         11    1    4    4    0    0 -0.18442644797E+01 -0.14566618778E+02  0.18672674491E+02  0.23754083165E+02  0.51100000000E-03 0.  1.
        -11    1    4    4    0    0 -0.15734391251E+01 -0.17242352214E+02  0.87041848805E+01  0.19378783637E+02  0.51100000000E-03 0. -1.
        -12    1    4    4    0    0 -0.45736060434E+01 -0.86187517582E+00  0.52652224283E-01  0.46544036477E+01  0.00000000000E+00 0.  1.
</event>
<event>
 8    1  0.5542925E-011  0.9118800E+02  0.7816164E-02  0.1184000E+00
        -11   -1    0    0    0    0  0.00000000000E+00  0.00000000000E+00  0.45593999997E+02  0.45594000000E+02  0.51100000000E-03 0. -1.
         11   -1    0    0    0    0 -0.00000000000E+00 -0.00000000000E+00 -0.45593999997E+02  0.45594000000E+02  0.51100000000E-03 0.  1.
         23    2    1    2    0    0  0.88817841970E-15  0.00000000000E+00  0.00000000000E+00  0.91188000000E+02  0.91188000000E+02 0.  0.
    9900012    2    3    3    0    0  0.57178077497E+01 -0.14244441903E+02  0.40595883703E+02  0.47787271616E+02  0.20000002606E+02 0.  0.
        -12    1    3    3    0    0 -0.57178077497E+01  0.14244441903E+02 -0.40595883703E+02  0.43400728384E+02  0.00000000000E+00 0.  1.
         11    1    4    4    0    0  0.12473395095E+01  0.22983508598E+01  0.15481259026E+01  0.30389087841E+01  0.51100000000E-03 0. -1.
        -11    1    4    4    0    0  0.86496139546E+01 -0.63887531317E+01  0.21686819820E+02  0.24206407051E+02  0.51100000000E-03 0.  1.
         12    1    4    4    0    0 -0.41791457144E+01 -0.10154039632E+02  0.17360937981E+02  0.20541955781E+02  0.00000000000E+00 0. -1.
</event>
<event>
 8    1  0.5542925E-011  0.9118800E+02  0.7816164E-02  0.1184000E+00
        -11   -1    0    0    0    0  0.00000000000E+00  0.00000000000E+00  0.45593999997E+02  0.45594000000E+02  0.51100000000E-03 0. -1.
         11   -1    0    0    0    0 -0.00000000000E+00 -0.00000000000E+00 -0.45593999997E+02  0.45594000000E+02  0.51100000000E-03 0.  1.
         23    2    1    2    0    0  0.00000000000E+00  0.00000000000E+00  0.35527136788E-14  0.91188000000E+02  0.91188000000E+02 0.  0.
    9900012    2    3    3    0    0 -0.23736008090E+02  0.25878890556E+02  0.25505072658E+02  0.47787265124E+02  0.19999973007E+02 0.  0.
        -12    1    3    3    0    0  0.23736008090E+02 -0.25878890556E+02 -0.25505072658E+02  0.43400734876E+02  0.00000000000E+00 0.  1.
         11    1    4    4    0    0 -0.15120040616E+02  0.90398844443E+01  0.10417669096E+02  0.20466142007E+02  0.51100000000E-03 0. -1.
        -11    1    4    4    0    0 -0.71617036433E+01  0.21606117156E+01  0.80132185252E+01  0.10962203859E+02  0.51100000000E-03 0.  1.
         12    1    4    4    0    0 -0.14542638304E+01  0.14678394396E+02  0.70741850375E+01  0.16358919258E+02  0.00000000000E+00 0. -1.
</event>
<event>
 8    1  0.5542925E-011  0.9118800E+02  0.7816164E-02  0.1184000E+00
        -11   -1    0    0    0    0  0.00000000000E+00  0.00000000000E+00  0.45593999997E+02  0.45594000000E+02  0.51100000000E-03 0. -1.
         11   -1    0    0    0    0 -0.00000000000E+00 -0.00000000000E+00 -0.45593999997E+02  0.45594000000E+02  0.51100000000E-03 0.  1.
         23    2    1    2    0    0  0.22204460493E-15  0.00000000000E+00  0.00000000000E+00  0.91188000000E+02  0.91188000000E+02 0.  0.
    9900012    2    3    3    0    0  0.17662709139E+01  0.30561036334E+02  0.30765675751E+02  0.47787268910E+02  0.19999990266E+02 0.  0.
        -12    1    3    3    0    0 -0.17662709139E+01 -0.30561036334E+02 -0.30765675751E+02  0.43400731090E+02  0.00000000000E+00 0.  1.
         11    1    4    4    0    0 -0.89561611722E+00 -0.48306576835E+00  0.19185421079E+01  0.21717009110E+01  0.51100000000E-03 0. -1.
        -11    1    4    4    0    0 -0.70937315486E+00  0.89749122655E+00  0.96485609199E+01  0.97161426945E+01  0.51100000000E-03 0.  1.
         12    1    4    4    0    0  0.33712601859E+01  0.30146610876E+02  0.19198572724E+02  0.35899425304E+02  0.00000000000E+00 0. -1.
</event>
<event>
 8    1  0.5542925E-011  0.9118800E+02  0.7816164E-02  0.1184000E+00
        -11   -1    0    0    0    0  0.00000000000E+00  0.00000000000E+00  0.45593999997E+02  0.45594000000E+02  0.51100000000E-03 0. -1.
         11   -1    0    0    0    0 -0.00000000000E+00 -0.00000000000E+00 -0.45593999997E+02  0.45594000000E+02  0.51100000000E-03 0.  1.
         23    2    1    2    0    0  0.17763568394E-14  0.00000000000E+00  0.71054273576E-14  0.91188000000E+02  0.91188000000E+02 0.  0.
    9900012    2    3    3    0    0 -0.12849809496E+02  0.17537209722E+02 -0.37562654237E+02  0.47787258967E+02  0.19999944935E+02 0.  0.
         12    1    3    3    0    0  0.12849809496E+02 -0.17537209722E+02  0.37562654237E+02  0.43400741033E+02  0.00000000000E+00 0. -1.
         11    1    4    4    0    0  0.22094920281E+01 -0.70079565304E+00 -0.35223025769E+01  0.42165845508E+01  0.51100000000E-03 0. -1.
        -11    1    4    4    0    0 -0.18644982274E+01  0.12596784016E+02 -0.14036956982E+02  0.18952347685E+02  0.51100000000E-03 0.  1.
         12    1    4    4    0    0 -0.13194803296E+02  0.56412213591E+01 -0.20003394677E+02  0.24618326732E+02  0.00000000000E+00 0. -1.
</event>
<event>
 8    1  0.5542925E-011  0.9118800E+02  0.7816164E-02  0.1184000E+00
        -11   -1    0    0    0    0  0.00000000000E+00  0.00000000000E+00  0.45593999997E+02  0.45594000000E+02  0.51100000000E-03 0. -1.
         11   -1    0    0    0    0 -0.00000000000E+00 -0.00000000000E+00 -0.45593999997E+02  0.45594000000E+02  0.51100000000E-03 0.  1.
         23    2    1    2    0    0  0.00000000000E+00  0.00000000000E+00  0.00000000000E+00  0.91188000000E+02  0.91188000000E+02 0.  0.
    9900012    2    3    3    0    0 -0.16282961482E+02  0.24918859703E+02  0.31583842943E+02  0.47787267995E+02  0.19999986095E+02 0.  0.
        -12    1    3    3    0    0  0.16282961482E+02 -0.24918859703E+02 -0.31583842943E+02  0.43400732005E+02  0.00000000000E+00 0.  1.
         11    1    4    4    0    0 -0.34136410398E+01  0.94917270417E+01  0.12477754959E+02  0.16044943019E+02  0.51100000000E-03 0. -1.
        -11    1    4    4    0    0 -0.16409123997E+00  0.44748622059E+01  0.13232263396E+02  0.13969399148E+02  0.51100000000E-03 0.  1.
        -12    1    4    4    0    0 -0.12705229202E+02  0.10952270455E+02  0.58738245877E+01  0.17772925828E+02  0.00000000000E+00 0.  1.
</event>
<event>
 8    1  0.5542925E-011  0.9118800E+02  0.7816164E-02  0.1184000E+00
        -11   -1    0    0    0    0  0.00000000000E+00  0.00000000000E+00  0.45593999997E+02  0.45594000000E+02  0.51100000000E-03 0. -1.
         11   -1    0    0    0    0 -0.00000000000E+00 -0.00000000000E+00 -0.45593999997E+02  0.45594000000E+02  0.51100000000E-03 0.  1.
         23    2    1    2    0    0  0.35527136788E-14  0.00000000000E+00  0.17763568394E-14  0.91188000000E+02  0.91188000000E+02 0.  0.
    9900012    2    3    3    0    0  0.26969397558E+02  0.30729256476E+02  0.14559793864E+02  0.47787271831E+02  0.20000003587E+02 0.  0.
        -12    1    3    3    0    0 -0.26969397558E+02 -0.30729256476E+02 -0.14559793864E+02  0.43400728169E+02  0.00000000000E+00 0.  1.
         11    1    4    4    0    0  0.67642193776E+01  0.14608708833E+01  0.16761062436E+01  0.71202626305E+01  0.51100000000E-03 0. -1.
        -11    1    4    4    0    0  0.68954302139E+01  0.66347358435E+00  0.12412306033E+01  0.70375996408E+01  0.51100000000E-03 0.  1.
         12    1    4    4    0    0  0.13309747966E+02  0.28604912009E+02  0.11642457017E+02  0.33629409560E+02  0.00000000000E+00 0. -1.
</event>
<event>
 8    1  0.5542925E-011  0.9118800E+02  0.7816164E-02  0.1184000E+00
        -11   -1    0    0    0    0  0.00000000000E+00  0.00000000000E+00  0.45593999997E+02  0.45594000000E+02  0.51100000000E-03 0. -1.
         11   -1    0    0    0    0 -0.00000000000E+00 -0.00000000000E+00 -0.45593999997E+02  0.45594000000E+02  0.51100000000E-03 0.  1.
         23    2    1    2    0    0  0.35527136788E-14  0.35527136788E-14  0.00000000000E+00  0.91188000000E+02  0.91188000000E+02 0.  0.
    9900012    2    3    3    0    0  0.18404812619E+02 -0.24265626820E+02  0.30920316501E+02  0.47787265616E+02  0.19999975249E+02 0.  0.
        -12    1    3    3    0    0 -0.18404812619E+02  0.24265626820E+02 -0.30920316501E+02  0.43400734384E+02  0.00000000000E+00 0.  1.
         11    1    4    4    0    0  0.17165373445E+02 -0.15035109542E+02  0.23286680163E+02  0.32603282621E+02  0.51100000000E-03 0. -1.
        -11    1    4    4    0    0  0.22911067510E+00 -0.21838819508E+01  0.77594516429E+01  0.80641752298E+01  0.51100000000E-03 0.  1.
         12    1    4    4    0    0  0.10103284996E+01 -0.70466353274E+01 -0.12581530413E+00  0.71198077647E+01  0.00000000000E+00 0. -1.
</event>
<event>
 8    1  0.5542925E-011  0.9118800E+02  0.7816164E-02  0.1184000E+00
        -11   -1    0    0    0    0  0.00000000000E+00  0.00000000000E+00  0.45593999997E+02  0.45594000000E+02  0.51100000000E-03 0. -1.
         11   -1    0    0    0    0 -0.00000000000E+00 -0.00000000000E+00 -0.45593999997E+02  0.45594000000E+02  0.51100000000E-03 0.  1.
         23    2    1    2    0    0  0.35527136788E-14  0.00000000000E+00 -0.35527136788E-14  0.91188000000E+02  0.91188000000E+02 0.  0.
    9900012    2    3    3    0    0 -0.28552347454E+02 -0.14548259227E+02  0.29270032028E+02  0.47787272281E+02  0.20000005636E+02 0.  0.
        -12    1    3    3    0    0  0.28552347454E+02  0.14548259227E+02 -0.29270032028E+02  0.43400727719E+02  0.00000000000E+00 0.  1.
         11    1    4    4    0    0 -0.81573581539E+01 -0.77222981572E+01  0.10917296039E+02  0.15664090588E+02  0.51100000000E-03 0. -1.
        -11    1    4    4    0    0 -0.17692308581E+02 -0.97333210889E+01  0.19416592175E+02  0.28013556973E+02  0.51100000000E-03 0.  1.
        -12    1    4    4    0    0 -0.27026807196E+01  0.29073600192E+01 -0.10638561860E+01  0.41096247198E+01  0.00000000000E+00 0.  1.
</event>
<event>
 8    1  0.5542925E-011  0.9118800E+02  0.7816164E-02  0.1184000E+00
        -11   -1    0    0    0    0  0.00000000000E+00  0.00000000000E+00  0.45593999997E+02  0.45594000000E+02  0.51100000000E-03 0. -1.
         11   -1    0    0    0    0 -0.00000000000E+00 -0.00000000000E+00 -0.45593999997E+02  0.45594000000E+02  0.51100000000E-03 0.  1.
         23    2    1    2    0    0  0.00000000000E+00 -0.35527136788E-14  0.00000000000E+00  0.91188000000E+02  0.91188000000E+02 0.  0.
    9900012    2    3    3    0    0 -0.27545494157E+02 -0.30336752093E+02 -0.14302118217E+02  0.47787270036E+02  0.19999995402E+02 0.  0.
         12    1    3    3    0    0  0.27545494157E+02  0.30336752093E+02  0.14302118217E+02  0.43400729964E+02  0.00000000000E+00 0. -1.
         11    1    4    4    0    0 -0.92412407980E+01 -0.15136332952E+02 -0.11697677096E+01  0.17772941891E+02  0.51100000000E-03 0. -1.
        -11    1    4    4    0    0 -0.50943589453E+01 -0.11568038947E+02 -0.30466727536E+01  0.13002085728E+02  0.51100000000E-03 0.  1.
        -12    1    4    4    0    0 -0.13209894414E+02 -0.36323801942E+01 -0.10085677754E+02  0.17012242417E+02  0.00000000000E+00 0.  1.
</event>
<event>
 8    1  0.5542925E-011  0.9118800E+02  0.7816164E-02  0.1184000E+00
        -11   -1    0    0    0    0  0.00000000000E+00  0.00000000000E+00  0.45593999997E+02  0.45594000000E+02  0.51100000000E-03 0.  1.
         11   -1    0    0    0    0 -0.00000000000E+00 -0.00000000000E+00 -0.45593999997E+02  0.45594000000E+02  0.51100000000E-03 0. -1.
         23    2    1    2    0    0  0.00000000000E+00  0.00000000000E+00  0.35527136788E-14  0.91188000000E+02  0.91188000000E+02 0.  0.
    9900012    2    3    3    0    0 -0.34936639920E+02 -0.23758937077E+02  0.99281302332E+01  0.47787266482E+02  0.19999979198E+02 0.  0.
         12    1    3    3    0    0  0.34936639920E+02  0.23758937077E+02 -0.99281302332E+01  0.43400733518E+02  0.00000000000E+00 0. -1.
         11    1    4    4    0    0  0.38650919797E+00 -0.35481139494E+01  0.13047393002E+01  0.38001114274E+01  0.51100000000E-03 0. -1.
        -11    1    4    4    0    0 -0.11582811812E+02 -0.18060738534E+01  0.75209932475E+01  0.13927985207E+02  0.51100000000E-03 0.  1.
         12    1    4    4    0    0 -0.23740337307E+02 -0.18404749274E+02  0.11023976855E+01  0.30059169848E+02  0.00000000000E+00 0. -1.
</event>
<event>
 8    1  0.5542925E-011  0.9118800E+02  0.7816164E-02  0.1184000E+00
        -11   -1    0    0    0    0  0.00000000000E+00  0.00000000000E+00  0.45593999997E+02  0.45594000000E+02  0.51100000000E-03 0. -1.
         11   -1    0    0    0    0 -0.00000000000E+00 -0.00000000000E+00 -0.45593999997E+02  0.45594000000E+02  0.51100000000E-03 0.  1.
         23    2    1    2    0    0 -0.35527136788E-14  0.00000000000E+00 -0.35527136788E-14  0.91188000000E+02  0.91188000000E+02 0.  0.
    9900012    2    3    3    0    0  0.22930438131E+02  0.23629889432E+02  0.28274485169E+02  0.47787272138E+02  0.20000004985E+02 0.  0.
        -12    1    3    3    0    0 -0.22930438131E+02 -0.23629889432E+02 -0.28274485169E+02  0.43400727862E+02  0.00000000000E+00 0.  1.
         11    1    4    4    0    0  0.11946582984E+01 -0.19466268082E+01  0.38313397453E+01  0.44604628555E+01  0.51100000000E-03 0. -1.
        -11    1    4    4    0    0  0.36475370984E+01  0.12544691450E+02  0.12285807606E+02  0.17933624264E+02  0.51100000000E-03 0.  1.
         12    1    4    4    0    0  0.18088242734E+02  0.13031824790E+02  0.12157337818E+02  0.25393185018E+02  0.00000000000E+00 0. -1.
</event>
<event>
 8    1  0.5542925E-011  0.9118800E+02  0.7816164E-02  0.1184000E+00
        -11   -1    0    0    0    0  0.00000000000E+00  0.00000000000E+00  0.45593999997E+02  0.45594000000E+02  0.51100000000E-03 0. -1.
         11   -1    0    0    0    0 -0.00000000000E+00 -0.00000000000E+00 -0.45593999997E+02  0.45594000000E+02  0.51100000000E-03 0.  1.
         23    2    1    2    0    0  0.35527136788E-14  0.00000000000E+00  0.35527136788E-14  0.91188000000E+02  0.91188000000E+02 0.  0.
    9900012    2    3    3    0    0  0.19540377933E+02  0.23057870479E+02  0.31146933884E+02  0.47787271306E+02  0.20000001193E+02 0.  0.
        -12    1    3    3    0    0 -0.19540377933E+02 -0.23057870479E+02 -0.31146933884E+02  0.43400728694E+02  0.00000000000E+00 0.  1.
         11    1    4    4    0    0  0.14498272997E+01  0.10425175732E+01  0.11344324565E+01  0.21156037789E+01  0.51100000000E-03 0. -1.
        -11    1    4    4    0    0  0.16005168315E+02  0.56883019832E+01  0.20639430265E+02  0.26730287581E+02  0.51100000000E-03 0.  1.
        -12    1    4    4    0    0  0.20853823174E+01  0.16327050923E+02  0.93730711628E+01  0.18941379946E+02  0.00000000000E+00 0.  1.
</event>
<event>
 8    1  0.5542925E-011  0.9118800E+02  0.7816164E-02  0.1184000E+00
        -11   -1    0    0    0    0  0.00000000000E+00  0.00000000000E+00  0.45593999997E+02  0.45594000000E+02  0.51100000000E-03 0. -1.
         11   -1    0    0    0    0 -0.00000000000E+00 -0.00000000000E+00 -0.45593999997E+02  0.45594000000E+02  0.51100000000E-03 0.  1.
         23    2    1    2    0    0  0.00000000000E+00  0.00000000000E+00 -0.35527136788E-14  0.91188000000E+02  0.91188000000E+02 0.  0.
    9900012    2    3    3    0    0 -0.82601850723E+01  0.34092017674E+02 -0.25556343439E+02  0.47787274010E+02  0.20000013520E+02 0.  0.
         12    1    3    3    0    0  0.82601850723E+01 -0.34092017674E+02  0.25556343439E+02  0.43400725990E+02  0.00000000000E+00 0. -1.
         11    1    4    4    0    0 -0.37336740973E+00 -0.91553483451E-01 -0.33344705012E+00  0.50889336735E+00  0.51100000000E-03 0. -1.
        -11    1    4    4    0    0 -0.82401665375E+01  0.65417820366E+01 -0.10810384064E+01  0.10576573220E+02  0.51100000000E-03 0.  1.
        -12    1    4    4    0    0  0.35334887487E+00  0.27641789121E+02 -0.24141857983E+02  0.36701807422E+02  0.00000000000E+00 0.  1.
</event>
<event>
 8    1  0.5542925E-011  0.9118800E+02  0.7816164E-02  0.1184000E+00
        -11   -1    0    0    0    0  0.00000000000E+00  0.00000000000E+00  0.45593999997E+02  0.45594000000E+02  0.51100000000E-03 0. -1.
         11   -1    0    0    0    0 -0.00000000000E+00 -0.00000000000E+00 -0.45593999997E+02  0.45594000000E+02  0.51100000000E-03 0.  1.
         23    2    1    2    0    0  0.88817841970E-15 -0.71054273576E-14 -0.35527136788E-14  0.91188000000E+02  0.91188000000E+02 0.  0.
    9900012    2    3    3    0    0  0.24810467459E+01 -0.33359782815E+02 -0.27651269421E+02  0.47787269556E+02  0.19999993215E+02 0.  0.
         12    1    3    3    0    0 -0.24810467459E+01  0.33359782815E+02  0.27651269421E+02  0.43400730444E+02  0.00000000000E+00 0. -1.
         11    1    4    4    0    0  0.78058144616E+01 -0.42768522932E+01 -0.41122938195E+01  0.98047521980E+01  0.51100000000E-03 0. -1.
        -11    1    4    4    0    0 -0.10924823132E-01 -0.78474978109E+01 -0.73979167502E+01  0.10784827942E+02  0.51100000000E-03 0.  1.
         12    1    4    4    0    0 -0.53138428925E+01 -0.21235432711E+02 -0.16141058852E+02  0.27197689416E+02  0.00000000000E+00 0. -1.
</event>
<event>
 8    1  0.5542925E-011  0.9118800E+02  0.7816164E-02  0.1184000E+00
        -11   -1    0    0    0    0  0.00000000000E+00  0.00000000000E+00  0.45593999997E+02  0.45594000000E+02  0.51100000000E-03 0. -1.
         11   -1    0    0    0    0 -0.00000000000E+00 -0.00000000000E+00 -0.45593999997E+02  0.45594000000E+02  0.51100000000E-03 0.  1.
         23    2    1    2    0    0  0.00000000000E+00  0.00000000000E+00  0.00000000000E+00  0.91188000000E+02  0.91188000000E+02 0.  0.
    9900012    2    3    3    0    0  0.28997654453E+01  0.42217509351E+01 -0.43097459898E+02  0.47787275695E+02  0.20000021203E+02 0.  0.
         12    1    3    3    0    0 -0.28997654453E+01 -0.42217509351E+01  0.43097459898E+02  0.43400724305E+02  0.00000000000E+00 0. -1.
         11    1    4    4    0    0 -0.24113695597E+01 -0.50668337871E+01 -0.15730555110E+02  0.16701433235E+02  0.51100000000E-03 0. -1.
        -11    1    4    4    0    0 -0.19512446047E+01  0.14132931579E+00 -0.97810758539E+01  0.99748069958E+01  0.51100000000E-03 0.  1.
        -12    1    4    4    0    0  0.72623796097E+01  0.91472554065E+01 -0.17585828934E+02  0.21111035464E+02  0.00000000000E+00 0.  1.
</event>
<event>
 8    1  0.5542925E-011  0.9118800E+02  0.7816164E-02  0.1184000E+00
        -11   -1    0    0    0    0  0.00000000000E+00  0.00000000000E+00  0.45593999997E+02  0.45594000000E+02  0.51100000000E-03 0. -1.
         11   -1    0    0    0    0 -0.00000000000E+00 -0.00000000000E+00 -0.45593999997E+02  0.45594000000E+02  0.51100000000E-03 0.  1.
         23    2    1    2    0    0 -0.17763568394E-14  0.00000000000E+00  0.00000000000E+00  0.91188000000E+02  0.91188000000E+02 0.  0.
    9900012    2    3    3    0    0  0.12982976258E+02  0.64021256514E+01  0.40915508741E+02  0.47787265664E+02  0.19999975467E+02 0.  0.
        -12    1    3    3    0    0 -0.12982976258E+02 -0.64021256514E+01 -0.40915508741E+02  0.43400734336E+02  0.00000000000E+00 0.  1.
         11    1    4    4    0    0 -0.27353710109E+01  0.11090360616E+01  0.21764046508E+02  0.21963286098E+02  0.51100000000E-03 0. -1.
        -11    1    4    4    0    0  0.47416075130E+01  0.16050587251E+01  0.26476118892E+01  0.56629413113E+01  0.51100000000E-03 0.  1.
        -12    1    4    4    0    0  0.10976739756E+02  0.36880308647E+01  0.16503850344E+02  0.20161038255E+02  0.00000000000E+00 0.  1.
</event>
<event>
 8    1  0.5542925E-011  0.9118800E+02  0.7816164E-02  0.1184000E+00
        -11   -1    0    0    0    0  0.00000000000E+00  0.00000000000E+00  0.45593999997E+02  0.45594000000E+02  0.51100000000E-03 0. -1.
         11   -1    0    0    0    0 -0.00000000000E+00 -0.00000000000E+00 -0.45593999997E+02  0.45594000000E+02  0.51100000000E-03 0.  1.
         23    2    1    2    0    0  0.00000000000E+00  0.71054273576E-14 -0.35527136788E-14  0.91188000000E+02  0.91188000000E+02 0.  0.
    9900012    2    3    3    0    0 -0.20708179944E+02  0.29395369596E+02 -0.24304460545E+02  0.47787271058E+02  0.20000000064E+02 0.  0.
         12    1    3    3    0    0  0.20708179944E+02 -0.29395369596E+02  0.24304460545E+02  0.43400728942E+02  0.00000000000E+00 0. -1.
         11    1    4    4    0    0 -0.34223690350E+01  0.58275633068E+01  0.26276294667E+01  0.72510372211E+01  0.51100000000E-03 0. -1.
        -11    1    4    4    0    0 -0.17175452595E+01  0.34619865796E+01 -0.56601446719E+00  0.39058527153E+01  0.51100000000E-03 0.  1.
         12    1    4    4    0    0 -0.15568265649E+02  0.20105819710E+02 -0.26366075545E+02  0.36630381122E+02  0.00000000000E+00 0. -1.
</event>
<event>
 8    1  0.5542925E-011  0.9118800E+02  0.7816164E-02  0.1184000E+00
        -11   -1    0    0    0    0  0.00000000000E+00  0.00000000000E+00  0.45593999997E+02  0.45594000000E+02  0.51100000000E-03 0. -1.
         11   -1    0    0    0    0 -0.00000000000E+00 -0.00000000000E+00 -0.45593999997E+02  0.45594000000E+02  0.51100000000E-03 0.  1.
         23    2    1    2    0    0  0.17763568394E-14  0.00000000000E+00  0.00000000000E+00  0.91188000000E+02  0.91188000000E+02 0.  0.
    9900012    2    3    3    0    0  0.90331609763E+01  0.11718854959E+02 -0.40800662987E+02  0.47787266608E+02  0.19999979771E+02 0.  0.
         12    1    3    3    0    0 -0.90331609763E+01 -0.11718854959E+02  0.40800662987E+02  0.43400733392E+02  0.00000000000E+00 0. -1.
         11    1    4    4    0    0  0.61714030124E+01  0.11312600293E+02 -0.11488400703E+02  0.17263965116E+02  0.51100000000E-03 0. -1.
        -11    1    4    4    0    0 -0.62309579241E+00  0.36778349409E+01 -0.12490639131E+02  0.13035750243E+02  0.51100000000E-03 0.  1.
         12    1    4    4    0    0  0.34848537563E+01 -0.32715802751E+01 -0.16821623153E+02  0.17487551249E+02  0.00000000000E+00 0. -1.
</event>
<event>
 8    1  0.5542925E-011  0.9118800E+02  0.7816164E-02  0.1184000E+00
        -11   -1    0    0    0    0  0.00000000000E+00  0.00000000000E+00  0.45593999997E+02  0.45594000000E+02  0.51100000000E-03 0. -1.
         11   -1    0    0    0    0 -0.00000000000E+00 -0.00000000000E+00 -0.45593999997E+02  0.45594000000E+02  0.51100000000E-03 0.  1.
         23    2    1    2    0    0  0.00000000000E+00  0.00000000000E+00  0.00000000000E+00  0.91188000000E+02  0.91188000000E+02 0.  0.
    9900012    2    3    3    0    0  0.20476227466E+02  0.32031466970E+02  0.20936401598E+02  0.47787266373E+02  0.19999978700E+02 0.  0.
        -12    1    3    3    0    0 -0.20476227466E+02 -0.32031466970E+02 -0.20936401598E+02  0.43400733627E+02  0.00000000000E+00 0.  1.
         11    1    4    4    0    0  0.12636281316E+02  0.14936533769E+02  0.13896302721E+02  0.23997559795E+02  0.51100000000E-03 0. -1.
        -11    1    4    4    0    0  0.64533764851E+01  0.98880391462E+01  0.10384616033E+02  0.15724491618E+02  0.51100000000E-03 0.  1.
        -12    1    4    4    0    0  0.13865696645E+01  0.72068940544E+01 -0.33445171555E+01  0.80652149599E+01  0.00000000000E+00 0.  1.
</event>
<event>
 8    1  0.5542925E-011  0.9118800E+02  0.7816164E-02  0.1184000E+00
        -11   -1    0    0    0    0  0.00000000000E+00  0.00000000000E+00  0.45593999997E+02  0.45594000000E+02  0.51100000000E-03 0. -1.
         11   -1    0    0    0    0 -0.00000000000E+00 -0.00000000000E+00 -0.45593999997E+02  0.45594000000E+02  0.51100000000E-03 0.  1.
         23    2    1    2    0    0  0.44408920985E-15  0.00000000000E+00  0.00000000000E+00  0.91188000000E+02  0.91188000000E+02 0.  0.
    9900012    2    3    3    0    0  0.34423023216E+01  0.19307113115E+02 -0.38717044113E+02  0.47787267668E+02  0.19999984606E+02 0.  0.
         12    1    3    3    0    0 -0.34423023216E+01 -0.19307113115E+02  0.38717044113E+02  0.43400732332E+02  0.00000000000E+00 0. -1.
         11    1    4    4    0    0 -0.59976556601E+00  0.84322259554E+01 -0.50273987560E+01  0.98354914372E+01  0.51100000000E-03 0.  1.
        -11    1    4    4    0    0 -0.36524564889E+01 -0.52589159485E+00 -0.80620687617E+01  0.88664510010E+01  0.51100000000E-03 0. -1.
        -12    1    4    4    0    0  0.76945243764E+01  0.11400778754E+02 -0.25627576595E+02  0.29085325230E+02  0.00000000000E+00 0.  1.
</event>
<event>
 8    1  0.5542925E-011  0.9118800E+02  0.7816164E-02  0.1184000E+00
        -11   -1    0    0    0    0  0.00000000000E+00  0.00000000000E+00  0.45593999997E+02  0.45594000000E+02  0.51100000000E-03 0. -1.
         11   -1    0    0    0    0 -0.00000000000E+00 -0.00000000000E+00 -0.45593999997E+02  0.45594000000E+02  0.51100000000E-03 0.  1.
         23    2    1    2    0    0 -0.35527136788E-14  0.00000000000E+00  0.00000000000E+00  0.91188000000E+02  0.91188000000E+02 0.  0.
    9900012    2    3    3    0    0  0.15073503139E+02  0.15597911571E+02  0.37591468928E+02  0.47787264080E+02  0.19999968246E+02 0.  0.
        -12    1    3    3    0    0 -0.15073503139E+02 -0.15597911571E+02 -0.37591468928E+02  0.43400735920E+02  0.00000000000E+00 0.  1.
         11    1    4    4    0    0  0.42304254459E+01  0.45822347211E+01  0.10584815560E+02  0.12285426130E+02  0.51100000000E-03 0. -1.
        -11    1    4    4    0    0  0.15096183252E+02  0.81776803728E+01  0.24192343367E+02  0.29665445941E+02  0.51100000000E-03 0.  1.
        -12    1    4    4    0    0 -0.42531055588E+01  0.28379964768E+01  0.28143100008E+01  0.58363920085E+01  0.00000000000E+00 0.  1.
</event>
<event>
 8    1  0.5542925E-011  0.9118800E+02  0.7816164E-02  0.1184000E+00
        -11   -1    0    0    0    0  0.00000000000E+00  0.00000000000E+00  0.45593999997E+02  0.45594000000E+02  0.51100000000E-03 0. -1.
         11   -1    0    0    0    0 -0.00000000000E+00 -0.00000000000E+00 -0.45593999997E+02  0.45594000000E+02  0.51100000000E-03 0.  1.
         23    2    1    2    0    0  0.35527136788E-14  0.00000000000E+00  0.00000000000E+00  0.91188000000E+02  0.91188000000E+02 0.  0.
    9900012    2    3    3    0    0 -0.24244562561E+02 -0.69818987316E+01 -0.35313985071E+02  0.47787271144E+02  0.20000000452E+02 0.  0.
         12    1    3    3    0    0  0.24244562561E+02  0.69818987316E+01  0.35313985071E+02  0.43400728856E+02  0.00000000000E+00 0. -1.
         11    1    4    4    0    0 -0.58112886239E+01 -0.46631277999E+01 -0.11163531125E+02  0.13421634170E+02  0.51100000000E-03 0. -1.
        -11    1    4    4    0    0 -0.18999199414E+02  0.18663290160E+01 -0.23185423495E+02  0.30033591615E+02  0.51100000000E-03 0.  1.
         12    1    4    4    0    0  0.56592547728E+00 -0.41850999477E+01 -0.96503045066E+00  0.43320453585E+01  0.00000000000E+00 0. -1.
</event>
<event>
 8    1  0.5542925E-011  0.9118800E+02  0.7816164E-02  0.1184000E+00
        -11   -1    0    0    0    0  0.00000000000E+00  0.00000000000E+00  0.45593999997E+02  0.45594000000E+02  0.51100000000E-03 0. -1.
         11   -1    0    0    0    0 -0.00000000000E+00 -0.00000000000E+00 -0.45593999997E+02  0.45594000000E+02  0.51100000000E-03 0.  1.
         23    2    1    2    0    0 -0.13322676296E-14  0.35527136788E-14  0.00000000000E+00  0.91188000000E+02  0.91188000000E+02 0.  0.
    9900012    2    3    3    0    0 -0.38587927678E+01  0.24694555467E+02  0.35481149182E+02  0.47787270759E+02  0.19999998700E+02 0.  0.
        -12    1    3    3    0    0  0.38587927678E+01 -0.24694555467E+02 -0.35481149182E+02  0.43400729241E+02  0.00000000000E+00 0.  1.
         11    1    4    4    0    0 -0.59219398181E+01  0.26869379116E+02  0.34586894637E+02  0.44195997400E+02  0.51100000000E-03 0. -1.
        -11    1    4    4    0    0  0.10424662526E+01 -0.27119575411E-02  0.38104922970E-01  0.10431660888E+01  0.51100000000E-03 0.  1.
         12    1    4    4    0    0  0.10206807977E+01 -0.21721116907E+01  0.85614962197E+00  0.25481072706E+01  0.00000000000E+00 0. -1.
</event>
<event>
 8    1  0.5542925E-011  0.9118800E+02  0.7816164E-02  0.1184000E+00
        -11   -1    0    0    0    0  0.00000000000E+00  0.00000000000E+00  0.45593999997E+02  0.45594000000E+02  0.51100000000E-03 0. -1.
         11   -1    0    0    0    0 -0.00000000000E+00 -0.00000000000E+00 -0.45593999997E+02  0.45594000000E+02  0.51100000000E-03 0.  1.
         23    2    1    2    0    0  0.00000000000E+00  0.00000000000E+00 -0.35527136788E-14  0.91188000000E+02  0.91188000000E+02 0.  0.
    9900012    2    3    3    0    0 -0.35076570175E+02 -0.88468967552E+01  0.23978957053E+02  0.47787265689E+02  0.19999975581E+02 0.  0.
        -12    1    3    3    0    0  0.35076570175E+02  0.88468967552E+01 -0.23978957053E+02  0.43400734311E+02  0.00000000000E+00 0.  1.
         11    1    4    4    0    0 -0.15729563859E+02 -0.19785371298E+01  0.12250557903E+02  0.20035217932E+02  0.51100000000E-03 0. -1.
        -11    1    4    4    0    0 -0.20075387464E+02 -0.90824663839E+01  0.81741246316E+01  0.23501674221E+02  0.51100000000E-03 0.  1.
        -12    1    4    4    0    0  0.72838114930E+00  0.22141067586E+01  0.35542745181E+01  0.42503735350E+01  0.00000000000E+00 0.  1.
</event>
<event>
 8    1  0.5542925E-011  0.9118800E+02  0.7816164E-02  0.1184000E+00
        -11   -1    0    0    0    0  0.00000000000E+00  0.00000000000E+00  0.45593999997E+02  0.45594000000E+02  0.51100000000E-03 0. -1.
         11   -1    0    0    0    0 -0.00000000000E+00 -0.00000000000E+00 -0.45593999997E+02  0.45594000000E+02  0.51100000000E-03 0.  1.
         23    2    1    2    0    0 -0.61062266354E-15 -0.44408920985E-15  0.00000000000E+00  0.91188000000E+02  0.91188000000E+02 0.  0.
    9900012    2    3    3    0    0  0.43864839024E+00 -0.28800217630E+01  0.43302838483E+02  0.47787276982E+02  0.20000027073E+02 0.  0.
        -12    1    3    3    0    0 -0.43864839024E+00  0.28800217630E+01 -0.43302838483E+02  0.43400723018E+02  0.00000000000E+00 0.  1.
         11    1    4    4    0    0 -0.33557033663E+01 -0.50338849051E+01  0.60128395178E+01  0.85296530790E+01  0.51100000000E-03 0. -1.
        -11    1    4    4    0    0 -0.38199558417E+01 -0.65478822811E+00  0.84306774851E+01  0.92788540982E+01  0.51100000000E-03 0.  1.
        -12    1    4    4    0    0  0.76143075983E+01  0.28086513702E+01  0.28859321480E+02  0.29978769805E+02  0.00000000000E+00 0.  1.
</event>
<event>
 8    1  0.5542925E-011  0.9118800E+02  0.7816164E-02  0.1184000E+00
        -11   -1    0    0    0    0  0.00000000000E+00  0.00000000000E+00  0.45593999997E+02  0.45594000000E+02  0.51100000000E-03 0. -1.
         11   -1    0    0    0    0 -0.00000000000E+00 -0.00000000000E+00 -0.45593999997E+02  0.45594000000E+02  0.51100000000E-03 0.  1.
         23    2    1    2    0    0 -0.35527136788E-14 -0.35527136788E-14  0.17763568394E-14  0.91188000000E+02  0.91188000000E+02 0.  0.
    9900012    2    3    3    0    0  0.28109887733E+02  0.30589176385E+02 -0.12560311338E+02  0.47787252067E+02  0.19999913472E+02 0.  0.
         12    1    3    3    0    0 -0.28109887733E+02 -0.30589176385E+02  0.12560311338E+02  0.43400747933E+02  0.00000000000E+00 0. -1.
         11    1    4    4    0    0  0.37010858462E+01  0.10933754091E+02 -0.83113377528E+01  0.14224041285E+02  0.51100000000E-03 0. -1.
        -11    1    4    4    0    0  0.73395590009E+01  0.46547909089E+00 -0.26976801463E+01  0.78334714875E+01  0.51100000000E-03 0.  1.
        -12    1    4    4    0    0  0.17069242886E+02  0.19189943202E+02 -0.15512934391E+01  0.25729739294E+02  0.00000000000E+00 0.  1.
</event>
<event>
 8    1  0.5542925E-011  0.9118800E+02  0.7816164E-02  0.1184000E+00
        -11   -1    0    0    0    0  0.00000000000E+00  0.00000000000E+00  0.45593999997E+02  0.45594000000E+02  0.51100000000E-03 0. -1.
         11   -1    0    0    0    0 -0.00000000000E+00 -0.00000000000E+00 -0.45593999997E+02  0.45594000000E+02  0.51100000000E-03 0.  1.
         23    2    1    2    0    0 -0.17763568394E-14  0.00000000000E+00  0.35527136788E-14  0.91188000000E+02  0.91188000000E+02 0.  0.
    9900012    2    3    3    0    0  0.15992065024E+02  0.33747266560E+02 -0.22113327425E+02  0.47787269663E+02  0.19999993699E+02 0.  0.
         12    1    3    3    0    0 -0.15992065024E+02 -0.33747266560E+02  0.22113327425E+02  0.43400730337E+02  0.00000000000E+00 0. -1.
         11    1    4    4    0    0  0.22260482834E+01  0.58722428590E+00  0.32035058592E+00  0.23243812254E+01  0.51100000000E-03 0. -1.
        -11    1    4    4    0    0  0.15180228798E+02  0.22087894935E+02 -0.96351650185E+01  0.28480710212E+02  0.51100000000E-03 0.  1.
         12    1    4    4    0    0 -0.14142120567E+01  0.11072147339E+02 -0.12798512992E+02  0.16982178225E+02  0.00000000000E+00 0. -1.
</event>
<event>
 8    1  0.5542925E-011  0.9118800E+02  0.7816164E-02  0.1184000E+00
        -11   -1    0    0    0    0  0.00000000000E+00  0.00000000000E+00  0.45593999997E+02  0.45594000000E+02  0.51100000000E-03 0.  1.
         11   -1    0    0    0    0 -0.00000000000E+00 -0.00000000000E+00 -0.45593999997E+02  0.45594000000E+02  0.51100000000E-03 0. -1.
         23    2    1    2    0    0  0.00000000000E+00  0.00000000000E+00  0.88817841970E-15  0.91188000000E+02  0.91188000000E+02 0.  0.
    9900012    2    3    3    0    0 -0.13975340335E+02 -0.40473989323E+02 -0.70831841396E+01  0.47787246012E+02  0.19999885866E+02 0.  0.
         12    1    3    3    0    0  0.13975340335E+02  0.40473989323E+02  0.70831841396E+01  0.43400753988E+02  0.00000000000E+00 0. -1.
         11    1    4    4    0    0  0.46106001403E+00 -0.55416726350E+01 -0.24020214330E+01  0.60574267767E+01  0.51100000000E-03 0. -1.
        -11    1    4    4    0    0 -0.10007023328E+02 -0.90428608315E+01  0.39975844593E+01  0.14067499056E+02  0.51100000000E-03 0.  1.
         12    1    4    4    0    0 -0.44293770206E+01 -0.25889455857E+02 -0.86787471659E+01  0.27662320179E+02  0.00000000000E+00 0. -1.
</event>
<event>
 8    1  0.5542925E-011  0.9118800E+02  0.7816164E-02  0.1184000E+00
        -11   -1    0    0    0    0  0.00000000000E+00  0.00000000000E+00  0.45593999997E+02  0.45594000000E+02  0.51100000000E-03 0. -1.
         11   -1    0    0    0    0 -0.00000000000E+00 -0.00000000000E+00 -0.45593999997E+02  0.45594000000E+02  0.51100000000E-03 0.  1.
         23    2    1    2    0    0  0.00000000000E+00  0.00000000000E+00  0.00000000000E+00  0.91188000000E+02  0.91188000000E+02 0.  0.
    9900012    2    3    3    0    0  0.34398850245E+02  0.36971802865E+01 -0.26204435813E+02  0.47787279999E+02  0.20000040829E+02 0.  0.
         12    1    3    3    0    0 -0.34398850245E+02 -0.36971802865E+01  0.26204435813E+02  0.43400720001E+02  0.00000000000E+00 0. -1.
         11    1    4    4    0    0  0.68987050074E+01 -0.12321644192E+01 -0.12531562322E+02  0.14357939073E+02  0.51100000000E-03 0. -1.
        -11    1    4    4    0    0  0.16280384324E+01  0.27055063979E+01  0.13447510310E+01  0.34320008163E+01  0.51100000000E-03 0.  1.
        -12    1    4    4    0    0  0.25872106806E+02  0.22238383078E+01 -0.15017624522E+02  0.29997340110E+02  0.00000000000E+00 0.  1.
</event>
<event>
 8    1  0.5542925E-011  0.9118800E+02  0.7816164E-02  0.1184000E+00
        -11   -1    0    0    0    0  0.00000000000E+00  0.00000000000E+00  0.45593999997E+02  0.45594000000E+02  0.51100000000E-03 0. -1.
         11   -1    0    0    0    0 -0.00000000000E+00 -0.00000000000E+00 -0.45593999997E+02  0.45594000000E+02  0.51100000000E-03 0.  1.
         23    2    1    2    0    0 -0.35527136788E-14  0.00000000000E+00 -0.35527136788E-14  0.91188000000E+02  0.91188000000E+02 0.  0.
    9900012    2    3    3    0    0 -0.30729358889E+02 -0.14141201573E+02 -0.27191118720E+02  0.47787262484E+02  0.19999960969E+02 0.  0.
         12    1    3    3    0    0  0.30729358889E+02  0.14141201573E+02  0.27191118720E+02  0.43400737516E+02  0.00000000000E+00 0. -1.
         11    1    4    4    0    0 -0.13073384436E+02 -0.16613178777E+01 -0.83669873926E+01  0.15610247787E+02  0.51100000000E-03 0. -1.
        -11    1    4    4    0    0 -0.11828678953E+02  0.34472542263E+00 -0.67463015903E+01  0.13621639652E+02  0.51100000000E-03 0.  1.
         12    1    4    4    0    0 -0.58272955002E+01 -0.12824609118E+02 -0.12077829738E+02  0.18555375045E+02  0.00000000000E+00 0. -1.
</event>
<event>
 8    1  0.5542925E-011  0.9118800E+02  0.7816164E-02  0.1184000E+00
        -11   -1    0    0    0    0  0.00000000000E+00  0.00000000000E+00  0.45593999997E+02  0.45594000000E+02  0.51100000000E-03 0. -1.
         11   -1    0    0    0    0 -0.00000000000E+00 -0.00000000000E+00 -0.45593999997E+02  0.45594000000E+02  0.51100000000E-03 0.  1.
         23    2    1    2    0    0  0.00000000000E+00  0.00000000000E+00 -0.71054273576E-14  0.91188000000E+02  0.91188000000E+02 0.  0.
    9900012    2    3    3    0    0 -0.18176038597E+02  0.21949791961E+02 -0.32733221626E+02  0.47787244889E+02  0.19999880747E+02 0.  0.
         12    1    3    3    0    0  0.18176038597E+02 -0.21949791961E+02  0.32733221626E+02  0.43400755111E+02  0.00000000000E+00 0. -1.
         11    1    4    4    0    0 -0.43038204887E+01  0.11332315429E+01 -0.70202988889E+01  0.83121405955E+01  0.51100000000E-03 0. -1.
        -11    1    4    4    0    0 -0.15923197042E+02  0.19272520275E+02 -0.26833093145E+02  0.36674147977E+02  0.51100000000E-03 0.  1.
         12    1    4    4    0    0  0.20509789330E+01  0.15440401425E+01  0.11201704088E+01  0.28009563170E+01  0.00000000000E+00 0. -1.
</event>
<event>
 8    1  0.5542925E-011  0.9118800E+02  0.7816164E-02  0.1184000E+00
        -11   -1    0    0    0    0  0.00000000000E+00  0.00000000000E+00  0.45593999997E+02  0.45594000000E+02  0.51100000000E-03 0.  1.
         11   -1    0    0    0    0 -0.00000000000E+00 -0.00000000000E+00 -0.45593999997E+02  0.45594000000E+02  0.51100000000E-03 0. -1.
         23    2    1    2    0    0  0.00000000000E+00 -0.17763568394E-14 -0.88817841970E-15  0.91188000000E+02  0.91188000000E+02 0.  0.
    9900012    2    3    3    0    0  0.41552741237E+02 -0.12084952633E+02 -0.33085825302E+01  0.47787273016E+02  0.20000008987E+02 0.  0.
         12    1    3    3    0    0 -0.41552741237E+02  0.12084952633E+02  0.33085825302E+01  0.43400726984E+02  0.00000000000E+00 0. -1.
         11    1    4    4    0    0  0.49464097317E+00 -0.68855713466E+00 -0.44204235174E+00  0.95612882076E+00  0.51100000000E-03 0. -1.
        -11    1    4    4    0    0  0.14126204291E+02 -0.13215424432E+02 -0.42383672165E+01  0.19803051470E+02  0.51100000000E-03 0.  1.
        -12    1    4    4    0    0  0.26931895972E+02  0.18190289339E+01  0.13718270380E+01  0.27028092725E+02  0.00000000000E+00 0.  1.
</event>
<event>
 8    1  0.5542925E-011  0.9118800E+02  0.7816164E-02  0.1184000E+00
        -11   -1    0    0    0    0  0.00000000000E+00  0.00000000000E+00  0.45593999997E+02  0.45594000000E+02  0.51100000000E-03 0. -1.
         11   -1    0    0    0    0 -0.00000000000E+00 -0.00000000000E+00 -0.45593999997E+02  0.45594000000E+02  0.51100000000E-03 0.  1.
         23    2    1    2    0    0  0.00000000000E+00  0.00000000000E+00  0.00000000000E+00  0.91188000000E+02  0.91188000000E+02 0.  0.
    9900012    2    3    3    0    0 -0.12531848423E+02  0.28232702607E+02 -0.30487549868E+02  0.47787269380E+02  0.19999992411E+02 0.  0.
         12    1    3    3    0    0  0.12531848423E+02 -0.28232702607E+02  0.30487549868E+02  0.43400730620E+02  0.00000000000E+00 0. -1.
         11    1    4    4    0    0 -0.26545706755E+01  0.90976825141E+01 -0.68596887237E+00  0.95018485651E+01  0.51100000000E-03 0. -1.
        -11    1    4    4    0    0 -0.11179489667E+01  0.74413248646E+00  0.77064103199E+00  0.15483639465E+01  0.51100000000E-03 0.  1.
        -12    1    4    4    0    0 -0.87593287809E+01  0.18390887607E+02 -0.30572222027E+02  0.36737056868E+02  0.00000000000E+00 0.  1.
</event>
<event>
 8    1  0.5542925E-011  0.9118800E+02  0.7816164E-02  0.1184000E+00
        -11   -1    0    0    0    0  0.00000000000E+00  0.00000000000E+00  0.45593999997E+02  0.45594000000E+02  0.51100000000E-03 0. -1.
         11   -1    0    0    0    0 -0.00000000000E+00 -0.00000000000E+00 -0.45593999997E+02  0.45594000000E+02  0.51100000000E-03 0.  1.
         23    2    1    2    0    0 -0.22204460493E-15  0.35527136788E-14  0.00000000000E+00  0.91188000000E+02  0.91188000000E+02 0.  0.
    9900012    2    3    3    0    0 -0.10996884374E+01 -0.17887349882E+02  0.39527920343E+02  0.47787273196E+02  0.20000009810E+02 0.  0.
        -12    1    3    3    0    0  0.10996884374E+01  0.17887349882E+02 -0.39527920343E+02  0.43400726804E+02  0.00000000000E+00 0.  1.
         11    1    4    4    0    0  0.21245396153E+01 -0.45073329692E+00 -0.12199167538E+01  0.24909890063E+01  0.51100000000E-03 0. -1.
        -11    1    4    4    0    0 -0.73202520784E+00 -0.89450960793E+01  0.10665682096E+02  0.13939418195E+02  0.51100000000E-03 0.  1.
         12    1    4    4    0    0 -0.24922028449E+01 -0.84915205054E+01  0.30082155001E+02  0.31356865995E+02  0.00000000000E+00 0. -1.
</event>
<event>
 8    1  0.5542925E-011  0.9118800E+02  0.7816164E-02  0.1184000E+00
        -11   -1    0    0    0    0  0.00000000000E+00  0.00000000000E+00  0.45593999997E+02  0.45594000000E+02  0.51100000000E-03 0. -1.
         11   -1    0    0    0    0 -0.00000000000E+00 -0.00000000000E+00 -0.45593999997E+02  0.45594000000E+02  0.51100000000E-03 0.  1.
         23    2    1    2    0    0  0.00000000000E+00  0.00000000000E+00  0.35527136788E-14  0.91188000000E+02  0.91188000000E+02 0.  0.
    9900012    2    3    3    0    0 -0.30492531885E+02  0.24167747050E+01  0.30789409347E+02  0.47787273870E+02  0.20000012881E+02 0.  0.
        -12    1    3    3    0    0  0.30492531885E+02 -0.24167747050E+01 -0.30789409347E+02  0.43400726130E+02  0.00000000000E+00 0.  1.
         11    1    4    4    0    0 -0.11229248166E+02 -0.42228520352E+01  0.12187218971E+02  0.17101368372E+02  0.51100000000E-03 0. -1.
        -11    1    4    4    0    0 -0.19444105859E+02  0.25985722300E+01  0.12163389208E+02  0.23081894801E+02  0.51100000000E-03 0.  1.
        -12    1    4    4    0    0  0.18082214044E+00  0.40410545102E+01  0.64388011675E+01  0.76040106967E+01  0.00000000000E+00 0.  1.
</event>
<event>
 8    1  0.5542925E-011  0.9118800E+02  0.7816164E-02  0.1184000E+00
        -11   -1    0    0    0    0  0.00000000000E+00  0.00000000000E+00  0.45593999997E+02  0.45594000000E+02  0.51100000000E-03 0. -1.
         11   -1    0    0    0    0 -0.00000000000E+00 -0.00000000000E+00 -0.45593999997E+02  0.45594000000E+02  0.51100000000E-03 0.  1.
         23    2    1    2    0    0  0.00000000000E+00  0.00000000000E+00  0.00000000000E+00  0.91188000000E+02  0.91188000000E+02 0.  0.
    9900012    2    3    3    0    0 -0.29724719342E+02  0.18096881064E+02  0.25933901865E+02  0.47787270626E+02  0.19999998093E+02 0.  0.
        -12    1    3    3    0    0  0.29724719342E+02 -0.18096881064E+02 -0.25933901865E+02  0.43400729374E+02  0.00000000000E+00 0.  1.
         11    1    4    4    0    0 -0.15449005818E+02  0.69307625976E+00  0.17245193535E+02  0.23163523821E+02  0.51100000000E-03 0. -1.
        -11    1    4    4    0    0 -0.18902529384E+01  0.28964300005E+00  0.63520875784E+00  0.20150532662E+01  0.51100000000E-03 0.  1.
         12    1    4    4    0    0 -0.12385460586E+02  0.17114161804E+02  0.80534995722E+01  0.22608693539E+02  0.00000000000E+00 0. -1.
</event>
<event>
 8    1  0.5542925E-011  0.9118800E+02  0.7816164E-02  0.1184000E+00
        -11   -1    0    0    0    0  0.00000000000E+00  0.00000000000E+00  0.45593999997E+02  0.45594000000E+02  0.51100000000E-03 0. -1.
         11   -1    0    0    0    0 -0.00000000000E+00 -0.00000000000E+00 -0.45593999997E+02  0.45594000000E+02  0.51100000000E-03 0.  1.
         23    2    1    2    0    0  0.00000000000E+00  0.00000000000E+00  0.71054273576E-14  0.91188000000E+02  0.91188000000E+02 0.  0.
    9900012    2    3    3    0    0  0.18052924889E+02  0.47639412204E+01 -0.39179328293E+02  0.47787274217E+02  0.20000014467E+02 0.  0.
         12    1    3    3    0    0 -0.18052924889E+02 -0.47639412204E+01  0.39179328293E+02  0.43400725783E+02  0.00000000000E+00 0. -1.
         11    1    4    4    0    0 -0.10180875240E+01  0.36362861484E+01 -0.19168115168E+01  0.42347663232E+01  0.51100000000E-03 0. -1.
        -11    1    4    4    0    0 -0.40587201115E+00 -0.16988564057E+01 -0.44126081858E+00  0.18015428242E+01  0.51100000000E-03 0.  1.
        -12    1    4    4    0    0  0.19476884424E+02  0.28265114776E+01 -0.36821255957E+02  0.41750965070E+02  0.00000000000E+00 0.  1.
</event>
<event>
 8    1 -0.5542925E-011  0.9118800E+02  0.7816164E-02  0.1184000E+00
        -11   -1    0    0    0    0  0.00000000000E+00  0.00000000000E+00  0.45593999997E+02  0.45594000000E+02  0.51100000000E-03 0.  1.
         11   -1    0    0    0    0 -0.00000000000E+00 -0.00000000000E+00 -0.45593999997E+02  0.45594000000E+02  0.51100000000E-03 0. -1.
         23    2    1    2    0    0  0.00000000000E+00 -0.17763568394E-14  0.35527136788E-14  0.91188000000E+02  0.91188000000E+02 0.  0.
    9900012    2    3    3    0    0 -0.38054347643E+02  0.10301696502E+02 -0.18148412180E+02  0.47787272011E+02  0.20000004407E+02 0.  0.
        -12    1    3    3    0    0  0.38054347643E+02 -0.10301696502E+02  0.18148412180E+02  0.43400727989E+02  0.00000000000E+00 0.  1.
         11    1    4    4    0    0 -0.13833255584E+02  0.10573636561E+01 -0.32322484683E+01  0.14245153856E+02  0.51100000000E-03 0. -1.
        -11    1    4    4    0    0 -0.21945551425E+02  0.13076171928E+02 -0.12066294865E+02  0.28252238348E+02  0.51100000000E-03 0.  1.
        -12    1    4    4    0    0 -0.22755406333E+01 -0.38318390826E+01 -0.28498688468E+01  0.52898798070E+01  0.00000000000E+00 0.  1.
</event>
<event>
 8    1  0.5542925E-011  0.9118800E+02  0.7816164E-02  0.1184000E+00
        -11   -1    0    0    0    0  0.00000000000E+00  0.00000000000E+00  0.45593999997E+02  0.45594000000E+02  0.51100000000E-03 0. -1.
         11   -1    0    0    0    0 -0.00000000000E+00 -0.00000000000E+00 -0.45593999997E+02  0.45594000000E+02  0.51100000000E-03 0.  1.
         23    2    1    2    0    0  0.00000000000E+00  0.00000000000E+00 -0.66613381478E-15  0.91188000000E+02  0.91188000000E+02 0.  0.
    9900012    2    3    3    0    0  0.37326433751E+02 -0.22100609597E+02 -0.13858033704E+01  0.47787308161E+02  0.20000169230E+02 0.  0.
        -12    1    3    3    0    0 -0.37326433751E+02  0.22100609597E+02  0.13858033704E+01  0.43400691839E+02  0.00000000000E+00 0.  1.
         11    1    4    4    0    0  0.11133720862E+02  0.78196809289E+00 -0.18601433554E+00  0.11162697521E+02  0.51100000000E-03 0.  1.
        -11    1    4    4    0    0  0.16687621002E+02 -0.83966188447E+01  0.26724389329E+01  0.18871190552E+02  0.51100000000E-03 0. -1.
        -12    1    4    4    0    0  0.95050918862E+01 -0.14485958845E+02 -0.38722279678E+01  0.17753420089E+02  0.00000000000E+00 0.  1.
</event>
<event>
 8    1  0.5542925E-011  0.9118800E+02  0.7816164E-02  0.1184000E+00
        -11   -1    0    0    0    0  0.00000000000E+00  0.00000000000E+00  0.45593999997E+02  0.45594000000E+02  0.51100000000E-03 0. -1.
         11   -1    0    0    0    0 -0.00000000000E+00 -0.00000000000E+00 -0.45593999997E+02  0.45594000000E+02  0.51100000000E-03 0.  1.
         23    2    1    2    0    0  0.00000000000E+00  0.00000000000E+00  0.00000000000E+00  0.91188000000E+02  0.91188000000E+02 0.  0.
    9900012    2    3    3    0    0 -0.31842612665E+02  0.17106085278E+02 -0.24021925999E+02  0.47787273468E+02  0.20000011048E+02 0.  0.
         12    1    3    3    0    0  0.31842612665E+02 -0.17106085278E+02  0.24021925999E+02  0.43400726532E+02  0.00000000000E+00 0. -1.
         11    1    4    4    0    0 -0.21991447946E+01  0.10762053501E+01  0.49452206608E+00  0.24978006562E+01  0.51100000000E-03 0. -1.
        -11    1    4    4    0    0 -0.59098509100E+01 -0.12932748365E+01 -0.11824551470E+02  0.13282278242E+02  0.51100000000E-03 0.  1.
        -12    1    4    4    0    0 -0.23733616960E+02  0.17323154764E+02 -0.12691896595E+02  0.32007194569E+02  0.00000000000E+00 0.  1.
</event>
<event>
 8    1  0.5542925E-011  0.9118800E+02  0.7816164E-02  0.1184000E+00
        -11   -1    0    0    0    0  0.00000000000E+00  0.00000000000E+00  0.45593999997E+02  0.45594000000E+02  0.51100000000E-03 0.  1.
         11   -1    0    0    0    0 -0.00000000000E+00 -0.00000000000E+00 -0.45593999997E+02  0.45594000000E+02  0.51100000000E-03 0. -1.
         23    2    1    2    0    0  0.88817841970E-15  0.00000000000E+00  0.35527136788E-14  0.91188000000E+02  0.91188000000E+02 0.  0.
    9900012    2    3    3    0    0 -0.52398583441E+01 -0.30514484238E+02 -0.30414362457E+02  0.47787270657E+02  0.19999998235E+02 0.  0.
         12    1    3    3    0    0  0.52398583441E+01  0.30514484238E+02  0.30414362457E+02  0.43400729343E+02  0.00000000000E+00 0. -1.
         11    1    4    4    0    0  0.37023735351E+01 -0.10369135651E+02 -0.30134500221E+01  0.11415227779E+02  0.51100000000E-03 0. -1.
        -11    1    4    4    0    0  0.79924438608E+00  0.59370410200E+00 -0.93792164850E+00  0.13678353078E+01  0.51100000000E-03 0.  1.
        -12    1    4    4    0    0 -0.97414762653E+01 -0.20739052689E+02 -0.26462990787E+02  0.35004207570E+02  0.00000000000E+00 0.  1.
</event>
<event>
 8    1  0.5542925E-011  0.9118800E+02  0.7816164E-02  0.1184000E+00
        -11   -1    0    0    0    0  0.00000000000E+00  0.00000000000E+00  0.45593999997E+02  0.45594000000E+02  0.51100000000E-03 0. -1.
         11   -1    0    0    0    0 -0.00000000000E+00 -0.00000000000E+00 -0.45593999997E+02  0.45594000000E+02  0.51100000000E-03 0.  1.
         23    2    1    2    0    0 -0.35527136788E-14 -0.11102230246E-14 -0.71054273576E-14  0.91188000000E+02  0.91188000000E+02 0.  0.
    9900012    2    3    3    0    0 -0.20048489306E+02 -0.10782806112E+01  0.38477504723E+02  0.47787274404E+02  0.20000015319E+02 0.  0.
        -12    1    3    3    0    0  0.20048489306E+02  0.10782806112E+01 -0.38477504723E+02  0.43400725596E+02  0.00000000000E+00 0.  1.
         11    1    4    4    0    0 -0.86372554362E+01  0.14725820026E+01  0.15670519091E+02  0.17953714047E+02  0.51100000000E-03 0. -1.
        -11    1    4    4    0    0 -0.75325630497E+01 -0.86967409880E+01  0.17017918266E+02  0.20542209041E+02  0.51100000000E-03 0.  1.
         12    1    4    4    0    0 -0.38786708205E+01  0.61458783743E+01  0.57890673650E+01  0.92913513162E+01  0.00000000000E+00 0. -1.
</event>
<event>
 8    1  0.5589769E-011  0.9118800E+02  0.7816164E-02  0.1184000E+00
        -11   -1    0    0    0    0  0.00000000000E+00  0.00000000000E+00  0.45593999997E+02  0.45594000000E+02  0.51100000000E-03 0. -1.
         11   -1    0    0    0    0 -0.00000000000E+00 -0.00000000000E+00 -0.45593999997E+02  0.45594000000E+02  0.51100000000E-03 0.  1.
         23    2    1    2    0    0  0.00000000000E+00 -0.35527136788E-14 -0.71054273576E-14  0.91188000000E+02  0.91188000000E+02 0.  0.
    9900012    2    3    3    0    0 -0.45398215601E+01  0.20100000399E+02  0.38196905220E+02  0.47787267700E+02  0.19999984750E+02 0.  0.
        -12    1    3    3    0    0  0.45398215601E+01 -0.20100000399E+02 -0.38196905220E+02  0.43400732300E+02  0.00000000000E+00 0.  1.
         11    1    4    4    0    0  0.51719259454E+01  0.67637131958E+01  0.14119462735E+02  0.16488052110E+02  0.51100000000E-03 0. -1.
        -11    1    4    4    0    0 -0.13861730420E+01 -0.14804915893E+01  0.66670264599E+01  0.69686851792E+01  0.51100000000E-03 0.  1.
         12    1    4    4    0    0 -0.83255744635E+01  0.14816778792E+02  0.17410416025E+02  0.24330530411E+02  0.00000000000E+00 0. -1.
</event>
<event>
 8    1  0.5542925E-011  0.9118800E+02  0.7816164E-02  0.1184000E+00
        -11   -1    0    0    0    0  0.00000000000E+00  0.00000000000E+00  0.45593999997E+02  0.45594000000E+02  0.51100000000E-03 0. -1.
         11   -1    0    0    0    0 -0.00000000000E+00 -0.00000000000E+00 -0.45593999997E+02  0.45594000000E+02  0.51100000000E-03 0.  1.
         23    2    1    2    0    0 -0.35527136788E-14 -0.17763568394E-14  0.71054273576E-14  0.91188000000E+02  0.91188000000E+02 0.  0.
    9900012    2    3    3    0    0  0.29523101121E+02  0.68182085802E+01 -0.31072848583E+02  0.47787269740E+02  0.19999994052E+02 0.  0.
         12    1    3    3    0    0 -0.29523101121E+02 -0.68182085802E+01  0.31072848583E+02  0.43400730260E+02  0.00000000000E+00 0. -1.
         11    1    4    4    0    0  0.32158333086E+01  0.32687861691E+00  0.20602414690E+00  0.32389627521E+01  0.51100000000E-03 0. -1.
        -11    1    4    4    0    0  0.28113116363E+02  0.37525437612E+01 -0.28927578423E+02  0.40512142501E+02  0.51100000000E-03 0.  1.
         12    1    4    4    0    0 -0.18058485506E+01  0.27387862021E+01 -0.23512943073E+01  0.40361644872E+01  0.00000000000E+00 0. -1.
</event>
<event>
 8    1  0.5542925E-011  0.9118800E+02  0.7816164E-02  0.1184000E+00
        -11   -1    0    0    0    0  0.00000000000E+00  0.00000000000E+00  0.45593999997E+02  0.45594000000E+02  0.51100000000E-03 0. -1.
         11   -1    0    0    0    0 -0.00000000000E+00 -0.00000000000E+00 -0.45593999997E+02  0.45594000000E+02  0.51100000000E-03 0.  1.
         23    2    1    2    0    0 -0.22204460493E-14  0.00000000000E+00  0.00000000000E+00  0.91188000000E+02  0.91188000000E+02 0.  0.
    9900012    2    3    3    0    0  0.39110688530E+01  0.39809457794E+02 -0.16838450726E+02  0.47787276363E+02  0.20000024247E+02 0.  0.
         12    1    3    3    0    0 -0.39110688530E+01 -0.39809457794E+02  0.16838450726E+02  0.43400723637E+02  0.00000000000E+00 0. -1.
         11    1    4    4    0    0  0.64936647530E+01  0.90766974898E+01 -0.33725441695E+01  0.11658823855E+02  0.51100000000E-03 0. -1.
        -11    1    4    4    0    0  0.14115771026E+01  0.16178941855E+02 -0.13370524112E+02  0.21036197963E+02  0.51100000000E-03 0.  1.
         12    1    4    4    0    0 -0.39941730026E+01  0.14553818449E+02 -0.95382444535E-01  0.15092254544E+02  0.00000000000E+00 0. -1.
</event>
<event>
 8    1  0.5542925E-011  0.9118800E+02  0.7816164E-02  0.1184000E+00
        -11   -1    0    0    0    0  0.00000000000E+00  0.00000000000E+00  0.45593999997E+02  0.45594000000E+02  0.51100000000E-03 0. -1.
         11   -1    0    0    0    0 -0.00000000000E+00 -0.00000000000E+00 -0.45593999997E+02  0.45594000000E+02  0.51100000000E-03 0.  1.
         23    2    1    2    0    0  0.00000000000E+00  0.00000000000E+00  0.00000000000E+00  0.91188000000E+02  0.91188000000E+02 0.  0.
    9900012    2    3    3    0    0 -0.35236730629E+02 -0.31419346463E+01  0.25142085972E+02  0.47787269294E+02  0.19999992020E+02 0.  0.
        -12    1    3    3    0    0  0.35236730629E+02  0.31419346463E+01 -0.25142085972E+02  0.43400730706E+02  0.00000000000E+00 0.  1.
         11    1    4    4    0    0 -0.12950567204E+02 -0.25952679123E+01  0.72457019010E+01  0.15064952796E+02  0.51100000000E-03 0. -1.
        -11    1    4    4    0    0 -0.12306028683E+02  0.56530170793E+01  0.32153632392E+01  0.13918818379E+02  0.51100000000E-03 0.  1.
        -12    1    4    4    0    0 -0.99801347425E+01 -0.61996838134E+01  0.14681020832E+02  0.18803498120E+02  0.00000000000E+00 0.  1.
</event>
<event>
 8    1  0.5542925E-011  0.9118800E+02  0.7816164E-02  0.1184000E+00
        -11   -1    0    0    0    0  0.00000000000E+00  0.00000000000E+00  0.45593999997E+02  0.45594000000E+02  0.51100000000E-03 0.  1.
         11   -1    0    0    0    0 -0.00000000000E+00 -0.00000000000E+00 -0.45593999997E+02  0.45594000000E+02  0.51100000000E-03 0. -1.
         23    2    1    2    0    0  0.00000000000E+00  0.00000000000E+00  0.00000000000E+00  0.91188000000E+02  0.91188000000E+02 0.  0.
    9900012    2    3    3    0    0 -0.23385939917E+02 -0.35476081565E+02  0.88413074516E+01  0.47787271130E+02  0.20000000391E+02 0.  0.
        -12    1    3    3    0    0  0.23385939917E+02  0.35476081565E+02 -0.88413074516E+01  0.43400728870E+02  0.00000000000E+00 0.  1.
         11    1    4    4    0    0 -0.11477210147E+02 -0.12487290907E+02 -0.11311499667E+00  0.16960883887E+02  0.51100000000E-03 0. -1.
        -11    1    4    4    0    0 -0.74752688615E+01 -0.20521893470E+02  0.16103982261E+01  0.21900254311E+02  0.51100000000E-03 0.  1.
        -12    1    4    4    0    0 -0.44334609087E+01 -0.24668971872E+01  0.73440242222E+01  0.89261329330E+01  0.00000000000E+00 0.  1.
</event>
<event>
 8    1  0.5542925E-011  0.9118800E+02  0.7816164E-02  0.1184000E+00
        -11   -1    0    0    0    0  0.00000000000E+00  0.00000000000E+00  0.45593999997E+02  0.45594000000E+02  0.51100000000E-03 0. -1.
         11   -1    0    0    0    0 -0.00000000000E+00 -0.00000000000E+00 -0.45593999997E+02  0.45594000000E+02  0.51100000000E-03 0.  1.
         23    2    1    2    0    0  0.00000000000E+00  0.00000000000E+00  0.00000000000E+00  0.91188000000E+02  0.91188000000E+02 0.  0.
    9900012    2    3    3    0    0  0.47211436247E+01  0.29867457771E+02 -0.31133081788E+02  0.47787274056E+02  0.20000013733E+02 0.  0.
         12    1    3    3    0    0 -0.47211436247E+01 -0.29867457771E+02  0.31133081788E+02  0.43400725944E+02  0.00000000000E+00 0. -1.
         11    1    4    4    0    0  0.23953476463E+01  0.18372028131E+01 -0.12335139383E+01  0.32610675277E+01  0.51100000000E-03 0. -1.
        -11    1    4    4    0    0 -0.72581317715E+01  0.85370994713E+01 -0.88533546647E+01  0.14280911500E+02  0.51100000000E-03 0.  1.
        -12    1    4    4    0    0  0.95839277499E+01  0.19493155486E+02 -0.21046213185E+02  0.30245295028E+02  0.00000000000E+00 0.  1.
</event>
<event>
 8    1  0.5542925E-011  0.9118800E+02  0.7816164E-02  0.1184000E+00
        -11   -1    0    0    0    0  0.00000000000E+00  0.00000000000E+00  0.45593999997E+02  0.45594000000E+02  0.51100000000E-03 0. -1.
         11   -1    0    0    0    0 -0.00000000000E+00 -0.00000000000E+00 -0.45593999997E+02  0.45594000000E+02  0.51100000000E-03 0.  1.
         23    2    1    2    0    0  0.17763568394E-14  0.35527136788E-14  0.00000000000E+00  0.91188000000E+02  0.91188000000E+02 0.  0.
    9900012    2    3    3    0    0 -0.87286791208E+01  0.26702500631E+02 -0.33081873244E+02  0.47787265946E+02  0.19999976753E+02 0.  0.
         12    1    3    3    0    0  0.87286791208E+01 -0.26702500631E+02  0.33081873244E+02  0.43400734054E+02  0.00000000000E+00 0. -1.
         11    1    4    4    0    0 -0.12257841619E+02  0.95351580942E+01 -0.15099002103E+02  0.21659958121E+02  0.51100000000E-03 0. -1.
        -11    1    4    4    0    0  0.16395537479E+01  0.15047893192E+01 -0.57452317475E+01  0.61611862073E+01  0.51100000000E-03 0.  1.
         12    1    4    4    0    0  0.18896087500E+01  0.15662553218E+02 -0.12237639393E+02  0.19966121617E+02  0.00000000000E+00 0. -1.
</event>
<event>
 8    1  0.5542925E-011  0.9118800E+02  0.7816164E-02  0.1184000E+00
        -11   -1    0    0    0    0  0.00000000000E+00  0.00000000000E+00  0.45593999997E+02  0.45594000000E+02  0.51100000000E-03 0. -1.
         11   -1    0    0    0    0 -0.00000000000E+00 -0.00000000000E+00 -0.45593999997E+02  0.45594000000E+02  0.51100000000E-03 0.  1.
         23    2    1    2    0    0  0.00000000000E+00  0.00000000000E+00  0.00000000000E+00  0.91188000000E+02  0.91188000000E+02 0.  0.
    9900012    2    3    3    0    0  0.15141759406E+02  0.40431067140E+02 -0.44361151521E+01  0.47787272061E+02  0.20000004635E+02 0.  0.
         12    1    3    3    0    0 -0.15141759406E+02 -0.40431067140E+02  0.44361151521E+01  0.43400727939E+02  0.00000000000E+00 0. -1.
         11    1    4    4    0    0  0.23679039278E+00 -0.15549875251E+01 -0.87633574512E+00  0.18005611605E+01  0.51100000000E-03 0. -1.
        -11    1    4    4    0    0  0.52487953343E+01  0.42833141279E+01 -0.18805255214E+01  0.70308611761E+01  0.51100000000E-03 0.  1.
        -12    1    4    4    0    0  0.96561736787E+01  0.37702740537E+02 -0.16792538856E+01  0.38955849724E+02  0.00000000000E+00 0.  1.
</event>
<event>
 8    1  0.5542925E-011  0.9118800E+02  0.7816164E-02  0.1184000E+00
        -11   -1    0    0    0    0  0.00000000000E+00  0.00000000000E+00  0.45593999997E+02  0.45594000000E+02  0.51100000000E-03 0. -1.
         11   -1    0    0    0    0 -0.00000000000E+00 -0.00000000000E+00 -0.45593999997E+02  0.45594000000E+02  0.51100000000E-03 0.  1.
         23    2    1    2    0    0  0.00000000000E+00  0.00000000000E+00  0.00000000000E+00  0.91188000000E+02  0.91188000000E+02 0.  0.
    9900012    2    3    3    0    0 -0.90637392714E+01  0.13387308610E+02 -0.40277184411E+02  0.47787274367E+02  0.20000015150E+02 0.  0.
         12    1    3    3    0    0  0.90637392714E+01 -0.13387308610E+02  0.40277184411E+02  0.43400725633E+02  0.00000000000E+00 0. -1.
         11    1    4    4    0    0 -0.26916999859E+01  0.25891973924E+01 -0.15263902970E+02  0.15714195051E+02  0.51100000000E-03 0. -1.
        -11    1    4    4    0    0  0.98006142393E+00  0.20427035508E+00 -0.16701227048E+02  0.16731205334E+02  0.51100000000E-03 0.  1.
         12    1    4    4    0    0 -0.73521007093E+01  0.10593840862E+02 -0.83120543930E+01  0.15341873982E+02  0.00000000000E+00 0. -1.
</event>
<event>
 8    1  0.5542925E-011  0.9118800E+02  0.7816164E-02  0.1184000E+00
        -11   -1    0    0    0    0  0.00000000000E+00  0.00000000000E+00  0.45593999997E+02  0.45594000000E+02  0.51100000000E-03 0. -1.
         11   -1    0    0    0    0 -0.00000000000E+00 -0.00000000000E+00 -0.45593999997E+02  0.45594000000E+02  0.51100000000E-03 0.  1.
         23    2    1    2    0    0 -0.88817841970E-15 -0.71054273576E-14  0.00000000000E+00  0.91188000000E+02  0.91188000000E+02 0.  0.
    9900012    2    3    3    0    0  0.56611572454E+01 -0.38352631356E+02  0.19510262935E+02  0.47787269672E+02  0.19999993740E+02 0.  0.
        -12    1    3    3    0    0 -0.56611572454E+01  0.38352631356E+02 -0.19510262935E+02  0.43400730328E+02  0.00000000000E+00 0.  1.
         11    1    4    4    0    0 -0.17970916765E+01 -0.44395017272E+01  0.26813474694E+01  0.54889287290E+01  0.51100000000E-03 0. -1.
        -11    1    4    4    0    0 -0.22923120610E+01  0.10403032262E+01  0.10128259686E+01  0.27134373203E+01  0.51100000000E-03 0.  1.
         12    1    4    4    0    0  0.97505609829E+01 -0.34953432855E+02  0.15816089497E+02  0.39584903622E+02  0.00000000000E+00 0. -1.
</event>
<event>
 8    1  0.5542925E-011  0.9118800E+02  0.7816164E-02  0.1184000E+00
        -11   -1    0    0    0    0  0.00000000000E+00  0.00000000000E+00  0.45593999997E+02  0.45594000000E+02  0.51100000000E-03 0. -1.
         11   -1    0    0    0    0 -0.00000000000E+00 -0.00000000000E+00 -0.45593999997E+02  0.45594000000E+02  0.51100000000E-03 0.  1.
         23    2    1    2    0    0  0.00000000000E+00  0.00000000000E+00  0.00000000000E+00  0.91188000000E+02  0.91188000000E+02 0.  0.
    9900012    2    3    3    0    0 -0.19363358498E+02 -0.20227192969E+02  0.33159376081E+02  0.47787271782E+02  0.20000003363E+02 0.  0.
        -12    1    3    3    0    0  0.19363358498E+02  0.20227192969E+02 -0.33159376081E+02  0.43400728218E+02  0.00000000000E+00 0.  1.
         11    1    4    4    0    0 -0.10296534580E+02  0.75574192832E+00  0.13468933740E+02  0.16970620100E+02  0.51100000000E-03 0. -1.
        -11    1    4    4    0    0 -0.10006356927E+01 -0.15055174035E+01  0.44498552413E+01  0.48030267927E+01  0.51100000000E-03 0.  1.
        -12    1    4    4    0    0 -0.80661882254E+01 -0.19477417494E+02  0.15240587100E+02  0.26013624889E+02  0.00000000000E+00 0.  1.
</event>
<event>
 8    1  0.5542925E-011  0.9118800E+02  0.7816164E-02  0.1184000E+00
        -11   -1    0    0    0    0  0.00000000000E+00  0.00000000000E+00  0.45593999997E+02  0.45594000000E+02  0.51100000000E-03 0. -1.
         11   -1    0    0    0    0 -0.00000000000E+00 -0.00000000000E+00 -0.45593999997E+02  0.45594000000E+02  0.51100000000E-03 0.  1.
         23    2    1    2    0    0  0.00000000000E+00  0.00000000000E+00 -0.71054273576E-14  0.91188000000E+02  0.91188000000E+02 0.  0.
    9900012    2    3    3    0    0  0.88799663176E+01  0.81994729008E+01 -0.41683777827E+02  0.47787280057E+02  0.20000041090E+02 0.  0.
         12    1    3    3    0    0 -0.88799663176E+01 -0.81994729008E+01  0.41683777827E+02  0.43400719943E+02  0.00000000000E+00 0. -1.
         11    1    4    4    0    0 -0.21198203252E+01  0.20142735146E+01 -0.11150720483E-01  0.29242196570E+01  0.51100000000E-03 0. -1.
        -11    1    4    4    0    0  0.82598403779E+00  0.10494225810E+01  0.30164179639E+00  0.13691330902E+01  0.51100000000E-03 0.  1.
        -12    1    4    4    0    0  0.10173802605E+02  0.51357768053E+01 -0.41974268903E+02  0.43493927309E+02  0.00000000000E+00 0.  1.
</event>
<event>
 8    1  0.5542925E-011  0.9118800E+02  0.7816164E-02  0.1184000E+00
        -11   -1    0    0    0    0  0.00000000000E+00  0.00000000000E+00  0.45593999997E+02  0.45594000000E+02  0.51100000000E-03 0.  1.
         11   -1    0    0    0    0 -0.00000000000E+00 -0.00000000000E+00 -0.45593999997E+02  0.45594000000E+02  0.51100000000E-03 0. -1.
         23    2    1    2    0    0 -0.71054273576E-14  0.00000000000E+00 -0.17763568394E-14  0.91188000000E+02  0.91188000000E+02 0.  0.
    9900012    2    3    3    0    0 -0.40598644522E+02  0.72944060025E+01 -0.13496817571E+02  0.47787281337E+02  0.20000046927E+02 0.  0.
         12    1    3    3    0    0  0.40598644522E+02 -0.72944060025E+01  0.13496817571E+02  0.43400718663E+02  0.00000000000E+00 0. -1.
         11    1    4    4    0    0  0.18108623200E+01 -0.15836987713E+01 -0.39843323795E+00  0.24384571856E+01  0.51100000000E-03 0. -1.
        -11    1    4    4    0    0 -0.17290664423E+02  0.48908246447E+01 -0.59823985373E+01  0.18938752187E+02  0.51100000000E-03 0.  1.
        -12    1    4    4    0    0 -0.25118842419E+02  0.39872801290E+01 -0.71159857960E+01  0.26410071964E+02  0.00000000000E+00 0.  1.
</event>
<event>
 8    1  0.5542925E-011  0.9118800E+02  0.7816164E-02  0.1184000E+00
        -11   -1    0    0    0    0  0.00000000000E+00  0.00000000000E+00  0.45593999997E+02  0.45594000000E+02  0.51100000000E-03 0. -1.
         11   -1    0    0    0    0 -0.00000000000E+00 -0.00000000000E+00 -0.45593999997E+02  0.45594000000E+02  0.51100000000E-03 0.  1.
         23    2    1    2    0    0  0.00000000000E+00  0.00000000000E+00  0.00000000000E+00  0.91188000000E+02  0.91188000000E+02 0.  0.
    9900012    2    3    3    0    0  0.18688853589E+02 -0.15045937160E+02  0.36165864050E+02  0.47787271941E+02  0.20000004089E+02 0.  0.
        -12    1    3    3    0    0 -0.18688853589E+02  0.15045937160E+02 -0.36165864050E+02  0.43400728059E+02  0.00000000000E+00 0.  1.
         11    1    4    4    0    0  0.60127981532E+01 -0.28061066832E+01  0.80322326923E+01  0.10418480630E+02  0.51100000000E-03 0. -1.
        -11    1    4    4    0    0 -0.39410935320E+01 -0.40081983128E+01  0.97637529754E+01  0.11266265769E+02  0.51100000000E-03 0.  1.
        -12    1    4    4    0    0  0.16617148968E+02 -0.82316321643E+01  0.18369878383E+02  0.26102525543E+02  0.00000000000E+00 0.  1.
</event>
<event>
 8    1  0.5542925E-011  0.9118800E+02  0.7816164E-02  0.1184000E+00
        -11   -1    0    0    0    0  0.00000000000E+00  0.00000000000E+00  0.45593999997E+02  0.45594000000E+02  0.51100000000E-03 0. -1.
         11   -1    0    0    0    0 -0.00000000000E+00 -0.00000000000E+00 -0.45593999997E+02  0.45594000000E+02  0.51100000000E-03 0.  1.
         23    2    1    2    0    0  0.00000000000E+00  0.00000000000E+00  0.00000000000E+00  0.91188000000E+02  0.91188000000E+02 0.  0.
    9900012    2    3    3    0    0 -0.33457559330E+02  0.24772646185E+02 -0.12269102886E+02  0.47787272345E+02  0.20000005931E+02 0.  0.
         12    1    3    3    0    0  0.33457559330E+02 -0.24772646185E+02  0.12269102886E+02  0.43400727655E+02  0.00000000000E+00 0. -1.
         11    1    4    4    0    0  0.41859725779E+00  0.39200761246E+01 -0.11096760646E+01  0.40955587795E+01  0.51100000000E-03 0. -1.
        -11    1    4    4    0    0 -0.10036920932E+02  0.31303230181E+01  0.27853139226E+01  0.10876427626E+02  0.51100000000E-03 0.  1.
         12    1    4    4    0    0 -0.23839235656E+02  0.17722247042E+02 -0.13944740744E+02  0.32815285940E+02  0.00000000000E+00 0. -1.
</event>
<event>
 8    1  0.5542925E-011  0.9118800E+02  0.7816164E-02  0.1184000E+00
        -11   -1    0    0    0    0  0.00000000000E+00  0.00000000000E+00  0.45593999997E+02  0.45594000000E+02  0.51100000000E-03 0.  1.
         11   -1    0    0    0    0 -0.00000000000E+00 -0.00000000000E+00 -0.45593999997E+02  0.45594000000E+02  0.51100000000E-03 0. -1.
         23    2    1    2    0    0 -0.88817841970E-15  0.00000000000E+00 -0.71054273576E-14  0.91188000000E+02  0.91188000000E+02 0.  0.
    9900012    2    3    3    0    0  0.67193258422E+01  0.35608490609E+02 -0.23885344532E+02  0.47787266980E+02  0.19999981470E+02 0.  0.
         12    1    3    3    0    0 -0.67193258422E+01 -0.35608490609E+02  0.23885344532E+02  0.43400733020E+02  0.00000000000E+00 0. -1.
         11    1    4    4    0    0  0.48237509493E+01  0.78231616273E+01 -0.31769639532E+01  0.97243781955E+01  0.51100000000E-03 0. -1.
        -11    1    4    4    0    0  0.75946282452E+01  0.23795208867E+02 -0.16361990101E+02  0.29859756588E+02  0.51100000000E-03 0.  1.
         12    1    4    4    0    0 -0.56990533524E+01  0.39901201155E+01 -0.43463904779E+01  0.82031321967E+01  0.00000000000E+00 0. -1.
</event>
<event>
 8    1  0.5542925E-011  0.9118800E+02  0.7816164E-02  0.1184000E+00
        -11   -1    0    0    0    0  0.00000000000E+00  0.00000000000E+00  0.45593999997E+02  0.45594000000E+02  0.51100000000E-03 0.  1.
         11   -1    0    0    0    0 -0.00000000000E+00 -0.00000000000E+00 -0.45593999997E+02  0.45594000000E+02  0.51100000000E-03 0. -1.
         23    2    1    2    0    0  0.00000000000E+00 -0.71054273576E-14  0.00000000000E+00  0.91188000000E+02  0.91188000000E+02 0.  0.
    9900012    2    3    3    0    0 -0.22320784563E+02 -0.34714741087E+02 -0.13427318472E+02  0.47787267822E+02  0.19999985306E+02 0.  0.
         12    1    3    3    0    0  0.22320784563E+02  0.34714741087E+02  0.13427318472E+02  0.43400732178E+02  0.00000000000E+00 0. -1.
         11    1    4    4    0    0 -0.56625637812E+01 -0.15254607895E+02 -0.14489409628E+02  0.21787856302E+02  0.51100000000E-03 0. -1.
        -11    1    4    4    0    0 -0.73637040964E+01 -0.82508946865E+01  0.25894325114E+01  0.11358105570E+02  0.51100000000E-03 0.  1.
        -12    1    4    4    0    0 -0.92945166859E+01 -0.11209238506E+02 -0.15273413560E+01  0.14641305950E+02  0.00000000000E+00 0.  1.
</event>
<event>
 8    1  0.5542925E-011  0.9118800E+02  0.7816164E-02  0.1184000E+00
        -11   -1    0    0    0    0  0.00000000000E+00  0.00000000000E+00  0.45593999997E+02  0.45594000000E+02  0.51100000000E-03 0. -1.
         11   -1    0    0    0    0 -0.00000000000E+00 -0.00000000000E+00 -0.45593999997E+02  0.45594000000E+02  0.51100000000E-03 0.  1.
         23    2    1    2    0    0 -0.35527136788E-14  0.00000000000E+00  0.00000000000E+00  0.91188000000E+02  0.91188000000E+02 0.  0.
    9900012    2    3    3    0    0 -0.15282588686E+02 -0.93742893738E+01  0.39524533974E+02  0.47787267241E+02  0.19999982657E+02 0.  0.
        -12    1    3    3    0    0  0.15282588686E+02  0.93742893738E+01 -0.39524533974E+02  0.43400732759E+02  0.00000000000E+00 0.  1.
         11    1    4    4    0    0 -0.59781280741E+01 -0.17094617388E+01  0.29020038742E+01  0.68616252778E+01  0.51100000000E-03 0. -1.
        -11    1    4    4    0    0 -0.10909726853E+02 -0.49637015131E+00  0.21761004151E+02  0.24347686240E+02  0.51100000000E-03 0.  1.
        -12    1    4    4    0    0  0.16052662420E+01 -0.71684574837E+01  0.14861525949E+02  0.16577955722E+02  0.00000000000E+00 0.  1.
</event>
<event>
 8    1  0.5542925E-011  0.9118800E+02  0.7816164E-02  0.1184000E+00
        -11   -1    0    0    0    0  0.00000000000E+00  0.00000000000E+00  0.45593999997E+02  0.45594000000E+02  0.51100000000E-03 0. -1.
         11   -1    0    0    0    0 -0.00000000000E+00 -0.00000000000E+00 -0.45593999997E+02  0.45594000000E+02  0.51100000000E-03 0.  1.
         23    2    1    2    0    0  0.00000000000E+00 -0.71054273576E-14  0.88817841970E-15  0.91188000000E+02  0.91188000000E+02 0.  0.
    9900012    2    3    3    0    0 -0.25468272016E+02  0.35123904181E+02  0.11409720770E+01  0.47787270263E+02  0.19999996438E+02 0.  0.
         12    1    3    3    0    0  0.25468272016E+02 -0.35123904181E+02 -0.11409720770E+01  0.43400729737E+02  0.00000000000E+00 0. -1.
         11    1    4    4    0    0 -0.93310683195E+00  0.85244037277E+01 -0.13808549432E+01  0.86857876964E+01  0.51100000000E-03 0. -1.
        -11    1    4    4    0    0 -0.18662423375E+02  0.23410703638E+02 -0.34527493045E+01  0.30137494406E+02  0.51100000000E-03 0.  1.
        -12    1    4    4    0    0 -0.58727418094E+01  0.31887968152E+01  0.59745763247E+01  0.89639881609E+01  0.00000000000E+00 0.  1.
</event>
<event>
 8    1  0.5542925E-011  0.9118800E+02  0.7816164E-02  0.1184000E+00
        -11   -1    0    0    0    0  0.00000000000E+00  0.00000000000E+00  0.45593999997E+02  0.45594000000E+02  0.51100000000E-03 0. -1.
         11   -1    0    0    0    0 -0.00000000000E+00 -0.00000000000E+00 -0.45593999997E+02  0.45594000000E+02  0.51100000000E-03 0.  1.
         23    2    1    2    0    0  0.00000000000E+00  0.11102230246E-15  0.00000000000E+00  0.91188000000E+02  0.91188000000E+02 0.  0.
    9900012    2    3    3    0    0  0.26690412908E+02 -0.91552431793E+00  0.34211204851E+02  0.47787275774E+02  0.20000021563E+02 0.  0.
        -12    1    3    3    0    0 -0.26690412908E+02  0.91552431793E+00 -0.34211204851E+02  0.43400724226E+02  0.00000000000E+00 0.  1.
         11    1    4    4    0    0  0.65392038769E+01 -0.34421686378E+01  0.88810371948E+01  0.11553464164E+02  0.51100000000E-03 0. -1.
        -11    1    4    4    0    0  0.17084729708E+02 -0.28119319252E+01  0.24530261363E+02  0.30025467077E+02  0.51100000000E-03 0.  1.
        -12    1    4    4    0    0  0.30664793230E+01  0.53385762451E+01  0.79990629304E+00  0.62083445330E+01  0.00000000000E+00 0.  1.
</event>
<event>
 8    1  0.5542925E-011  0.9118800E+02  0.7816164E-02  0.1184000E+00
        -11   -1    0    0    0    0  0.00000000000E+00  0.00000000000E+00  0.45593999997E+02  0.45594000000E+02  0.51100000000E-03 0. -1.
         11   -1    0    0    0    0 -0.00000000000E+00 -0.00000000000E+00 -0.45593999997E+02  0.45594000000E+02  0.51100000000E-03 0.  1.
         23    2    1    2    0    0  0.35527136788E-14  0.00000000000E+00 -0.35527136788E-14  0.91188000000E+02  0.91188000000E+02 0.  0.
    9900012    2    3    3    0    0 -0.17619073883E+02  0.24501486137E+02 -0.31190854588E+02  0.47787262710E+02  0.19999961998E+02 0.  0.
         12    1    3    3    0    0  0.17619073883E+02 -0.24501486137E+02  0.31190854588E+02  0.43400737290E+02  0.00000000000E+00 0. -1.
         11    1    4    4    0    0  0.22248714467E+00  0.30627551200E+01 -0.55421717131E+01  0.63360584762E+01  0.51100000000E-03 0. -1.
        -11    1    4    4    0    0 -0.14563956984E+01  0.14801828327E+02 -0.12265776298E+02  0.19278601575E+02  0.51100000000E-03 0.  1.
         12    1    4    4    0    0 -0.16385165329E+02  0.66369026909E+01 -0.13382906576E+02  0.22172602658E+02  0.00000000000E+00 0. -1.
</event>
<event>
 8    1  0.5542925E-011  0.9118800E+02  0.7816164E-02  0.1184000E+00
        -11   -1    0    0    0    0  0.00000000000E+00  0.00000000000E+00  0.45593999997E+02  0.45594000000E+02  0.51100000000E-03 0.  1.
         11   -1    0    0    0    0 -0.00000000000E+00 -0.00000000000E+00 -0.45593999997E+02  0.45594000000E+02  0.51100000000E-03 0. -1.
         23    2    1    2    0    0 -0.35527136788E-14  0.00000000000E+00  0.00000000000E+00  0.91188000000E+02  0.91188000000E+02 0.  0.
    9900012    2    3    3    0    0 -0.30685137871E+02 -0.25400975123E+02  0.17229015795E+02  0.47787237235E+02  0.19999845849E+02 0.  0.
        -12    1    3    3    0    0  0.30685137871E+02  0.25400975123E+02 -0.17229015795E+02  0.43400762765E+02  0.00000000000E+00 0.  1.
         11    1    4    4    0    0 -0.71789839263E+00  0.11967469728E+01 -0.10124426687E+01  0.17241292984E+01  0.51100000000E-03 0. -1.
        -11    1    4    4    0    0 -0.40141816769E+01 -0.11580261653E+02  0.42248722992E+01  0.12964014066E+02  0.51100000000E-03 0.  1.
         12    1    4    4    0    0 -0.25953057801E+02 -0.15017460442E+02  0.14016586165E+02  0.33099093871E+02  0.00000000000E+00 0. -1.
</event>
<event>
 8    1  0.5542925E-011  0.9118800E+02  0.7816164E-02  0.1184000E+00
        -11   -1    0    0    0    0  0.00000000000E+00  0.00000000000E+00  0.45593999997E+02  0.45594000000E+02  0.51100000000E-03 0. -1.
         11   -1    0    0    0    0 -0.00000000000E+00 -0.00000000000E+00 -0.45593999997E+02  0.45594000000E+02  0.51100000000E-03 0.  1.
         23    2    1    2    0    0  0.00000000000E+00  0.00000000000E+00  0.35527136788E-14  0.91188000000E+02  0.91188000000E+02 0.  0.
    9900012    2    3    3    0    0  0.11094349452E+02  0.35376437098E+02  0.22562053779E+02  0.47787272331E+02  0.20000005865E+02 0.  0.
        -12    1    3    3    0    0 -0.11094349452E+02 -0.35376437098E+02 -0.22562053779E+02  0.43400727669E+02  0.00000000000E+00 0.  1.
         11    1    4    4    0    0  0.58598830865E+01  0.13575943154E+02 -0.11500130162E+01  0.14831284250E+02  0.51100000000E-03 0. -1.
        -11    1    4    4    0    0  0.74805508404E+00  0.47870100000E+01  0.80725376540E+01  0.94149304610E+01  0.51100000000E-03 0.  1.
         12    1    4    4    0    0  0.44864112816E+01  0.17013483944E+02  0.15639529141E+02  0.23541057620E+02  0.00000000000E+00 0. -1.
</event>
<event>
 8    1  0.5542925E-011  0.9118800E+02  0.7816164E-02  0.1184000E+00
        -11   -1    0    0    0    0  0.00000000000E+00  0.00000000000E+00  0.45593999997E+02  0.45594000000E+02  0.51100000000E-03 0. -1.
         11   -1    0    0    0    0 -0.00000000000E+00 -0.00000000000E+00 -0.45593999997E+02  0.45594000000E+02  0.51100000000E-03 0.  1.
         23    2    1    2    0    0  0.00000000000E+00  0.88817841970E-15 -0.35527136788E-14  0.91188000000E+02  0.91188000000E+02 0.  0.
    9900012    2    3    3    0    0  0.41700379124E+02 -0.57191723491E+01  0.10582661699E+02  0.47787270973E+02  0.19999999675E+02 0.  0.
        -12    1    3    3    0    0 -0.41700379124E+02  0.57191723491E+01 -0.10582661699E+02  0.43400729027E+02  0.00000000000E+00 0.  1.
         11    1    4    4    0    0  0.12901337765E+02 -0.36632263479E+01  0.12513985540E+02  0.18342943541E+02  0.51100000000E-03 0. -1.
        -11    1    4    4    0    0  0.15869819344E+01 -0.14567067721E+01  0.38033075869E-01  0.21545192169E+01  0.51100000000E-03 0.  1.
         12    1    4    4    0    0  0.27212059424E+02 -0.59923922910E+00 -0.19693569163E+01  0.27289808215E+02  0.00000000000E+00 0. -1.
</event>
<event>
 8    1  0.5542925E-011  0.9118800E+02  0.7816164E-02  0.1184000E+00
        -11   -1    0    0    0    0  0.00000000000E+00  0.00000000000E+00  0.45593999997E+02  0.45594000000E+02  0.51100000000E-03 0. -1.
         11   -1    0    0    0    0 -0.00000000000E+00 -0.00000000000E+00 -0.45593999997E+02  0.45594000000E+02  0.51100000000E-03 0.  1.
         23    2    1    2    0    0  0.00000000000E+00  0.00000000000E+00 -0.71054273576E-14  0.91188000000E+02  0.91188000000E+02 0.  0.
    9900012    2    3    3    0    0  0.12676474497E+02 -0.23371182410E+02 -0.34303326131E+02  0.47787270092E+02  0.19999995658E+02 0.  0.
         12    1    3    3    0    0 -0.12676474497E+02  0.23371182410E+02  0.34303326131E+02  0.43400729908E+02  0.00000000000E+00 0. -1.
         11    1    4    4    0    0  0.12532870367E+02 -0.11718323801E+02 -0.13246419461E+02  0.21676244627E+02  0.51100000000E-03 0. -1.
        -11    1    4    4    0    0  0.11252490783E+01  0.12924796789E+01 -0.47778259157E+00  0.17790350403E+01  0.51100000000E-03 0.  1.
        -12    1    4    4    0    0 -0.98164494849E+00 -0.12945338288E+02 -0.20579124078E+02  0.24331990424E+02  0.00000000000E+00 0.  1.
</event>
<event>
 8    1  0.5542925E-011  0.9118800E+02  0.7816164E-02  0.1184000E+00
        -11   -1    0    0    0    0  0.00000000000E+00  0.00000000000E+00  0.45593999997E+02  0.45594000000E+02  0.51100000000E-03 0. -1.
         11   -1    0    0    0    0 -0.00000000000E+00 -0.00000000000E+00 -0.45593999997E+02  0.45594000000E+02  0.51100000000E-03 0.  1.
         23    2    1    2    0    0  0.00000000000E+00  0.00000000000E+00  0.00000000000E+00  0.91188000000E+02  0.91188000000E+02 0.  0.
    9900012    2    3    3    0    0  0.16622706793E+02 -0.39317650051E+02 -0.78378474857E+01  0.47787264524E+02  0.19999970271E+02 0.  0.
         12    1    3    3    0    0 -0.16622706793E+02  0.39317650051E+02  0.78378474857E+01  0.43400735476E+02  0.00000000000E+00 0. -1.
         11    1    4    4    0    0  0.24446506556E+01 -0.35748524256E+01  0.19988594571E+01  0.47698350164E+01  0.51100000000E-03 0. -1.
        -11    1    4    4    0    0  0.29096470174E+01 -0.25605174258E+02 -0.10543683319E+02  0.27843495699E+02  0.51100000000E-03 0.  1.
        -12    1    4    4    0    0  0.11268409120E+02 -0.10137623368E+02  0.70697637665E+00  0.15173933809E+02  0.00000000000E+00 0.  1.
</event>
<event>
 8    1  0.5542925E-011  0.9118800E+02  0.7816164E-02  0.1184000E+00
        -11   -1    0    0    0    0  0.00000000000E+00  0.00000000000E+00  0.45593999997E+02  0.45594000000E+02  0.51100000000E-03 0. -1.
         11   -1    0    0    0    0 -0.00000000000E+00 -0.00000000000E+00 -0.45593999997E+02  0.45594000000E+02  0.51100000000E-03 0.  1.
         23    2    1    2    0    0  0.00000000000E+00  0.00000000000E+00  0.00000000000E+00  0.91188000000E+02  0.91188000000E+02 0.  0.
    9900012    2    3    3    0    0 -0.26227578292E+02 -0.14743036617E+02 -0.31279068517E+02  0.47787272828E+02  0.20000008133E+02 0.  0.
         12    1    3    3    0    0  0.26227578292E+02  0.14743036617E+02  0.31279068517E+02  0.43400727172E+02  0.00000000000E+00 0. -1.
         11    1    4    4    0    0 -0.50774440308E+01 -0.37556784758E+01 -0.77043447148E+00  0.63623209786E+01  0.51100000000E-03 0.  1.
        -11    1    4    4    0    0 -0.58567814061E+01  0.27433850605E+01 -0.31155443326E+01  0.71787649898E+01  0.51100000000E-03 0. -1.
        -12    1    4    4    0    0 -0.15293352855E+02 -0.13730743202E+02 -0.27393089713E+02  0.34246186860E+02  0.00000000000E+00 0.  1.
</event>
<event>
 8    1  0.5542925E-011  0.9118800E+02  0.7816164E-02  0.1184000E+00
        -11   -1    0    0    0    0  0.00000000000E+00  0.00000000000E+00  0.45593999997E+02  0.45594000000E+02  0.51100000000E-03 0. -1.
         11   -1    0    0    0    0 -0.00000000000E+00 -0.00000000000E+00 -0.45593999997E+02  0.45594000000E+02  0.51100000000E-03 0.  1.
         23    2    1    2    0    0  0.00000000000E+00  0.71054273576E-14  0.35527136788E-14  0.91188000000E+02  0.91188000000E+02 0.  0.
    9900012    2    3    3    0    0 -0.83869070432E+01  0.38569826121E+02  0.18045817235E+02  0.47787271706E+02  0.20000003018E+02 0.  0.
        -12    1    3    3    0    0  0.83869070432E+01 -0.38569826121E+02 -0.18045817235E+02  0.43400728294E+02  0.00000000000E+00 0.  1.
         11    1    4    4    0    0 -0.82920764049E+00  0.74808006471E+01  0.43269296319E+01  0.86817212541E+01  0.51100000000E-03 0. -1.
        -11    1    4    4    0    0  0.34854865111E-01  0.14833561048E+01 -0.36579180712E+01  0.39473947195E+01  0.51100000000E-03 0.  1.
        -12    1    4    4    0    0 -0.75925542679E+01  0.29605669369E+02  0.17376805674E+02  0.35158155733E+02  0.00000000000E+00 0.  1.
</event>
<event>
 8    1  0.5542925E-011  0.9118800E+02  0.7816164E-02  0.1184000E+00
        -11   -1    0    0    0    0  0.00000000000E+00  0.00000000000E+00  0.45593999997E+02  0.45594000000E+02  0.51100000000E-03 0. -1.
         11   -1    0    0    0    0 -0.00000000000E+00 -0.00000000000E+00 -0.45593999997E+02  0.45594000000E+02  0.51100000000E-03 0.  1.
         23    2    1    2    0    0  0.00000000000E+00  0.00000000000E+00  0.00000000000E+00  0.91188000000E+02  0.91188000000E+02 0.  0.
    9900012    2    3    3    0    0  0.35748388879E+02 -0.43518306127E+01  0.24222664322E+02  0.47787271850E+02  0.20000003672E+02 0.  0.
        -12    1    3    3    0    0 -0.35748388879E+02  0.43518306127E+01 -0.24222664322E+02  0.43400728150E+02  0.00000000000E+00 0.  1.
         11    1    4    4    0    0  0.27582505271E+02  0.33217952373E+01  0.16146294774E+02  0.32133032160E+02  0.51100000000E-03 0. -1.
        -11    1    4    4    0    0  0.70688488529E+01 -0.30798160362E+01  0.20141131954E+01  0.79693502337E+01  0.51100000000E-03 0.  1.
        -12    1    4    4    0    0  0.10970347548E+01 -0.45938098139E+01  0.60622563529E+01  0.76848894558E+01  0.00000000000E+00 0.  1.
</event>
<event>
 8    1  0.5542925E-011  0.9118800E+02  0.7816164E-02  0.1184000E+00
        -11   -1    0    0    0    0  0.00000000000E+00  0.00000000000E+00  0.45593999997E+02  0.45594000000E+02  0.51100000000E-03 0.  1.
         11   -1    0    0    0    0 -0.00000000000E+00 -0.00000000000E+00 -0.45593999997E+02  0.45594000000E+02  0.51100000000E-03 0. -1.
         23    2    1    2    0    0  0.00000000000E+00  0.00000000000E+00 -0.17763568394E-14  0.91188000000E+02  0.91188000000E+02 0.  0.
    9900012    2    3    3    0    0 -0.40403422996E+02 -0.25539178265E+01 -0.15641753959E+02  0.47787267829E+02  0.19999985340E+02 0.  0.
        -12    1    3    3    0    0  0.40403422996E+02  0.25539178265E+01  0.15641753959E+02  0.43400732171E+02  0.00000000000E+00 0.  1.
         11    1    4    4    0    0 -0.12166162750E+02 -0.61805861371E+00 -0.20238084099E+01  0.12348818294E+02  0.51100000000E-03 0. -1.
        -11    1    4    4    0    0 -0.12204054386E+02 -0.50004545811E+00  0.27082688804E+01  0.12510943590E+02  0.51100000000E-03 0.  1.
        -12    1    4    4    0    0 -0.16033205860E+02 -0.14358137547E+01 -0.16326214430E+02  0.22927505946E+02  0.00000000000E+00 0.  1.
</event>
<event>
 8    1  0.5542925E-011  0.9118800E+02  0.7816164E-02  0.1184000E+00
        -11   -1    0    0    0    0  0.00000000000E+00  0.00000000000E+00  0.45593999997E+02  0.45594000000E+02  0.51100000000E-03 0. -1.
         11   -1    0    0    0    0 -0.00000000000E+00 -0.00000000000E+00 -0.45593999997E+02  0.45594000000E+02  0.51100000000E-03 0.  1.
         23    2    1    2    0    0  0.00000000000E+00  0.53290705182E-14  0.71054273576E-14  0.91188000000E+02  0.91188000000E+02 0.  0.
    9900012    2    3    3    0    0  0.12404516793E+02 -0.13704198827E+02 -0.39267623041E+02  0.47787270494E+02  0.19999997491E+02 0.  0.
         12    1    3    3    0    0 -0.12404516793E+02  0.13704198827E+02  0.39267623041E+02  0.43400729506E+02  0.00000000000E+00 0. -1.
         11    1    4    4    0    0 -0.46424720789E+00 -0.44038089885E+01 -0.46014006447E+01  0.63860744775E+01  0.51100000000E-03 0.  1.
        -11    1    4    4    0    0  0.85850177130E+01 -0.13854669503E+02 -0.26586001635E+02  0.31184449320E+02  0.51100000000E-03 0. -1.
        -12    1    4    4    0    0  0.42837462881E+01  0.45542796645E+01 -0.80802207612E+01  0.10216746697E+02  0.00000000000E+00 0.  1.
</event>
<event>
 8    1  0.5542925E-011  0.9118800E+02  0.7816164E-02  0.1184000E+00
        -11   -1    0    0    0    0  0.00000000000E+00  0.00000000000E+00  0.45593999997E+02  0.45594000000E+02  0.51100000000E-03 0. -1.
         11   -1    0    0    0    0 -0.00000000000E+00 -0.00000000000E+00 -0.45593999997E+02  0.45594000000E+02  0.51100000000E-03 0.  1.
         23    2    1    2    0    0  0.00000000000E+00 -0.17763568394E-14  0.35527136788E-14  0.91188000000E+02  0.91188000000E+02 0.  0.
    9900012    2    3    3    0    0 -0.33705170026E+02  0.83500665347E+01 -0.26035771742E+02  0.47787268349E+02  0.19999987712E+02 0.  0.
         12    1    3    3    0    0  0.33705170026E+02 -0.83500665347E+01  0.26035771742E+02  0.43400731651E+02  0.00000000000E+00 0. -1.
         11    1    4    4    0    0 -0.14076244169E+02  0.35756713616E+01 -0.17282571277E+02  0.22574617290E+02  0.51100000000E-03 0. -1.
        -11    1    4    4    0    0 -0.83877534101E+01  0.46957675330E+01 -0.10037522515E+02  0.13898075352E+02  0.51100000000E-03 0.  1.
         12    1    4    4    0    0 -0.11241172447E+02  0.78627640069E-01  0.12843220506E+01  0.11314575707E+02  0.00000000000E+00 0. -1.
</event>
<event>
 8    1  0.5542925E-011  0.9118800E+02  0.7816164E-02  0.1184000E+00
        -11   -1    0    0    0    0  0.00000000000E+00  0.00000000000E+00  0.45593999997E+02  0.45594000000E+02  0.51100000000E-03 0.  1.
         11   -1    0    0    0    0 -0.00000000000E+00 -0.00000000000E+00 -0.45593999997E+02  0.45594000000E+02  0.51100000000E-03 0. -1.
         23    2    1    2    0    0  0.17763568394E-14  0.71054273576E-14  0.00000000000E+00  0.91188000000E+02  0.91188000000E+02 0.  0.
    9900012    2    3    3    0    0  0.12669372363E+02  0.40284536272E+02 -0.10013310106E+02  0.47787271458E+02  0.20000001884E+02 0.  0.
        -12    1    3    3    0    0 -0.12669372363E+02 -0.40284536272E+02  0.10013310106E+02  0.43400728542E+02  0.00000000000E+00 0.  1.
         11    1    4    4    0    0  0.49685883315E+01  0.19613202404E+01 -0.20653623357E+01  0.57270733305E+01  0.51100000000E-03 0.  1.
        -11    1    4    4    0    0  0.31489222094E+01  0.16250767380E+02 -0.10148084741E+02  0.19416147293E+02  0.51100000000E-03 0. -1.
         12    1    4    4    0    0  0.45518618221E+01  0.22072448651E+02  0.22001369701E+01  0.22644050834E+02  0.00000000000E+00 0. -1.
</event>
<event>
 8    1  0.5542925E-011  0.9118800E+02  0.7816164E-02  0.1184000E+00
        -11   -1    0    0    0    0  0.00000000000E+00  0.00000000000E+00  0.45593999997E+02  0.45594000000E+02  0.51100000000E-03 0. -1.
         11   -1    0    0    0    0 -0.00000000000E+00 -0.00000000000E+00 -0.45593999997E+02  0.45594000000E+02  0.51100000000E-03 0.  1.
         23    2    1    2    0    0 -0.88817841970E-15  0.00000000000E+00  0.71054273576E-14  0.91188000000E+02  0.91188000000E+02 0.  0.
    9900012    2    3    3    0    0 -0.73864507947E+01  0.27375607598E+02 -0.32857874863E+02  0.47787268586E+02  0.19999988792E+02 0.  0.
         12    1    3    3    0    0  0.73864507947E+01 -0.27375607598E+02  0.32857874863E+02  0.43400731414E+02  0.00000000000E+00 0. -1.
         11    1    4    4    0    0 -0.52382001119E+01  0.28181227502E+01 -0.17124774327E+01  0.61897605338E+01  0.51100000000E-03 0. -1.
        -11    1    4    4    0    0 -0.27684398048E+01  0.22252982377E+01 -0.10842426786E+02  0.11409400952E+02  0.51100000000E-03 0.  1.
         12    1    4    4    0    0  0.62018912202E+00  0.22332186610E+02 -0.20302970644E+02  0.30188107101E+02  0.00000000000E+00 0. -1.
</event>
<event>
 8    1  0.5542925E-011  0.9118800E+02  0.7816164E-02  0.1184000E+00
        -11   -1    0    0    0    0  0.00000000000E+00  0.00000000000E+00  0.45593999997E+02  0.45594000000E+02  0.51100000000E-03 0. -1.
         11   -1    0    0    0    0 -0.00000000000E+00 -0.00000000000E+00 -0.45593999997E+02  0.45594000000E+02  0.51100000000E-03 0.  1.
         23    2    1    2    0    0  0.00000000000E+00  0.00000000000E+00  0.00000000000E+00  0.91188000000E+02  0.91188000000E+02 0.  0.
    9900012    2    3    3    0    0  0.75357846975E+01  0.17157404239E+02 -0.39146634898E+02  0.47787267344E+02  0.19999983130E+02 0.  0.
         12    1    3    3    0    0 -0.75357846975E+01 -0.17157404239E+02  0.39146634898E+02  0.43400732656E+02  0.00000000000E+00 0. -1.
         11    1    4    4    0    0 -0.27992587992E+00  0.10241340108E+01  0.69687611121E+00  0.12699785612E+01  0.51100000000E-03 0. -1.
        -11    1    4    4    0    0  0.50250797431E+01  0.46967253189E+01 -0.24291200868E+01  0.72946062130E+01  0.51100000000E-03 0.  1.
        -12    1    4    4    0    0  0.27906308342E+01  0.11436544909E+02 -0.37414390922E+02  0.39222682570E+02  0.00000000000E+00 0.  1.
</event>
<event>
 8    1  0.5542925E-011  0.9118800E+02  0.7816164E-02  0.1184000E+00
        -11   -1    0    0    0    0  0.00000000000E+00  0.00000000000E+00  0.45593999997E+02  0.45594000000E+02  0.51100000000E-03 0. -1.
         11   -1    0    0    0    0 -0.00000000000E+00 -0.00000000000E+00 -0.45593999997E+02  0.45594000000E+02  0.51100000000E-03 0.  1.
         23    2    1    2    0    0  0.00000000000E+00 -0.35527136788E-14  0.00000000000E+00  0.91188000000E+02  0.91188000000E+02 0.  0.
    9900012    2    3    3    0    0  0.19048644620E+02 -0.28057085688E+02 -0.27084535111E+02  0.47787274644E+02  0.20000016413E+02 0.  0.
         12    1    3    3    0    0 -0.19048644620E+02  0.28057085688E+02  0.27084535111E+02  0.43400725356E+02  0.00000000000E+00 0. -1.
         11    1    4    4    0    0  0.32841705809E+01 -0.14406424063E+02 -0.77543261281E+01  0.16687132907E+02  0.51100000000E-03 0.  1.
        -11    1    4    4    0    0  0.27490341159E+01 -0.72644255804E+01 -0.13292366211E+02  0.15395326152E+02  0.51100000000E-03 0. -1.
         12    1    4    4    0    0  0.13015439924E+02 -0.63862360448E+01 -0.60378427726E+01  0.15704815585E+02  0.00000000000E+00 0. -1.
</event>
<event>
 8    1  0.5542925E-011  0.9118800E+02  0.7816164E-02  0.1184000E+00
        -11   -1    0    0    0    0  0.00000000000E+00  0.00000000000E+00  0.45593999997E+02  0.45594000000E+02  0.51100000000E-03 0. -1.
         11   -1    0    0    0    0 -0.00000000000E+00 -0.00000000000E+00 -0.45593999997E+02  0.45594000000E+02  0.51100000000E-03 0.  1.
         23    2    1    2    0    0  0.00000000000E+00 -0.88817841970E-15  0.00000000000E+00  0.91188000000E+02  0.91188000000E+02 0.  0.
    9900012    2    3    3    0    0 -0.24071961581E+02  0.61847215157E+01  0.35579668291E+02  0.47787275233E+02  0.20000019099E+02 0.  0.
        -12    1    3    3    0    0  0.24071961581E+02 -0.61847215157E+01 -0.35579668291E+02  0.43400724767E+02  0.00000000000E+00 0.  1.
         11    1    4    4    0    0 -0.45440892057E+01 -0.22027644007E+00  0.93297631651E+01  0.10379872321E+02  0.51100000000E-03 0. -1.
        -11    1    4    4    0    0 -0.59708350530E+01  0.10242290279E+02  0.77941652435E+01  0.14188177949E+02  0.51100000000E-03 0.  1.
        -12    1    4    4    0    0 -0.13557037322E+02 -0.38372923235E+01  0.18455739882E+02  0.23219224964E+02  0.00000000000E+00 0.  1.
</event>
<event>
 8    1  0.5542925E-011  0.9118800E+02  0.7816164E-02  0.1184000E+00
        -11   -1    0    0    0    0  0.00000000000E+00  0.00000000000E+00  0.45593999997E+02  0.45594000000E+02  0.51100000000E-03 0. -1.
         11   -1    0    0    0    0 -0.00000000000E+00 -0.00000000000E+00 -0.45593999997E+02  0.45594000000E+02  0.51100000000E-03 0.  1.
         23    2    1    2    0    0  0.00000000000E+00 -0.17763568394E-14  0.00000000000E+00  0.91188000000E+02  0.91188000000E+02 0.  0.
    9900012    2    3    3    0    0  0.22437487241E+02  0.98743826777E+01  0.35814504720E+02  0.47787274024E+02  0.20000013584E+02 0.  0.
        -12    1    3    3    0    0 -0.22437487241E+02 -0.98743826777E+01 -0.35814504720E+02  0.43400725976E+02  0.00000000000E+00 0.  1.
         11    1    4    4    0    0  0.15846621089E+02  0.56489802450E+01  0.17054174679E+02  0.23955610031E+02  0.51100000000E-03 0. -1.
        -11    1    4    4    0    0  0.10103380896E+02  0.18809893009E+01  0.14963488511E+02  0.18152752269E+02  0.51100000000E-03 0.  1.
        -12    1    4    4    0    0 -0.35125147436E+01  0.23444131318E+01  0.37968415299E+01  0.56789117232E+01  0.00000000000E+00 0.  1.
</event>
<event>
 8    1  0.5542925E-011  0.9118800E+02  0.7816164E-02  0.1184000E+00
        -11   -1    0    0    0    0  0.00000000000E+00  0.00000000000E+00  0.45593999997E+02  0.45594000000E+02  0.51100000000E-03 0. -1.
         11   -1    0    0    0    0 -0.00000000000E+00 -0.00000000000E+00 -0.45593999997E+02  0.45594000000E+02  0.51100000000E-03 0.  1.
         23    2    1    2    0    0 -0.17763568394E-14  0.00000000000E+00  0.00000000000E+00  0.91188000000E+02  0.91188000000E+02 0.  0.
    9900012    2    3    3    0    0 -0.15033106230E+02  0.18428952808E+02  0.36304290386E+02  0.47787284742E+02  0.20000062452E+02 0.  0.
        -12    1    3    3    0    0  0.15033106230E+02 -0.18428952808E+02 -0.36304290386E+02  0.43400715258E+02  0.00000000000E+00 0.  1.
         11    1    4    4    0    0 -0.14158454013E+01  0.24883721487E+00  0.58455621244E+01  0.60197288121E+01  0.51100000000E-03 0. -1.
        -11    1    4    4    0    0 -0.14827079876E+02  0.14693817015E+02  0.14571556912E+02  0.25457431670E+02  0.51100000000E-03 0.  1.
         12    1    4    4    0    0  0.12098190471E+01  0.34862985775E+01  0.15887171349E+02  0.16310124260E+02  0.00000000000E+00 0. -1.
</event>
<event>
 8    1  0.5542925E-011  0.9118800E+02  0.7816164E-02  0.1184000E+00
        -11   -1    0    0    0    0  0.00000000000E+00  0.00000000000E+00  0.45593999997E+02  0.45594000000E+02  0.51100000000E-03 0. -1.
         11   -1    0    0    0    0 -0.00000000000E+00 -0.00000000000E+00 -0.45593999997E+02  0.45594000000E+02  0.51100000000E-03 0.  1.
         23    2    1    2    0    0  0.00000000000E+00  0.00000000000E+00  0.00000000000E+00  0.91188000000E+02  0.91188000000E+02 0.  0.
    9900012    2    3    3    0    0  0.14360318520E+02  0.25866467796E+02 -0.31754211223E+02  0.47787276105E+02  0.20000023073E+02 0.  0.
         12    1    3    3    0    0 -0.14360318520E+02 -0.25866467796E+02  0.31754211223E+02  0.43400723895E+02  0.00000000000E+00 0. -1.
         11    1    4    4    0    0  0.56112883136E+01  0.75508241976E+01 -0.68488007338E+01  0.11636476028E+02  0.51100000000E-03 0. -1.
        -11    1    4    4    0    0  0.11713521275E+02  0.88333483870E+01 -0.84541832941E+01  0.16932449315E+02  0.51100000000E-03 0.  1.
         12    1    4    4    0    0 -0.29644910689E+01  0.94822952112E+01 -0.16451227195E+02  0.19218350762E+02  0.00000000000E+00 0. -1.
</event>
<event>
 8    1  0.5542925E-011  0.9118800E+02  0.7816164E-02  0.1184000E+00
        -11   -1    0    0    0    0  0.00000000000E+00  0.00000000000E+00  0.45593999997E+02  0.45594000000E+02  0.51100000000E-03 0. -1.
         11   -1    0    0    0    0 -0.00000000000E+00 -0.00000000000E+00 -0.45593999997E+02  0.45594000000E+02  0.51100000000E-03 0.  1.
         23    2    1    2    0    0  0.00000000000E+00  0.00000000000E+00  0.00000000000E+00  0.91188000000E+02  0.91188000000E+02 0.  0.
    9900012    2    3    3    0    0 -0.32742486623E+02 -0.16448395427E+02 -0.23259471336E+02  0.47787272480E+02  0.20000006547E+02 0.  0.
         12    1    3    3    0    0  0.32742486623E+02  0.16448395427E+02  0.23259471336E+02  0.43400727520E+02  0.00000000000E+00 0. -1.
         11    1    4    4    0    0 -0.10124053549E+02  0.11988432975E+01 -0.14771666124E+01  0.10301247836E+02  0.51100000000E-03 0. -1.
        -11    1    4    4    0    0  0.93854308139E+00 -0.20265850364E+01 -0.13618865145E+01  0.26158450193E+01  0.51100000000E-03 0.  1.
        -12    1    4    4    0    0 -0.23556976156E+02 -0.15620653688E+02 -0.20420418209E+02  0.34870179625E+02  0.00000000000E+00 0.  1.
</event>
<event>
 8    1  0.5542925E-011  0.9118800E+02  0.7816164E-02  0.1184000E+00
        -11   -1    0    0    0    0  0.00000000000E+00  0.00000000000E+00  0.45593999997E+02  0.45594000000E+02  0.51100000000E-03 0. -1.
         11   -1    0    0    0    0 -0.00000000000E+00 -0.00000000000E+00 -0.45593999997E+02  0.45594000000E+02  0.51100000000E-03 0.  1.
         23    2    1    2    0    0 -0.17763568394E-14  0.00000000000E+00  0.35527136788E-14  0.91188000000E+02  0.91188000000E+02 0.  0.
    9900012    2    3    3    0    0 -0.85265213098E+01 -0.28119084722E+02 -0.31941181942E+02  0.47787267344E+02  0.19999983126E+02 0.  0.
         12    1    3    3    0    0  0.85265213098E+01  0.28119084722E+02  0.31941181942E+02  0.43400732656E+02  0.00000000000E+00 0. -1.
         11    1    4    4    0    0 -0.64805021566E+01 -0.15780911401E+02 -0.11599127062E+02  0.20629440654E+02  0.51100000000E-03 0. -1.
        -11    1    4    4    0    0 -0.12163531449E+01 -0.99424056160E+01 -0.42728175096E+01  0.10889807810E+02  0.51100000000E-03 0.  1.
        -12    1    4    4    0    0 -0.82966600821E+00 -0.23957677048E+01 -0.16069237371E+02  0.16268018879E+02  0.00000000000E+00 0.  1.
</event>
<event>
 8    1  0.5542925E-011  0.9118800E+02  0.7816164E-02  0.1184000E+00
        -11   -1    0    0    0    0  0.00000000000E+00  0.00000000000E+00  0.45593999997E+02  0.45594000000E+02  0.51100000000E-03 0. -1.
         11   -1    0    0    0    0 -0.00000000000E+00 -0.00000000000E+00 -0.45593999997E+02  0.45594000000E+02  0.51100000000E-03 0.  1.
         23    2    1    2    0    0  0.69388939039E-15  0.00000000000E+00  0.00000000000E+00  0.91188000000E+02  0.91188000000E+02 0.  0.
    9900012    2    3    3    0    0 -0.15854430637E+00  0.29127486849E+02 -0.32174354886E+02  0.47787254168E+02  0.19999923055E+02 0.  0.
         12    1    3    3    0    0  0.15854430637E+00 -0.29127486849E+02  0.32174354886E+02  0.43400745832E+02  0.00000000000E+00 0. -1.
         11    1    4    4    0    0 -0.17502867908E+01  0.55122743024E+00 -0.32218565454E+01  0.37077911740E+01  0.51100000000E-03 0. -1.
        -11    1    4    4    0    0 -0.62855547039E+01  0.41338786359E+01 -0.74150077670E+01  0.10563119376E+02  0.51100000000E-03 0.  1.
         12    1    4    4    0    0  0.78772971883E+01  0.24442380783E+02 -0.21537490574E+02  0.33516343618E+02  0.00000000000E+00 0. -1.
</event>
<event>
 8    1  0.5542925E-011  0.9118800E+02  0.7816164E-02  0.1184000E+00
        -11   -1    0    0    0    0  0.00000000000E+00  0.00000000000E+00  0.45593999997E+02  0.45594000000E+02  0.51100000000E-03 0. -1.
         11   -1    0    0    0    0 -0.00000000000E+00 -0.00000000000E+00 -0.45593999997E+02  0.45594000000E+02  0.51100000000E-03 0.  1.
         23    2    1    2    0    0  0.17763568394E-14  0.00000000000E+00  0.00000000000E+00  0.91188000000E+02  0.91188000000E+02 0.  0.
    9900012    2    3    3    0    0  0.12467372043E+02 -0.22201498821E+02  0.35146568550E+02  0.47787271937E+02  0.20000004068E+02 0.  0.
        -12    1    3    3    0    0 -0.12467372043E+02  0.22201498821E+02 -0.35146568550E+02  0.43400728063E+02  0.00000000000E+00 0.  1.
         11    1    4    4    0    0  0.13307444881E+01 -0.12408237119E+02  0.19002242514E+02  0.22733685361E+02  0.51100000000E-03 0. -1.
        -11    1    4    4    0    0  0.35980888157E+01  0.16968753807E+01  0.83633990288E+01  0.92613213290E+01  0.51100000000E-03 0.  1.
         12    1    4    4    0    0  0.75385387387E+01 -0.11490137083E+02  0.77809270075E+01  0.15792265246E+02  0.00000000000E+00 0. -1.
</event>
<event>
 8    1  0.5542925E-011  0.9118800E+02  0.7816164E-02  0.1184000E+00
        -11   -1    0    0    0    0  0.00000000000E+00  0.00000000000E+00  0.45593999997E+02  0.45594000000E+02  0.51100000000E-03 0.  1.
         11   -1    0    0    0    0 -0.00000000000E+00 -0.00000000000E+00 -0.45593999997E+02  0.45594000000E+02  0.51100000000E-03 0. -1.
         23    2    1    2    0    0  0.71054273576E-14 -0.88817841970E-15  0.00000000000E+00  0.91188000000E+02  0.91188000000E+02 0.  0.
    9900012    2    3    3    0    0 -0.41386107789E+02  0.48093906566E+01  0.12152506430E+02  0.47787267645E+02  0.19999984502E+02 0.  0.
         12    1    3    3    0    0  0.41386107789E+02 -0.48093906566E+01 -0.12152506430E+02  0.43400732355E+02  0.00000000000E+00 0. -1.
         11    1    4    4    0    0 -0.45859869609E+01 -0.56921010925E+01  0.72434861941E+00  0.73454729212E+01  0.51100000000E-03 0. -1.
        -11    1    4    4    0    0 -0.48090450271E+01 -0.53619695364E+00  0.24787039778E+01  0.54367632758E+01  0.51100000000E-03 0.  1.
        -12    1    4    4    0    0 -0.31991075801E+02  0.11037688703E+02  0.89494538325E+01  0.35005031448E+02  0.00000000000E+00 0.  1.
</event>
<event>
 8    1  0.5542925E-011  0.9118800E+02  0.7816164E-02  0.1184000E+00
        -11   -1    0    0    0    0  0.00000000000E+00  0.00000000000E+00  0.45593999997E+02  0.45594000000E+02  0.51100000000E-03 0. -1.
         11   -1    0    0    0    0 -0.00000000000E+00 -0.00000000000E+00 -0.45593999997E+02  0.45594000000E+02  0.51100000000E-03 0.  1.
         23    2    1    2    0    0  0.00000000000E+00  0.00000000000E+00 -0.35527136788E-14  0.91188000000E+02  0.91188000000E+02 0.  0.
    9900012    2    3    3    0    0  0.30482645502E+02  0.80016224695E+01  0.29839676446E+02  0.47787263493E+02  0.19999965569E+02 0.  0.
        -12    1    3    3    0    0 -0.30482645502E+02 -0.80016224695E+01 -0.29839676446E+02  0.43400736507E+02  0.00000000000E+00 0.  1.
         11    1    4    4    0    0  0.22981221718E+00  0.44521107012E+00  0.23640632814E+01  0.24165723684E+01  0.51100000000E-03 0. -1.
        -11    1    4    4    0    0  0.82836307328E+01  0.13790149516E+00  0.18920593540E+02  0.20654936822E+02  0.51100000000E-03 0.  1.
         12    1    4    4    0    0  0.21969202552E+02  0.74185099042E+01  0.85550196246E+01  0.24715754303E+02  0.00000000000E+00 0. -1.
</event>
<event>
 8    1  0.5542925E-011  0.9118800E+02  0.7816164E-02  0.1184000E+00
        -11   -1    0    0    0    0  0.00000000000E+00  0.00000000000E+00  0.45593999997E+02  0.45594000000E+02  0.51100000000E-03 0. -1.
         11   -1    0    0    0    0 -0.00000000000E+00 -0.00000000000E+00 -0.45593999997E+02  0.45594000000E+02  0.51100000000E-03 0.  1.
         23    2    1    2    0    0  0.00000000000E+00  0.00000000000E+00  0.00000000000E+00  0.91188000000E+02  0.91188000000E+02 0.  0.
    9900012    2    3    3    0    0 -0.24851362058E+02 -0.19172505368E+02 -0.29974122575E+02  0.47787272098E+02  0.20000004806E+02 0.  0.
         12    1    3    3    0    0  0.24851362058E+02  0.19172505368E+02  0.29974122575E+02  0.43400727902E+02  0.00000000000E+00 0. -1.
         11    1    4    4    0    0 -0.97707346750E+01  0.21465502555E+01 -0.46193552353E+01  0.11018773849E+02  0.51100000000E-03 0. -1.
        -11    1    4    4    0    0 -0.70015914520E+01 -0.65308953352E+01 -0.11415334288E+02  0.14899152120E+02  0.51100000000E-03 0.  1.
         12    1    4    4    0    0 -0.80790359312E+01 -0.14788160289E+02 -0.13939433052E+02  0.21869346129E+02  0.00000000000E+00 0. -1.
</event>
<event>
 8    1  0.5542925E-011  0.9118800E+02  0.7816164E-02  0.1184000E+00
        -11   -1    0    0    0    0  0.00000000000E+00  0.00000000000E+00  0.45593999997E+02  0.45594000000E+02  0.51100000000E-03 0. -1.
         11   -1    0    0    0    0 -0.00000000000E+00 -0.00000000000E+00 -0.45593999997E+02  0.45594000000E+02  0.51100000000E-03 0.  1.
         23    2    1    2    0    0  0.00000000000E+00  0.00000000000E+00  0.00000000000E+00  0.91188000000E+02  0.91188000000E+02 0.  0.
    9900012    2    3    3    0    0  0.17282614877E+02 -0.31064013005E+02 -0.24899032564E+02  0.47787268398E+02  0.19999987934E+02 0.  0.
         12    1    3    3    0    0 -0.17282614877E+02  0.31064013005E+02  0.24899032564E+02  0.43400731602E+02  0.00000000000E+00 0. -1.
         11    1    4    4    0    0 -0.15213494135E+01 -0.63456990669E+00 -0.96874378699E+00  0.19119748404E+01  0.51100000000E-03 0. -1.
        -11    1    4    4    0    0  0.52438952913E+01 -0.17348688625E+02 -0.19295848241E+02  0.26472725482E+02  0.51100000000E-03 0.  1.
         12    1    4    4    0    0  0.13560068999E+02 -0.13080754474E+02 -0.46344405355E+01  0.19402568076E+02  0.00000000000E+00 0. -1.
</event>
<event>
 8    1  0.5542925E-011  0.9118800E+02  0.7816164E-02  0.1184000E+00
        -11   -1    0    0    0    0  0.00000000000E+00  0.00000000000E+00  0.45593999997E+02  0.45594000000E+02  0.51100000000E-03 0. -1.
         11   -1    0    0    0    0 -0.00000000000E+00 -0.00000000000E+00 -0.45593999997E+02  0.45594000000E+02  0.51100000000E-03 0.  1.
         23    2    1    2    0    0  0.00000000000E+00  0.17763568394E-14 -0.71054273576E-14  0.91188000000E+02  0.91188000000E+02 0.  0.
    9900012    2    3    3    0    0 -0.21503988217E+02  0.11735634697E+02 -0.35825580510E+02  0.47787322012E+02  0.20000232378E+02 0.  0.
         12    1    3    3    0    0  0.21503988217E+02 -0.11735634697E+02  0.35825580510E+02  0.43400677988E+02  0.00000000000E+00 0. -1.
         11    1    4    4    0    0 -0.78153219547E+01  0.94697021893E+01 -0.58761303575E+01  0.13611885433E+02  0.51100000000E-03 0. -1.
        -11    1    4    4    0    0 -0.10154291395E+02  0.52982890757E+01 -0.17826668007E+02  0.21188949793E+02  0.51100000000E-03 0.  1.
        -12    1    4    4    0    0 -0.35343748675E+01 -0.30323565684E+01 -0.12122782146E+02  0.12986486785E+02  0.00000000000E+00 0.  1.
</event>
<event>
 8    1  0.5542925E-011  0.9118800E+02  0.7816164E-02  0.1184000E+00
        -11   -1    0    0    0    0  0.00000000000E+00  0.00000000000E+00  0.45593999997E+02  0.45594000000E+02  0.51100000000E-03 0. -1.
         11   -1    0    0    0    0 -0.00000000000E+00 -0.00000000000E+00 -0.45593999997E+02  0.45594000000E+02  0.51100000000E-03 0.  1.
         23    2    1    2    0    0  0.00000000000E+00  0.00000000000E+00  0.00000000000E+00  0.91188000000E+02  0.91188000000E+02 0.  0.
    9900012    2    3    3    0    0  0.88175191791E+01 -0.36337619446E+02 -0.22032975580E+02  0.47787271384E+02  0.20000001550E+02 0.  0.
         12    1    3    3    0    0 -0.88175191791E+01  0.36337619446E+02  0.22032975580E+02  0.43400728616E+02  0.00000000000E+00 0. -1.
         11    1    4    4    0    0 -0.15974914185E+01 -0.57686984843E+00 -0.22476699949E+01  0.28172288372E+01  0.51100000000E-03 0. -1.
        -11    1    4    4    0    0  0.38798826756E+01 -0.17911057832E+02 -0.18307735656E+02  0.25904298240E+02  0.51100000000E-03 0.  1.
         12    1    4    4    0    0  0.65351279220E+01 -0.17849691765E+02 -0.14775699299E+01  0.19065744307E+02  0.00000000000E+00 0. -1.
</event>
<event>
 8    1  0.5542925E-011  0.9118800E+02  0.7816164E-02  0.1184000E+00
        -11   -1    0    0    0    0  0.00000000000E+00  0.00000000000E+00  0.45593999997E+02  0.45594000000E+02  0.51100000000E-03 0. -1.
         11   -1    0    0    0    0 -0.00000000000E+00 -0.00000000000E+00 -0.45593999997E+02  0.45594000000E+02  0.51100000000E-03 0.  1.
         23    2    1    2    0    0  0.35527136788E-14  0.00000000000E+00 -0.17763568394E-14  0.91188000000E+02  0.91188000000E+02 0.  0.
    9900012    2    3    3    0    0  0.10653070244E+02  0.39622077949E+02 -0.14150142182E+02  0.47787268550E+02  0.19999988627E+02 0.  0.
         12    1    3    3    0    0 -0.10653070244E+02 -0.39622077949E+02  0.14150142182E+02  0.43400731450E+02  0.00000000000E+00 0. -1.
         11    1    4    4    0    0  0.66545985378E+01  0.12901299571E+02 -0.13756958536E+01  0.14581486607E+02  0.51100000000E-03 0. -1.
        -11    1    4    4    0    0 -0.40058623494E-01  0.26052637669E+02 -0.87958630017E+01  0.27497431523E+02  0.51100000000E-03 0.  1.
         12    1    4    4    0    0  0.40385303292E+01  0.66814070931E+00 -0.39785833266E+01  0.57083504197E+01  0.00000000000E+00 0. -1.
</event>
<event>
 8    1  0.5542925E-011  0.9118800E+02  0.7816164E-02  0.1184000E+00
        -11   -1    0    0    0    0  0.00000000000E+00  0.00000000000E+00  0.45593999997E+02  0.45594000000E+02  0.51100000000E-03 0. -1.
         11   -1    0    0    0    0 -0.00000000000E+00 -0.00000000000E+00 -0.45593999997E+02  0.45594000000E+02  0.51100000000E-03 0.  1.
         23    2    1    2    0    0  0.00000000000E+00  0.00000000000E+00  0.00000000000E+00  0.91188000000E+02  0.91188000000E+02 0.  0.
    9900012    2    3    3    0    0  0.21928029471E+02 -0.20738228354E+02 -0.31188306686E+02  0.47787273443E+02  0.20000010937E+02 0.  0.
         12    1    3    3    0    0 -0.21928029471E+02  0.20738228354E+02  0.31188306686E+02  0.43400726557E+02  0.00000000000E+00 0. -1.
         11    1    4    4    0    0 -0.11299589790E+01 -0.40294452148E+01 -0.58866535677E+01  0.72225983219E+01  0.51100000000E-03 0.  1.
        -11    1    4    4    0    0  0.31375105086E+00  0.61891280040E+00  0.13238306309E+01  0.14946640348E+01  0.51100000000E-03 0. -1.
        -12    1    4    4    0    0  0.22744237399E+02 -0.17327695939E+02 -0.26625483749E+02  0.39070011086E+02  0.00000000000E+00 0.  1.
</event>
<event>
 8    1  0.5542925E-011  0.9118800E+02  0.7816164E-02  0.1184000E+00
        -11   -1    0    0    0    0  0.00000000000E+00  0.00000000000E+00  0.45593999997E+02  0.45594000000E+02  0.51100000000E-03 0. -1.
         11   -1    0    0    0    0 -0.00000000000E+00 -0.00000000000E+00 -0.45593999997E+02  0.45594000000E+02  0.51100000000E-03 0.  1.
         23    2    1    2    0    0 -0.17763568394E-14  0.00000000000E+00 -0.37470027081E-15  0.91188000000E+02  0.91188000000E+02 0.  0.
    9900012    2    3    3    0    0  0.15403081824E+02 -0.40575391703E+02  0.76419403148E-01  0.47787272109E+02  0.20000004854E+02 0.  0.
        -12    1    3    3    0    0 -0.15403081824E+02  0.40575391703E+02 -0.76419403148E-01  0.43400727891E+02  0.00000000000E+00 0.  1.
         11    1    4    4    0    0  0.81773765090E+01 -0.25838480458E+02  0.15656904889E+01  0.27146785185E+02  0.51100000000E-03 0. -1.
        -11    1    4    4    0    0  0.10666875484E+01 -0.10953571577E+02 -0.55755846040E+01  0.12337167283E+02  0.51100000000E-03 0.  1.
        -12    1    4    4    0    0  0.61590177663E+01 -0.37833396683E+01  0.40863135183E+01  0.83033196411E+01  0.00000000000E+00 0.  1.
</event>
<event>
 8    1  0.5542925E-011  0.9118800E+02  0.7816164E-02  0.1184000E+00
        -11   -1    0    0    0    0  0.00000000000E+00  0.00000000000E+00  0.45593999997E+02  0.45594000000E+02  0.51100000000E-03 0. -1.
         11   -1    0    0    0    0 -0.00000000000E+00 -0.00000000000E+00 -0.45593999997E+02  0.45594000000E+02  0.51100000000E-03 0.  1.
         23    2    1    2    0    0  0.00000000000E+00  0.00000000000E+00  0.35527136788E-14  0.91188000000E+02  0.91188000000E+02 0.  0.
    9900012    2    3    3    0    0  0.23266478047E+02 -0.19605491030E+02 -0.30950268582E+02  0.47787269539E+02  0.19999993138E+02 0.  0.
         12    1    3    3    0    0 -0.23266478047E+02  0.19605491030E+02  0.30950268582E+02  0.43400730461E+02  0.00000000000E+00 0. -1.
         11    1    4    4    0    0 -0.54417476756E+00 -0.27111449360E+01  0.63310579838E+00  0.28367686290E+01  0.51100000000E-03 0. -1.
        -11    1    4    4    0    0  0.67342378720E+01  0.13244811502E+00 -0.25343882029E+01  0.71965704362E+01  0.51100000000E-03 0.  1.
        -12    1    4    4    0    0  0.17076414943E+02 -0.17026794209E+02 -0.29048986177E+02  0.37753930474E+02  0.00000000000E+00 0.  1.
</event>
<event>
 8    1  0.5542925E-011  0.9118800E+02  0.7816164E-02  0.1184000E+00
        -11   -1    0    0    0    0  0.00000000000E+00  0.00000000000E+00  0.45593999997E+02  0.45594000000E+02  0.51100000000E-03 0. -1.
         11   -1    0    0    0    0 -0.00000000000E+00 -0.00000000000E+00 -0.45593999997E+02  0.45594000000E+02  0.51100000000E-03 0.  1.
         23    2    1    2    0    0 -0.35527136788E-14  0.35527136788E-14 -0.17763568394E-14  0.91188000000E+02  0.91188000000E+02 0.  0.
    9900012    2    3    3    0    0 -0.30915287133E+02 -0.28886840511E+02  0.96653239916E+01  0.47787273957E+02  0.20000013280E+02 0.  0.
        -12    1    3    3    0    0  0.30915287133E+02  0.28886840511E+02 -0.96653239916E+01  0.43400726043E+02  0.00000000000E+00 0.  1.
         11    1    4    4    0    0 -0.11828109736E+02 -0.14104132538E+02 -0.17042063915E+01  0.18486077308E+02  0.51100000000E-03 0. -1.
        -11    1    4    4    0    0 -0.12845729467E+02 -0.82458071803E+01  0.64779851286E+00  0.15278276891E+02  0.51100000000E-03 0.  1.
         12    1    4    4    0    0 -0.62414479302E+01 -0.65369007928E+01  0.10721731870E+02  0.14022919758E+02  0.00000000000E+00 0. -1.
</event>
<event>
 8    1  0.5542925E-011  0.9118800E+02  0.7816164E-02  0.1184000E+00
        -11   -1    0    0    0    0  0.00000000000E+00  0.00000000000E+00  0.45593999997E+02  0.45594000000E+02  0.51100000000E-03 0. -1.
         11   -1    0    0    0    0 -0.00000000000E+00 -0.00000000000E+00 -0.45593999997E+02  0.45594000000E+02  0.51100000000E-03 0.  1.
         23    2    1    2    0    0  0.00000000000E+00 -0.44408920985E-15  0.00000000000E+00  0.91188000000E+02  0.91188000000E+02 0.  0.
    9900012    2    3    3    0    0 -0.13781545236E+02  0.31961792842E+01 -0.41030228203E+02  0.47787237593E+02  0.19999847483E+02 0.  0.
         12    1    3    3    0    0  0.13781545236E+02 -0.31961792842E+01  0.41030228203E+02  0.43400762407E+02  0.00000000000E+00 0. -1.
         11    1    4    4    0    0 -0.59129882380E+01  0.11618291531E+01 -0.68840059464E+01  0.91489242545E+01  0.51100000000E-03 0. -1.
        -11    1    4    4    0    0 -0.11944397538E+02 -0.21723491380E+01 -0.24723957416E+02  0.27543816073E+02  0.51100000000E-03 0.  1.
         12    1    4    4    0    0  0.40758405400E+01  0.42066992691E+01 -0.94222648406E+01  0.11094497266E+02  0.00000000000E+00 0. -1.
</event>
<event>
 8    1  0.5542925E-011  0.9118800E+02  0.7816164E-02  0.1184000E+00
        -11   -1    0    0    0    0  0.00000000000E+00  0.00000000000E+00  0.45593999997E+02  0.45594000000E+02  0.51100000000E-03 0. -1.
         11   -1    0    0    0    0 -0.00000000000E+00 -0.00000000000E+00 -0.45593999997E+02  0.45594000000E+02  0.51100000000E-03 0.  1.
         23    2    1    2    0    0  0.35527136788E-14 -0.35527136788E-14  0.00000000000E+00  0.91188000000E+02  0.91188000000E+02 0.  0.
    9900012    2    3    3    0    0 -0.28401764028E+02  0.18022601001E+02  0.27425332930E+02  0.47787271515E+02  0.20000002144E+02 0.  0.
        -12    1    3    3    0    0  0.28401764028E+02 -0.18022601001E+02 -0.27425332930E+02  0.43400728485E+02  0.00000000000E+00 0.  1.
         11    1    4    4    0    0 -0.21492994032E+00  0.19697753565E+01  0.72895813368E+01  0.75540853954E+01  0.51100000000E-03 0. -1.
        -11    1    4    4    0    0 -0.53133569492E+01  0.96674073436E+01  0.53698237416E+01  0.12268884794E+02  0.51100000000E-03 0.  1.
         12    1    4    4    0    0 -0.22873477139E+02  0.63854183007E+01  0.14765927852E+02  0.27964301325E+02  0.00000000000E+00 0. -1.
</event>
<event>
 8    1  0.5542925E-011  0.9118800E+02  0.7816164E-02  0.1184000E+00
        -11   -1    0    0    0    0  0.00000000000E+00  0.00000000000E+00  0.45593999997E+02  0.45594000000E+02  0.51100000000E-03 0. -1.
         11   -1    0    0    0    0 -0.00000000000E+00 -0.00000000000E+00 -0.45593999997E+02  0.45594000000E+02  0.51100000000E-03 0.  1.
         23    2    1    2    0    0  0.00000000000E+00  0.00000000000E+00  0.00000000000E+00  0.91188000000E+02  0.91188000000E+02 0.  0.
    9900012    2    3    3    0    0 -0.10144190975E+02  0.25023451251E+02  0.33978601745E+02  0.47787273053E+02  0.20000009156E+02 0.  0.
        -12    1    3    3    0    0  0.10144190975E+02 -0.25023451251E+02 -0.33978601745E+02  0.43400726947E+02  0.00000000000E+00 0.  1.
         11    1    4    4    0    0 -0.87266812722E+01  0.12241880924E+02  0.11353501543E+02  0.18839336828E+02  0.51100000000E-03 0. -1.
        -11    1    4    4    0    0 -0.29471919547E+01  0.11789228663E+02  0.88015163789E+01  0.15004617413E+02  0.51100000000E-03 0.  1.
        -12    1    4    4    0    0  0.15296822518E+01  0.99234166406E+00  0.13823583823E+02  0.13943318811E+02  0.00000000000E+00 0.  1.
</event>
<event>
 8    1  0.5542925E-011  0.9118800E+02  0.7816164E-02  0.1184000E+00
        -11   -1    0    0    0    0  0.00000000000E+00  0.00000000000E+00  0.45593999997E+02  0.45594000000E+02  0.51100000000E-03 0. -1.
         11   -1    0    0    0    0 -0.00000000000E+00 -0.00000000000E+00 -0.45593999997E+02  0.45594000000E+02  0.51100000000E-03 0.  1.
         23    2    1    2    0    0  0.35527136788E-14  0.00000000000E+00  0.00000000000E+00  0.91188000000E+02  0.91188000000E+02 0.  0.
    9900012    2    3    3    0    0  0.28753291071E+02  0.61443284126E+01  0.31923654655E+02  0.47787259850E+02  0.19999948960E+02 0.  0.
        -12    1    3    3    0    0 -0.28753291071E+02 -0.61443284126E+01 -0.31923654655E+02  0.43400740150E+02  0.00000000000E+00 0.  1.
         11    1    4    4    0    0  0.22713623500E+02 -0.62619562808E+00  0.13129755027E+02  0.26242928205E+02  0.51100000000E-03 0. -1.
        -11    1    4    4    0    0 -0.12684873262E+00  0.18808799934E+01  0.11083797131E+01  0.21868484173E+01  0.51100000000E-03 0.  1.
        -12    1    4    4    0    0  0.61665163031E+01  0.48896440473E+01  0.17685519915E+02  0.19357483227E+02  0.00000000000E+00 0.  1.
</event>
<event>
 8    1  0.5542925E-011  0.9118800E+02  0.7816164E-02  0.1184000E+00
        -11   -1    0    0    0    0  0.00000000000E+00  0.00000000000E+00  0.45593999997E+02  0.45594000000E+02  0.51100000000E-03 0. -1.
         11   -1    0    0    0    0 -0.00000000000E+00 -0.00000000000E+00 -0.45593999997E+02  0.45594000000E+02  0.51100000000E-03 0.  1.
         23    2    1    2    0    0  0.00000000000E+00  0.00000000000E+00  0.00000000000E+00  0.91188000000E+02  0.91188000000E+02 0.  0.
    9900012    2    3    3    0    0 -0.29374971103E+02  0.18809234519E+02  0.25825314175E+02  0.47787273247E+02  0.20000010042E+02 0.  0.
        -12    1    3    3    0    0  0.29374971103E+02 -0.18809234519E+02 -0.25825314175E+02  0.43400726753E+02  0.00000000000E+00 0.  1.
         11    1    4    4    0    0 -0.12332358430E+02  0.86310703858E+01  0.20010448036E+01  0.15185078894E+02  0.51100000000E-03 0.  1.
        -11    1    4    4    0    0 -0.15193123212E+02  0.76097744405E+01  0.13201303042E+02  0.21517761553E+02  0.51100000000E-03 0. -1.
         12    1    4    4    0    0 -0.18494894610E+01  0.25683896927E+01  0.10622966329E+02  0.11084432800E+02  0.00000000000E+00 0. -1.
</event>
<event>
 8    1  0.5542925E-011  0.9118800E+02  0.7816164E-02  0.1184000E+00
        -11   -1    0    0    0    0  0.00000000000E+00  0.00000000000E+00  0.45593999997E+02  0.45594000000E+02  0.51100000000E-03 0. -1.
         11   -1    0    0    0    0 -0.00000000000E+00 -0.00000000000E+00 -0.45593999997E+02  0.45594000000E+02  0.51100000000E-03 0.  1.
         23    2    1    2    0    0  0.00000000000E+00 -0.17763568394E-14  0.00000000000E+00  0.91188000000E+02  0.91188000000E+02 0.  0.
    9900012    2    3    3    0    0 -0.37840998751E+02  0.11561074481E+02  0.17833219103E+02  0.47787270361E+02  0.19999996883E+02 0.  0.
        -12    1    3    3    0    0  0.37840998751E+02 -0.11561074481E+02 -0.17833219103E+02  0.43400729639E+02  0.00000000000E+00 0.  1.
         11    1    4    4    0    0 -0.22559434853E+02  0.59829535720E+01  0.68385106605E+01  0.24320548157E+02  0.51100000000E-03 0. -1.
        -11    1    4    4    0    0 -0.16633572392E+02  0.65831700695E+01  0.11966062773E+02  0.21522093700E+02  0.51100000000E-03 0.  1.
        -12    1    4    4    0    0  0.13520084938E+01 -0.10050491608E+01 -0.97135433046E+00  0.19446285039E+01  0.00000000000E+00 0.  1.
</event>
<event>
 8    1  0.5542925E-011  0.9118800E+02  0.7816164E-02  0.1184000E+00
        -11   -1    0    0    0    0  0.00000000000E+00  0.00000000000E+00  0.45593999997E+02  0.45594000000E+02  0.51100000000E-03 0. -1.
         11   -1    0    0    0    0 -0.00000000000E+00 -0.00000000000E+00 -0.45593999997E+02  0.45594000000E+02  0.51100000000E-03 0.  1.
         23    2    1    2    0    0  0.35527136788E-14 -0.71054273576E-14  0.35527136788E-14  0.91188000000E+02  0.91188000000E+02 0.  0.
    9900012    2    3    3    0    0 -0.25389619216E+02  0.20466347514E+02 -0.28637721052E+02  0.47787271763E+02  0.20000003275E+02 0.  0.
         12    1    3    3    0    0  0.25389619216E+02 -0.20466347514E+02  0.28637721052E+02  0.43400728237E+02  0.00000000000E+00 0. -1.
         11    1    4    4    0    0 -0.22091042843E+01  0.11360322654E+00  0.13097441370E+00  0.22158975586E+01  0.51100000000E-03 0. -1.
        -11    1    4    4    0    0 -0.17617634908E+02  0.18694543478E+02 -0.13044972001E+02  0.28810385460E+02  0.51100000000E-03 0.  1.
         12    1    4    4    0    0 -0.55628800240E+01  0.16582008092E+01 -0.15723723465E+02  0.16760988744E+02  0.00000000000E+00 0. -1.
</event>
<event>
 8    1  0.5542925E-011  0.9118800E+02  0.7816164E-02  0.1184000E+00
        -11   -1    0    0    0    0  0.00000000000E+00  0.00000000000E+00  0.45593999997E+02  0.45594000000E+02  0.51100000000E-03 0.  1.
         11   -1    0    0    0    0 -0.00000000000E+00 -0.00000000000E+00 -0.45593999997E+02  0.45594000000E+02  0.51100000000E-03 0. -1.
         23    2    1    2    0    0  0.00000000000E+00  0.00000000000E+00 -0.88817841970E-15  0.91188000000E+02  0.91188000000E+02 0.  0.
    9900012    2    3    3    0    0 -0.32717882515E+02 -0.27543407496E+02  0.73840699821E+01  0.47787267031E+02  0.19999981701E+02 0.  0.
        -12    1    3    3    0    0  0.32717882515E+02  0.27543407496E+02 -0.73840699821E+01  0.43400732969E+02  0.00000000000E+00 0.  1.
         11    1    4    4    0    0 -0.35195559021E+01 -0.66108978268E+01  0.71591328607E-02  0.74894122158E+01  0.51100000000E-03 0. -1.
        -11    1    4    4    0    0 -0.31400861707E+02 -0.19677887706E+02  0.72511404595E+01  0.37759931392E+02  0.51100000000E-03 0.  1.
        -12    1    4    4    0    0  0.22025350940E+01 -0.12546219628E+01  0.12577038976E+00  0.25379234229E+01  0.00000000000E+00 0.  1.
</event>
<event>
 8    1  0.5542925E-011  0.9118800E+02  0.7816164E-02  0.1184000E+00
        -11   -1    0    0    0    0  0.00000000000E+00  0.00000000000E+00  0.45593999997E+02  0.45594000000E+02  0.51100000000E-03 0. -1.
         11   -1    0    0    0    0 -0.00000000000E+00 -0.00000000000E+00 -0.45593999997E+02  0.45594000000E+02  0.51100000000E-03 0.  1.
         23    2    1    2    0    0  0.00000000000E+00 -0.17763568394E-14  0.00000000000E+00  0.91188000000E+02  0.91188000000E+02 0.  0.
    9900012    2    3    3    0    0  0.28233116952E+02 -0.12963461513E+02 -0.30306169175E+02  0.47787261329E+02  0.19999955701E+02 0.  0.
         12    1    3    3    0    0 -0.28233116952E+02  0.12963461513E+02  0.30306169175E+02  0.43400738671E+02  0.00000000000E+00 0. -1.
         11    1    4    4    0    0 -0.68407499890E+00 -0.23782407330E+01  0.65467017692E+00  0.25598009473E+01  0.51100000000E-03 0. -1.
        -11    1    4    4    0    0  0.16318422715E+02 -0.11660883071E+02 -0.16130055144E+02  0.25738022323E+02  0.51100000000E-03 0.  1.
         12    1    4    4    0    0  0.12598769236E+02  0.10756622910E+01 -0.14830784207E+02  0.19489438058E+02  0.00000000000E+00 0. -1.
</event>
<event>
 8    1  0.5542925E-011  0.9118800E+02  0.7816164E-02  0.1184000E+00
        -11   -1    0    0    0    0  0.00000000000E+00  0.00000000000E+00  0.45593999997E+02  0.45594000000E+02  0.51100000000E-03 0. -1.
         11   -1    0    0    0    0 -0.00000000000E+00 -0.00000000000E+00 -0.45593999997E+02  0.45594000000E+02  0.51100000000E-03 0.  1.
         23    2    1    2    0    0  0.00000000000E+00  0.00000000000E+00  0.00000000000E+00  0.91188000000E+02  0.91188000000E+02 0.  0.
    9900012    2    3    3    0    0  0.14063800988E+02 -0.20511444967E+02 -0.35568432569E+02  0.47787271109E+02  0.20000000294E+02 0.  0.
         12    1    3    3    0    0 -0.14063800988E+02  0.20511444967E+02  0.35568432569E+02  0.43400728891E+02  0.00000000000E+00 0. -1.
         11    1    4    4    0    0  0.46420086236E+01  0.30899839318E+01 -0.69519728382E+01  0.89121361841E+01  0.51100000000E-03 0. -1.
        -11    1    4    4    0    0  0.43789044527E+01 -0.56670717207E+01 -0.47303883086E+01  0.85829528663E+01  0.51100000000E-03 0.  1.
         12    1    4    4    0    0  0.50428879120E+01 -0.17934357179E+02 -0.23886071422E+02  0.30292182058E+02  0.00000000000E+00 0. -1.
</event>
<event>
 8    1  0.5542925E-011  0.9118800E+02  0.7816164E-02  0.1184000E+00
        -11   -1    0    0    0    0  0.00000000000E+00  0.00000000000E+00  0.45593999997E+02  0.45594000000E+02  0.51100000000E-03 0. -1.
         11   -1    0    0    0    0 -0.00000000000E+00 -0.00000000000E+00 -0.45593999997E+02  0.45594000000E+02  0.51100000000E-03 0.  1.
         23    2    1    2    0    0 -0.88817841970E-15  0.00000000000E+00  0.00000000000E+00  0.91188000000E+02  0.91188000000E+02 0.  0.
    9900012    2    3    3    0    0 -0.64838655241E+01  0.82218054189E+01 -0.42118699226E+02  0.47787269349E+02  0.19999992272E+02 0.  0.
         12    1    3    3    0    0  0.64838655241E+01 -0.82218054189E+01  0.42118699226E+02  0.43400730651E+02  0.00000000000E+00 0. -1.
         11    1    4    4    0    0  0.12101426308E+00  0.71644350650E+01 -0.14024260782E+02  0.15748767095E+02  0.51100000000E-03 0. -1.
        -11    1    4    4    0    0  0.31927546625E+01  0.37742309421E+01 -0.12279521885E+02  0.13237264050E+02  0.51100000000E-03 0.  1.
        -12    1    4    4    0    0 -0.97976344497E+01 -0.27168605882E+01 -0.15814916559E+02  0.18801238205E+02  0.00000000000E+00 0.  1.
</event>
<event>
 8    1  0.5542925E-011  0.9118800E+02  0.7816164E-02  0.1184000E+00
        -11   -1    0    0    0    0  0.00000000000E+00  0.00000000000E+00  0.45593999997E+02  0.45594000000E+02  0.51100000000E-03 0.  1.
         11   -1    0    0    0    0 -0.00000000000E+00 -0.00000000000E+00 -0.45593999997E+02  0.45594000000E+02  0.51100000000E-03 0. -1.
         23    2    1    2    0    0  0.00000000000E+00 -0.44408920985E-15  0.88817841970E-15  0.91188000000E+02  0.91188000000E+02 0.  0.
    9900012    2    3    3    0    0 -0.43026588409E+02  0.10710982676E+01  0.55847976629E+01  0.47787256613E+02  0.19999934201E+02 0.  0.
        -12    1    3    3    0    0  0.43026588409E+02 -0.10710982676E+01 -0.55847976629E+01  0.43400743387E+02  0.00000000000E+00 0.  1.
         11    1    4    4    0    0 -0.15902094520E+02 -0.45261935327E+01  0.45785671642E+01  0.17155941116E+02  0.51100000000E-03 0. -1.
        -11    1    4    4    0    0 -0.19002535430E+02 -0.23107579319E+01 -0.76520471316E+00  0.19157805028E+02  0.51100000000E-03 0.  1.
        -12    1    4    4    0    0 -0.81219584588E+01  0.79080497323E+01  0.17714352119E+01  0.11473510469E+02  0.00000000000E+00 0.  1.
</event>
<event>
 8    1  0.5542925E-011  0.9118800E+02  0.7816164E-02  0.1184000E+00
        -11   -1    0    0    0    0  0.00000000000E+00  0.00000000000E+00  0.45593999997E+02  0.45594000000E+02  0.51100000000E-03 0.  1.
         11   -1    0    0    0    0 -0.00000000000E+00 -0.00000000000E+00 -0.45593999997E+02  0.45594000000E+02  0.51100000000E-03 0. -1.
         23    2    1    2    0    0  0.00000000000E+00  0.71054273576E-14  0.35527136788E-14  0.91188000000E+02  0.91188000000E+02 0.  0.
    9900012    2    3    3    0    0  0.16664628714E+02 -0.37773981621E+02  0.13380512494E+02  0.47787289726E+02  0.20000085178E+02 0.  0.
        -12    1    3    3    0    0 -0.16664628714E+02  0.37773981621E+02 -0.13380512494E+02  0.43400710274E+02  0.00000000000E+00 0.  1.
         11    1    4    4    0    0  0.56796009730E+01 -0.10637234063E+02 -0.20073856061E+01  0.12224492339E+02  0.51100000000E-03 0. -1.
        -11    1    4    4    0    0 -0.25887663151E+01 -0.17615357186E+01  0.52936114565E+00  0.31756798651E+01  0.51100000000E-03 0.  1.
        -12    1    4    4    0    0  0.13573794056E+02 -0.25375211839E+02  0.14858536955E+02  0.32387117522E+02  0.00000000000E+00 0.  1.
</event>
<event>
 8    1  0.5542925E-011  0.9118800E+02  0.7816164E-02  0.1184000E+00
        -11   -1    0    0    0    0  0.00000000000E+00  0.00000000000E+00  0.45593999997E+02  0.45594000000E+02  0.51100000000E-03 0. -1.
         11   -1    0    0    0    0 -0.00000000000E+00 -0.00000000000E+00 -0.45593999997E+02  0.45594000000E+02  0.51100000000E-03 0.  1.
         23    2    1    2    0    0  0.35527136788E-14  0.00000000000E+00  0.00000000000E+00  0.91188000000E+02  0.91188000000E+02 0.  0.
    9900012    2    3    3    0    0 -0.30657925595E+02 -0.29603952425E+02  0.82049505029E+01  0.47787267129E+02  0.19999982150E+02 0.  0.
         12    1    3    3    0    0  0.30657925595E+02  0.29603952425E+02 -0.82049505029E+01  0.43400732871E+02  0.00000000000E+00 0. -1.
         11    1    4    4    0    0 -0.10393991645E+02 -0.16806267431E+02  0.89920624456E+01  0.21710432390E+02  0.51100000000E-03 0. -1.
        -11    1    4    4    0    0 -0.26125725007E+01 -0.52931835726E+01  0.28496655501E+01  0.65546869806E+01  0.51100000000E-03 0.  1.
        -12    1    4    4    0    0 -0.17651361449E+02 -0.75045014218E+01 -0.36367774929E+01  0.19522147759E+02  0.00000000000E+00 0.  1.
</event>
<event>
 8    1  0.5542925E-011  0.9118800E+02  0.7816164E-02  0.1184000E+00
        -11   -1    0    0    0    0  0.00000000000E+00  0.00000000000E+00  0.45593999997E+02  0.45594000000E+02  0.51100000000E-03 0. -1.
         11   -1    0    0    0    0 -0.00000000000E+00 -0.00000000000E+00 -0.45593999997E+02  0.45594000000E+02  0.51100000000E-03 0.  1.
         23    2    1    2    0    0  0.71054273576E-14  0.20816681712E-16  0.00000000000E+00  0.91188000000E+02  0.91188000000E+02 0.  0.
    9900012    2    3    3    0    0  0.32183538121E+02 -0.50824372740E-01 -0.29117697212E+02  0.47787274199E+02  0.20000014384E+02 0.  0.
         12    1    3    3    0    0 -0.32183538121E+02  0.50824372740E-01  0.29117697212E+02  0.43400725801E+02  0.00000000000E+00 0. -1.
         11    1    4    4    0    0  0.97446034442E+01  0.28943748776E+01 -0.78481564233E+00  0.10195618572E+02  0.51100000000E-03 0.  1.
        -11    1    4    4    0    0  0.94256558356E+01 -0.11768358434E+01 -0.48011003536E+01  0.10643237073E+02  0.51100000000E-03 0. -1.
        -12    1    4    4    0    0  0.13013278841E+02 -0.17683634070E+01 -0.23531781216E+02  0.26948418554E+02  0.00000000000E+00 0.  1.
</event>
<event>
 8    1  0.5542925E-011  0.9118800E+02  0.7816164E-02  0.1184000E+00
        -11   -1    0    0    0    0  0.00000000000E+00  0.00000000000E+00  0.45593999997E+02  0.45594000000E+02  0.51100000000E-03 0. -1.
         11   -1    0    0    0    0 -0.00000000000E+00 -0.00000000000E+00 -0.45593999997E+02  0.45594000000E+02  0.51100000000E-03 0.  1.
         23    2    1    2    0    0  0.88817841970E-15  0.00000000000E+00  0.00000000000E+00  0.91188000000E+02  0.91188000000E+02 0.  0.
    9900012    2    3    3    0    0 -0.61157347111E+01  0.36233115852E+02  0.23095069067E+02  0.47787272925E+02  0.20000008575E+02 0.  0.
        -12    1    3    3    0    0  0.61157347111E+01 -0.36233115852E+02 -0.23095069067E+02  0.43400727075E+02  0.00000000000E+00 0.  1.
         11    1    4    4    0    0 -0.75574588253E+01  0.14700416933E+02  0.85291250539E+01  0.18600091837E+02  0.51100000000E-03 0. -1.
        -11    1    4    4    0    0 -0.43962705219E+01  0.90280182826E+01  0.14451168822E+01  0.10144982586E+02  0.51100000000E-03 0.  1.
        -12    1    4    4    0    0  0.58379946361E+01  0.12504680637E+02  0.13120827131E+02  0.19042198502E+02  0.00000000000E+00 0.  1.
</event>
<event>
 8    1  0.5542925E-011  0.9118800E+02  0.7816164E-02  0.1184000E+00
        -11   -1    0    0    0    0  0.00000000000E+00  0.00000000000E+00  0.45593999997E+02  0.45594000000E+02  0.51100000000E-03 0. -1.
         11   -1    0    0    0    0 -0.00000000000E+00 -0.00000000000E+00 -0.45593999997E+02  0.45594000000E+02  0.51100000000E-03 0.  1.
         23    2    1    2    0    0  0.17763568394E-14 -0.17763568394E-14  0.00000000000E+00  0.91188000000E+02  0.91188000000E+02 0.  0.
    9900012    2    3    3    0    0  0.13631188937E+02  0.15024206298E+02 -0.38367784910E+02  0.47787274135E+02  0.20000014092E+02 0.  0.
         12    1    3    3    0    0 -0.13631188937E+02 -0.15024206298E+02  0.38367784910E+02  0.43400725865E+02  0.00000000000E+00 0. -1.
         11    1    4    4    0    0  0.55514576437E+01  0.26050308776E+01 -0.15238029075E+02  0.16425662793E+02  0.51100000000E-03 0. -1.
        -11    1    4    4    0    0  0.10247642877E+02  0.48091614244E+01 -0.67731972571E+01  0.13191604128E+02  0.51100000000E-03 0.  1.
         12    1    4    4    0    0 -0.21679115834E+01  0.76100139955E+01 -0.16356558578E+02  0.18170007214E+02  0.00000000000E+00 0. -1.
</event>
<event>
 8    1  0.5542925E-011  0.9118800E+02  0.7816164E-02  0.1184000E+00
        -11   -1    0    0    0    0  0.00000000000E+00  0.00000000000E+00  0.45593999997E+02  0.45594000000E+02  0.51100000000E-03 0. -1.
         11   -1    0    0    0    0 -0.00000000000E+00 -0.00000000000E+00 -0.45593999997E+02  0.45594000000E+02  0.51100000000E-03 0.  1.
         23    2    1    2    0    0  0.00000000000E+00  0.00000000000E+00  0.00000000000E+00  0.91188000000E+02  0.91188000000E+02 0.  0.
    9900012    2    3    3    0    0  0.39462284030E+01  0.27823495828E+01  0.43131298787E+02  0.47787272785E+02  0.20000007934E+02 0.  0.
        -12    1    3    3    0    0 -0.39462284030E+01 -0.27823495828E+01 -0.43131298787E+02  0.43400727215E+02  0.00000000000E+00 0.  1.
         11    1    4    4    0    0  0.69255974154E+01 -0.32524872328E-01  0.21885906484E+02  0.22955562732E+02  0.51100000000E-03 0. -1.
        -11    1    4    4    0    0  0.46940564734E+01  0.15141307237E+01  0.65123555932E+01  0.81693043558E+01  0.51100000000E-03 0.  1.
        -12    1    4    4    0    0 -0.76734254859E+01  0.13007437315E+01  0.14733036709E+02  0.16662405697E+02  0.00000000000E+00 0.  1.
</event>
<event>
 8    1  0.5542925E-011  0.9118800E+02  0.7816164E-02  0.1184000E+00
        -11   -1    0    0    0    0  0.00000000000E+00  0.00000000000E+00  0.45593999997E+02  0.45594000000E+02  0.51100000000E-03 0. -1.
         11   -1    0    0    0    0 -0.00000000000E+00 -0.00000000000E+00 -0.45593999997E+02  0.45594000000E+02  0.51100000000E-03 0.  1.
         23    2    1    2    0    0 -0.35527136788E-14  0.00000000000E+00  0.00000000000E+00  0.91188000000E+02  0.91188000000E+02 0.  0.
    9900012    2    3    3    0    0 -0.25348811077E+02 -0.22992375174E+02 -0.26691028259E+02  0.47787279629E+02  0.20000039142E+02 0.  0.
         12    1    3    3    0    0  0.25348811077E+02  0.22992375174E+02  0.26691028259E+02  0.43400720371E+02  0.00000000000E+00 0. -1.
         11    1    4    4    0    0 -0.10230998582E+02 -0.90024236604E+01 -0.44327929840E+01  0.14330618188E+02  0.51100000000E-03 0. -1.
        -11    1    4    4    0    0 -0.72032559733E+01  0.14178151643E+01 -0.43098424486E+01  0.85130393309E+01  0.51100000000E-03 0.  1.
        -12    1    4    4    0    0 -0.79145565216E+01 -0.15407766678E+02 -0.17948392827E+02  0.24943622110E+02  0.00000000000E+00 0.  1.
</event>
<event>
 8    1  0.5542925E-011  0.9118800E+02  0.7816164E-02  0.1184000E+00
        -11   -1    0    0    0    0  0.00000000000E+00  0.00000000000E+00  0.45593999997E+02  0.45594000000E+02  0.51100000000E-03 0. -1.
         11   -1    0    0    0    0 -0.00000000000E+00 -0.00000000000E+00 -0.45593999997E+02  0.45594000000E+02  0.51100000000E-03 0.  1.
         23    2    1    2    0    0 -0.35527136788E-14  0.00000000000E+00 -0.71054273576E-14  0.91188000000E+02  0.91188000000E+02 0.  0.
    9900012    2    3    3    0    0  0.15304162464E+02 -0.30754265757E+01  0.40496274800E+02  0.47787263716E+02  0.19999966588E+02 0.  0.
        -12    1    3    3    0    0 -0.15304162464E+02  0.30754265757E+01 -0.40496274800E+02  0.43400736284E+02  0.00000000000E+00 0.  1.
         11    1    4    4    0    0  0.44408544136E+01 -0.35606638041E+01  0.82075699064E+01  0.99881789470E+01  0.51100000000E-03 0. -1.
        -11    1    4    4    0    0  0.78949185116E+01 -0.68032722233E+01  0.11244190564E+02  0.15331212377E+02  0.51100000000E-03 0.  1.
        -12    1    4    4    0    0  0.29683895384E+01  0.72885094518E+01  0.21044514329E+02  0.22467872392E+02  0.00000000000E+00 0.  1.
</event>
<event>
 8    1  0.5542925E-011  0.9118800E+02  0.7816164E-02  0.1184000E+00
        -11   -1    0    0    0    0  0.00000000000E+00  0.00000000000E+00  0.45593999997E+02  0.45594000000E+02  0.51100000000E-03 0. -1.
         11   -1    0    0    0    0 -0.00000000000E+00 -0.00000000000E+00 -0.45593999997E+02  0.45594000000E+02  0.51100000000E-03 0.  1.
         23    2    1    2    0    0  0.00000000000E+00  0.35527136788E-14  0.00000000000E+00  0.91188000000E+02  0.91188000000E+02 0.  0.
    9900012    2    3    3    0    0  0.14386281273E+02  0.31537747998E+02 -0.26115678874E+02  0.47787270505E+02  0.19999997542E+02 0.  0.
         12    1    3    3    0    0 -0.14386281273E+02 -0.31537747998E+02  0.26115678874E+02  0.43400729495E+02  0.00000000000E+00 0. -1.
         11    1    4    4    0    0 -0.20782339167E+01  0.18651670046E+01  0.10843283173E+01  0.29956088410E+01  0.51100000000E-03 0. -1.
        -11    1    4    4    0    0 -0.14583405518E+01  0.36008502703E+01 -0.21708375317E+01  0.44503275930E+01  0.51100000000E-03 0.  1.
        -12    1    4    4    0    0  0.17922855742E+02  0.26071730723E+02 -0.25029169659E+02  0.40341334071E+02  0.00000000000E+00 0.  1.
</event>
<event>
 8    1  0.5542925E-011  0.9118800E+02  0.7816164E-02  0.1184000E+00
        -11   -1    0    0    0    0  0.00000000000E+00  0.00000000000E+00  0.45593999997E+02  0.45594000000E+02  0.51100000000E-03 0. -1.
         11   -1    0    0    0    0 -0.00000000000E+00 -0.00000000000E+00 -0.45593999997E+02  0.45594000000E+02  0.51100000000E-03 0.  1.
         23    2    1    2    0    0  0.00000000000E+00  0.00000000000E+00  0.00000000000E+00  0.91188000000E+02  0.91188000000E+02 0.  0.
    9900012    2    3    3    0    0 -0.17089964216E+02  0.57105859131E+01 -0.39483482337E+02  0.47787273672E+02  0.20000011979E+02 0.  0.
         12    1    3    3    0    0  0.17089964216E+02 -0.57105859131E+01  0.39483482337E+02  0.43400726328E+02  0.00000000000E+00 0. -1.
         11    1    4    4    0    0 -0.16116940330E+01  0.63047816568E+00 -0.42518163723E+01  0.45905340755E+01  0.51100000000E-03 0. -1.
        -11    1    4    4    0    0 -0.16039514511E+02 -0.33578650406E+01 -0.20931894742E+02  0.26583556969E+02  0.51100000000E-03 0.  1.
         12    1    4    4    0    0  0.56124432867E+00  0.84379727880E+01 -0.14299771223E+02  0.16613182627E+02  0.00000000000E+00 0. -1.
</event>
<event>
 8    1 -0.5542925E-011  0.9118800E+02  0.7816164E-02  0.1184000E+00
        -11   -1    0    0    0    0  0.00000000000E+00  0.00000000000E+00  0.45593999997E+02  0.45594000000E+02  0.51100000000E-03 0. -1.
         11   -1    0    0    0    0 -0.00000000000E+00 -0.00000000000E+00 -0.45593999997E+02  0.45594000000E+02  0.51100000000E-03 0.  1.
         23    2    1    2    0    0  0.00000000000E+00  0.35527136788E-14 -0.71054273576E-14  0.91188000000E+02  0.91188000000E+02 0.  0.
    9900012    2    3    3    0    0  0.36690258211E+01 -0.22969558198E+02  0.36640972432E+02  0.47787271722E+02  0.20000003088E+02 0.  0.
        -12    1    3    3    0    0 -0.36690258211E+01  0.22969558198E+02 -0.36640972432E+02  0.43400728278E+02  0.00000000000E+00 0.  1.
         11    1    4    4    0    0 -0.28016901431E+01 -0.82341332726E+01  0.15012498918E+02  0.17350087678E+02  0.51100000000E-03 0. -1.
        -11    1    4    4    0    0  0.38189738478E+01 -0.14603772666E+02  0.90896280752E+01  0.17620331329E+02  0.51100000000E-03 0.  1.
        -12    1    4    4    0    0  0.26517421164E+01 -0.13165225917E+00  0.12538845439E+02  0.12816852715E+02  0.00000000000E+00 0.  1.
</event>
<event>
 8    1  0.5542925E-011  0.9118800E+02  0.7816164E-02  0.1184000E+00
        -11   -1    0    0    0    0  0.00000000000E+00  0.00000000000E+00  0.45593999997E+02  0.45594000000E+02  0.51100000000E-03 0. -1.
         11   -1    0    0    0    0 -0.00000000000E+00 -0.00000000000E+00 -0.45593999997E+02  0.45594000000E+02  0.51100000000E-03 0.  1.
         23    2    1    2    0    0 -0.66613381478E-15  0.00000000000E+00  0.00000000000E+00  0.91188000000E+02  0.91188000000E+02 0.  0.
    9900012    2    3    3    0    0 -0.16131388014E+01 -0.36506101718E+02  0.23416332451E+02  0.47787282207E+02  0.20000050895E+02 0.  0.
        -12    1    3    3    0    0  0.16131388014E+01  0.36506101718E+02 -0.23416332451E+02  0.43400717793E+02  0.00000000000E+00 0.  1.
         11    1    4    4    0    0 -0.41970853056E+00 -0.16174971518E+02  0.36565911663E+01  0.16588445318E+02  0.51100000000E-03 0. -1.
        -11    1    4    4    0    0  0.25769043170E+01 -0.90477706326E+00 -0.61110418512E+00  0.27986614621E+01  0.51100000000E-03 0.  1.
         12    1    4    4    0    0 -0.37703345879E+01 -0.19426353137E+02  0.20370845470E+02  0.28400175427E+02  0.00000000000E+00 0. -1.
</event>
<event>
 8    1  0.5542925E-011  0.9118800E+02  0.7816164E-02  0.1184000E+00
        -11   -1    0    0    0    0  0.00000000000E+00  0.00000000000E+00  0.45593999997E+02  0.45594000000E+02  0.51100000000E-03 0. -1.
         11   -1    0    0    0    0 -0.00000000000E+00 -0.00000000000E+00 -0.45593999997E+02  0.45594000000E+02  0.51100000000E-03 0.  1.
         23    2    1    2    0    0  0.00000000000E+00  0.88817841970E-15  0.00000000000E+00  0.91188000000E+02  0.91188000000E+02 0.  0.
    9900012    2    3    3    0    0 -0.25437884801E+02 -0.59491957415E+01  0.34657529149E+02  0.47787271436E+02  0.20000001787E+02 0.  0.
        -12    1    3    3    0    0  0.25437884801E+02  0.59491957415E+01 -0.34657529149E+02  0.43400728564E+02  0.00000000000E+00 0.  1.
         11    1    4    4    0    0  0.20471786426E+00  0.34649584044E+01  0.46009115524E+01  0.57633526287E+01  0.51100000000E-03 0. -1.
        -11    1    4    4    0    0 -0.65862318469E+01 -0.14420847942E+01  0.15051243829E+02  0.16492361855E+02  0.51100000000E-03 0.  1.
        -12    1    4    4    0    0 -0.19056370818E+02 -0.79720693517E+01  0.15005373768E+02  0.25531556952E+02  0.00000000000E+00 0.  1.
</event>
<event>
 8    1  0.5542925E-011  0.9118800E+02  0.7816164E-02  0.1184000E+00
        -11   -1    0    0    0    0  0.00000000000E+00  0.00000000000E+00  0.45593999997E+02  0.45594000000E+02  0.51100000000E-03 0. -1.
         11   -1    0    0    0    0 -0.00000000000E+00 -0.00000000000E+00 -0.45593999997E+02  0.45594000000E+02  0.51100000000E-03 0.  1.
         23    2    1    2    0    0  0.00000000000E+00  0.00000000000E+00  0.00000000000E+00  0.91188000000E+02  0.91188000000E+02 0.  0.
    9900012    2    3    3    0    0  0.26012005895E+02  0.15405373939E+02 -0.31139578534E+02  0.47787270189E+02  0.19999996098E+02 0.  0.
         12    1    3    3    0    0 -0.26012005895E+02 -0.15405373939E+02  0.31139578534E+02  0.43400729811E+02  0.00000000000E+00 0. -1.
         11    1    4    4    0    0  0.73166403845E+01  0.14979560638E+02 -0.16242863330E+02  0.23275546671E+02  0.51100000000E-03 0. -1.
        -11    1    4    4    0    0  0.10314409337E+00  0.82018761048E+00 -0.33289989696E+00  0.89116161436E+00  0.51100000000E-03 0.  1.
        -12    1    4    4    0    0  0.18592221417E+02 -0.39437430956E+00 -0.14563815307E+02  0.23620561903E+02  0.00000000000E+00 0.  1.
</event>
<event>
 8    1  0.5542925E-011  0.9118800E+02  0.7816164E-02  0.1184000E+00
        -11   -1    0    0    0    0  0.00000000000E+00  0.00000000000E+00  0.45593999997E+02  0.45594000000E+02  0.51100000000E-03 0. -1.
         11   -1    0    0    0    0 -0.00000000000E+00 -0.00000000000E+00 -0.45593999997E+02  0.45594000000E+02  0.51100000000E-03 0.  1.
         23    2    1    2    0    0  0.00000000000E+00  0.00000000000E+00  0.00000000000E+00  0.91188000000E+02  0.91188000000E+02 0.  0.
    9900012    2    3    3    0    0 -0.66103155148E+01  0.86707089114E+01 -0.42008858892E+02  0.47787289296E+02  0.20000083215E+02 0.  0.
         12    1    3    3    0    0  0.66103155148E+01 -0.86707089114E+01  0.42008858892E+02  0.43400710704E+02  0.00000000000E+00 0. -1.
         11    1    4    4    0    0 -0.73144453935E+01  0.36894677196E+01 -0.19084010829E+02  0.20768070518E+02  0.51100000000E-03 0.  1.
        -11    1    4    4    0    0 -0.58609677498E+01 -0.26506861883E+00 -0.10282310113E+02  0.11838374291E+02  0.51100000000E-03 0. -1.
        -12    1    4    4    0    0  0.65650976286E+01  0.52463098106E+01 -0.12642537950E+02  0.15180844487E+02  0.00000000000E+00 0.  1.
</event>
<event>
 8    1  0.5542925E-011  0.9118800E+02  0.7816164E-02  0.1184000E+00
        -11   -1    0    0    0    0  0.00000000000E+00  0.00000000000E+00  0.45593999997E+02  0.45594000000E+02  0.51100000000E-03 0. -1.
         11   -1    0    0    0    0 -0.00000000000E+00 -0.00000000000E+00 -0.45593999997E+02  0.45594000000E+02  0.51100000000E-03 0.  1.
         23    2    1    2    0    0  0.00000000000E+00  0.00000000000E+00  0.71054273576E-14  0.91188000000E+02  0.91188000000E+02 0.  0.
    9900012    2    3    3    0    0  0.47935079506E+01  0.67083056910E+01  0.42610392714E+02  0.47787255180E+02  0.19999927666E+02 0.  0.
        -12    1    3    3    0    0 -0.47935079506E+01 -0.67083056910E+01 -0.42610392714E+02  0.43400744820E+02  0.00000000000E+00 0.  1.
         11    1    4    4    0    0  0.24367269073E+01 -0.55714012682E+01  0.14831086309E+02  0.16029325359E+02  0.51100000000E-03 0. -1.
        -11    1    4    4    0    0 -0.11930741371E+01  0.42333469087E+01  0.18325536668E+02  0.18845953050E+02  0.51100000000E-03 0.  1.
        -12    1    4    4    0    0  0.35498551804E+01  0.80463600505E+01  0.94537697371E+01  0.12911976770E+02  0.00000000000E+00 0.  1.
</event>
<event>
 8    1  0.5542925E-011  0.9118800E+02  0.7816164E-02  0.1184000E+00
        -11   -1    0    0    0    0  0.00000000000E+00  0.00000000000E+00  0.45593999997E+02  0.45594000000E+02  0.51100000000E-03 0. -1.
         11   -1    0    0    0    0 -0.00000000000E+00 -0.00000000000E+00 -0.45593999997E+02  0.45594000000E+02  0.51100000000E-03 0.  1.
         23    2    1    2    0    0 -0.35527136788E-14  0.00000000000E+00  0.00000000000E+00  0.91188000000E+02  0.91188000000E+02 0.  0.
    9900012    2    3    3    0    0  0.21226438888E+02  0.20675079523E+02 -0.31711238053E+02  0.47787271435E+02  0.20000001781E+02 0.  0.
         12    1    3    3    0    0 -0.21226438888E+02 -0.20675079523E+02  0.31711238053E+02  0.43400728565E+02  0.00000000000E+00 0. -1.
         11    1    4    4    0    0  0.67386247081E+01  0.11495209489E+02 -0.82025509790E+01  0.15647068319E+02  0.51100000000E-03 0. -1.
        -11    1    4    4    0    0  0.55469761675E+01  0.22840796160E+00 -0.12476228716E+00  0.55530784876E+01  0.51100000000E-03 0.  1.
        -12    1    4    4    0    0  0.89408380120E+01  0.89514620729E+01 -0.23383924787E+02  0.26587124629E+02  0.00000000000E+00 0.  1.
</event>
<event>
 8    1  0.5542925E-011  0.9118800E+02  0.7816164E-02  0.1184000E+00
        -11   -1    0    0    0    0  0.00000000000E+00  0.00000000000E+00  0.45593999997E+02  0.45594000000E+02  0.51100000000E-03 0. -1.
         11   -1    0    0    0    0 -0.00000000000E+00 -0.00000000000E+00 -0.45593999997E+02  0.45594000000E+02  0.51100000000E-03 0.  1.
         23    2    1    2    0    0  0.22204460493E-15  0.17763568394E-14 -0.71054273576E-14  0.91188000000E+02  0.91188000000E+02 0.  0.
    9900012    2    3    3    0    0 -0.77747948266E+00 -0.13684946294E+02  0.41179388080E+02  0.47787260006E+02  0.19999949670E+02 0.  0.
        -12    1    3    3    0    0  0.77747948266E+00  0.13684946294E+02 -0.41179388080E+02  0.43400739994E+02  0.00000000000E+00 0.  1.
         11    1    4    4    0    0 -0.30882188955E+01 -0.11767827554E+02  0.38562698806E+02  0.40436377196E+02  0.51100000000E-03 0. -1.
        -11    1    4    4    0    0  0.25629328320E+01 -0.25085997024E+01  0.42704022426E+01  0.55765610140E+01  0.51100000000E-03 0.  1.
        -12    1    4    4    0    0 -0.25219341911E+00  0.59148096315E+00 -0.16537129688E+01  0.17743217954E+01  0.00000000000E+00 0.  1.
</event>
<event>
 8    1  0.5542925E-011  0.9118800E+02  0.7816164E-02  0.1184000E+00
        -11   -1    0    0    0    0  0.00000000000E+00  0.00000000000E+00  0.45593999997E+02  0.45594000000E+02  0.51100000000E-03 0. -1.
         11   -1    0    0    0    0 -0.00000000000E+00 -0.00000000000E+00 -0.45593999997E+02  0.45594000000E+02  0.51100000000E-03 0.  1.
         23    2    1    2    0    0 -0.88817841970E-15  0.00000000000E+00  0.71054273576E-14  0.91188000000E+02  0.91188000000E+02 0.  0.
    9900012    2    3    3    0    0 -0.70263182042E+01  0.16017619504E+02  0.39720151575E+02  0.47787265867E+02  0.19999976396E+02 0.  0.
        -12    1    3    3    0    0  0.70263182042E+01 -0.16017619504E+02 -0.39720151575E+02  0.43400734133E+02  0.00000000000E+00 0.  1.
         11    1    4    4    0    0 -0.57489919542E+01  0.36020028411E+01  0.46110940557E+01  0.82028971472E+01  0.51100000000E-03 0. -1.
        -11    1    4    4    0    0  0.42299365109E+01  0.10455289853E+02  0.15818814627E+02  0.19427823997E+02  0.51100000000E-03 0.  1.
         12    1    4    4    0    0 -0.55072627609E+01  0.19603268098E+01  0.19290242893E+02  0.20156544723E+02  0.00000000000E+00 0. -1.
</event>
<event>
 8    1  0.5542925E-011  0.9118800E+02  0.7816164E-02  0.1184000E+00
        -11   -1    0    0    0    0  0.00000000000E+00  0.00000000000E+00  0.45593999997E+02  0.45594000000E+02  0.51100000000E-03 0. -1.
         11   -1    0    0    0    0 -0.00000000000E+00 -0.00000000000E+00 -0.45593999997E+02  0.45594000000E+02  0.51100000000E-03 0.  1.
         23    2    1    2    0    0  0.35527136788E-14  0.17763568394E-14  0.71054273576E-14  0.91188000000E+02  0.91188000000E+02 0.  0.
    9900012    2    3    3    0    0 -0.17224134814E+02 -0.11850958154E+02 -0.38032972466E+02  0.47787273925E+02  0.20000013133E+02 0.  0.
         12    1    3    3    0    0  0.17224134814E+02  0.11850958154E+02  0.38032972466E+02  0.43400726075E+02  0.00000000000E+00 0. -1.
         11    1    4    4    0    0  0.20563562775E+01 -0.21845954779E+01  0.87344054570E+00  0.31247331390E+01  0.51100000000E-03 0. -1.
        -11    1    4    4    0    0 -0.25993470278E+01 -0.29042532934E+01 -0.59961429371E+01  0.71515748298E+01  0.51100000000E-03 0.  1.
         12    1    4    4    0    0 -0.16681144064E+02 -0.67621093826E+01 -0.32910270074E+02  0.37510965956E+02  0.00000000000E+00 0. -1.
</event>
<event>
 8    1  0.5542925E-011  0.9118800E+02  0.7816164E-02  0.1184000E+00
        -11   -1    0    0    0    0  0.00000000000E+00  0.00000000000E+00  0.45593999997E+02  0.45594000000E+02  0.51100000000E-03 0. -1.
         11   -1    0    0    0    0 -0.00000000000E+00 -0.00000000000E+00 -0.45593999997E+02  0.45594000000E+02  0.51100000000E-03 0.  1.
         23    2    1    2    0    0  0.00000000000E+00  0.00000000000E+00  0.00000000000E+00  0.91188000000E+02  0.91188000000E+02 0.  0.
    9900012    2    3    3    0    0 -0.16736996983E+02 -0.38608818363E+02 -0.10623330846E+02  0.47787273259E+02  0.20000010095E+02 0.  0.
         12    1    3    3    0    0  0.16736996983E+02  0.38608818363E+02  0.10623330846E+02  0.43400726741E+02  0.00000000000E+00 0. -1.
         11    1    4    4    0    0  0.10800368398E+01 -0.34338514222E+01 -0.16765724077E+01  0.39709835639E+01  0.51100000000E-03 0. -1.
        -11    1    4    4    0    0 -0.11487282003E+02 -0.26917863145E+02 -0.13775229842E+02  0.32346343867E+02  0.51100000000E-03 0.  1.
         12    1    4    4    0    0 -0.63297518198E+01 -0.82571037959E+01  0.48284714033E+01  0.11469945828E+02  0.00000000000E+00 0. -1.
</event>
<event>
 8    1  0.5542925E-011  0.9118800E+02  0.7816164E-02  0.1184000E+00
        -11   -1    0    0    0    0  0.00000000000E+00  0.00000000000E+00  0.45593999997E+02  0.45594000000E+02  0.51100000000E-03 0. -1.
         11   -1    0    0    0    0 -0.00000000000E+00 -0.00000000000E+00 -0.45593999997E+02  0.45594000000E+02  0.51100000000E-03 0.  1.
         23    2    1    2    0    0  0.17763568394E-14  0.00000000000E+00  0.71054273576E-14  0.91188000000E+02  0.91188000000E+02 0.  0.
    9900012    2    3    3    0    0 -0.12622157387E+02  0.10329806996E+02 -0.40219394193E+02  0.47787269143E+02  0.19999991329E+02 0.  0.
         12    1    3    3    0    0  0.12622157387E+02 -0.10329806996E+02  0.40219394193E+02  0.43400730857E+02  0.00000000000E+00 0. -1.
         11    1    4    4    0    0 -0.50607791913E+01 -0.42264900127E+01 -0.13681579752E+02  0.15187505674E+02  0.51100000000E-03 0. -1.
        -11    1    4    4    0    0 -0.71506570051E+01  0.48404498604E+01 -0.16506184927E+02  0.18628365242E+02  0.51100000000E-03 0.  1.
        -12    1    4    4    0    0 -0.41072119083E+00  0.97158471479E+01 -0.10031629514E+02  0.13971398227E+02  0.00000000000E+00 0.  1.
</event>
<event>
 8    1  0.5542925E-011  0.9118800E+02  0.7816164E-02  0.1184000E+00
        -11   -1    0    0    0    0  0.00000000000E+00  0.00000000000E+00  0.45593999997E+02  0.45594000000E+02  0.51100000000E-03 0. -1.
         11   -1    0    0    0    0 -0.00000000000E+00 -0.00000000000E+00 -0.45593999997E+02  0.45594000000E+02  0.51100000000E-03 0.  1.
         23    2    1    2    0    0  0.00000000000E+00  0.00000000000E+00  0.00000000000E+00  0.91188000000E+02  0.91188000000E+02 0.  0.
    9900012    2    3    3    0    0 -0.26670967097E+02  0.34144530162E+02 -0.25363566573E+01  0.47787279603E+02  0.20000039023E+02 0.  0.
        -12    1    3    3    0    0  0.26670967097E+02 -0.34144530162E+02  0.25363566573E+01  0.43400720397E+02  0.00000000000E+00 0.  1.
         11    1    4    4    0    0 -0.83505354527E+01  0.42381283658E+01  0.16548242078E+01  0.95095540280E+01  0.51100000000E-03 0. -1.
        -11    1    4    4    0    0 -0.12733377401E+02  0.27973544338E+02 -0.73113260159E+01  0.31592935464E+02  0.51100000000E-03 0.  1.
         12    1    4    4    0    0 -0.55870542433E+01  0.19328574581E+01  0.31201451508E+01  0.66847901113E+01  0.00000000000E+00 0. -1.
</event>
<event>
 8    1  0.5542925E-011  0.9118800E+02  0.7816164E-02  0.1184000E+00
        -11   -1    0    0    0    0  0.00000000000E+00  0.00000000000E+00  0.45593999997E+02  0.45594000000E+02  0.51100000000E-03 0. -1.
         11   -1    0    0    0    0 -0.00000000000E+00 -0.00000000000E+00 -0.45593999997E+02  0.45594000000E+02  0.51100000000E-03 0.  1.
         23    2    1    2    0    0  0.00000000000E+00  0.17763568394E-14  0.35527136788E-14  0.91188000000E+02  0.91188000000E+02 0.  0.
    9900012    2    3    3    0    0  0.27115942811E+02  0.14770924874E+02  0.30498670022E+02  0.47787269024E+02  0.19999990787E+02 0.  0.
        -12    1    3    3    0    0 -0.27115942811E+02 -0.14770924874E+02 -0.30498670022E+02  0.43400730976E+02  0.00000000000E+00 0.  1.
         11    1    4    4    0    0  0.16384058282E+01 -0.57750859486E+00  0.50042255232E+01  0.52971844581E+01  0.51100000000E-03 0. -1.
        -11    1    4    4    0    0  0.45169557329E+01  0.64273435971E+01 -0.56678422516E+00  0.78762224085E+01  0.51100000000E-03 0.  1.
        -12    1    4    4    0    0  0.20960581250E+02  0.89210898719E+01  0.26061228724E+02  0.34613862157E+02  0.00000000000E+00 0.  1.
</event>
<event>
 8    1  0.5542925E-011  0.9118800E+02  0.7816164E-02  0.1184000E+00
        -11   -1    0    0    0    0  0.00000000000E+00  0.00000000000E+00  0.45593999997E+02  0.45594000000E+02  0.51100000000E-03 0. -1.
         11   -1    0    0    0    0 -0.00000000000E+00 -0.00000000000E+00 -0.45593999997E+02  0.45594000000E+02  0.51100000000E-03 0.  1.
         23    2    1    2    0    0  0.00000000000E+00  0.00000000000E+00 -0.35527136788E-14  0.91188000000E+02  0.91188000000E+02 0.  0.
    9900012    2    3    3    0    0  0.12980289398E+02  0.32633124225E+02 -0.25499300515E+02  0.47787273782E+02  0.20000012479E+02 0.  0.
         12    1    3    3    0    0 -0.12980289398E+02 -0.32633124225E+02  0.25499300515E+02  0.43400726218E+02  0.00000000000E+00 0. -1.
         11    1    4    4    0    0  0.38915501229E+01 -0.12935332724E+00  0.59556404433E-01  0.38941548337E+01  0.51100000000E-03 0. -1.
        -11    1    4    4    0    0  0.36429668369E+01  0.83541398224E+01 -0.13085569084E+02  0.15946629050E+02  0.51100000000E-03 0.  1.
         12    1    4    4    0    0  0.54457724381E+01  0.24408337730E+02 -0.12473287836E+02  0.27946489898E+02  0.00000000000E+00 0. -1.
</event>
<event>
 8    1  0.5542925E-011  0.9118800E+02  0.7816164E-02  0.1184000E+00
        -11   -1    0    0    0    0  0.00000000000E+00  0.00000000000E+00  0.45593999997E+02  0.45594000000E+02  0.51100000000E-03 0. -1.
         11   -1    0    0    0    0 -0.00000000000E+00 -0.00000000000E+00 -0.45593999997E+02  0.45594000000E+02  0.51100000000E-03 0.  1.
         23    2    1    2    0    0  0.00000000000E+00  0.17763568394E-14  0.00000000000E+00  0.91188000000E+02  0.91188000000E+02 0.  0.
    9900012    2    3    3    0    0 -0.10442837322E+02  0.14831253978E+02  0.39428469302E+02  0.47787272617E+02  0.20000007168E+02 0.  0.
        -12    1    3    3    0    0  0.10442837322E+02 -0.14831253978E+02 -0.39428469302E+02  0.43400727383E+02  0.00000000000E+00 0.  1.
         11    1    4    4    0    0 -0.21408929549E+01 -0.19212562620E+01  0.60378688576E+01  0.66880870861E+01  0.51100000000E-03 0. -1.
        -11    1    4    4    0    0  0.49932379045E+00  0.69100062799E+01  0.23778814931E+02  0.24767509984E+02  0.51100000000E-03 0.  1.
         12    1    4    4    0    0 -0.88012681579E+01  0.98425039603E+01  0.96117855135E+01  0.16331675546E+02  0.00000000000E+00 0. -1.
</event>
<event>
 8    1  0.5542925E-011  0.9118800E+02  0.7816164E-02  0.1184000E+00
        -11   -1    0    0    0    0  0.00000000000E+00  0.00000000000E+00  0.45593999997E+02  0.45594000000E+02  0.51100000000E-03 0. -1.
         11   -1    0    0    0    0 -0.00000000000E+00 -0.00000000000E+00 -0.45593999997E+02  0.45594000000E+02  0.51100000000E-03 0.  1.
         23    2    1    2    0    0 -0.44408920985E-15  0.00000000000E+00 -0.35527136788E-14  0.91188000000E+02  0.91188000000E+02 0.  0.
    9900012    2    3    3    0    0  0.35581172478E+01  0.35480804890E+02 -0.24740159173E+02  0.47787272012E+02  0.20000004412E+02 0.  0.
         12    1    3    3    0    0 -0.35581172478E+01 -0.35480804890E+02  0.24740159173E+02  0.43400727988E+02  0.00000000000E+00 0. -1.
         11    1    4    4    0    0 -0.46410049720E+01  0.11000276767E+02 -0.74766790507E+01  0.14087077269E+02  0.51100000000E-03 0. -1.
        -11    1    4    4    0    0 -0.79423733388E+00 -0.12920531662E+01 -0.17008312357E+01  0.22788245831E+01  0.51100000000E-03 0.  1.
        -12    1    4    4    0    0  0.89933595537E+01  0.25772581289E+02 -0.15562648887E+02  0.31421370160E+02  0.00000000000E+00 0.  1.
</event>
<event>
 8    1  0.5542925E-011  0.9118800E+02  0.7816164E-02  0.1184000E+00
        -11   -1    0    0    0    0  0.00000000000E+00  0.00000000000E+00  0.45593999997E+02  0.45594000000E+02  0.51100000000E-03 0. -1.
         11   -1    0    0    0    0 -0.00000000000E+00 -0.00000000000E+00 -0.45593999997E+02  0.45594000000E+02  0.51100000000E-03 0.  1.
         23    2    1    2    0    0  0.00000000000E+00 -0.17763568394E-14  0.00000000000E+00  0.91188000000E+02  0.91188000000E+02 0.  0.
    9900012    2    3    3    0    0  0.37522720479E+02 -0.10442542616E+02 -0.19147426496E+02  0.47787248971E+02  0.19999899359E+02 0.  0.
         12    1    3    3    0    0 -0.37522720479E+02  0.10442542616E+02  0.19147426496E+02  0.43400751029E+02  0.00000000000E+00 0. -1.
         11    1    4    4    0    0 -0.36047128963E+00  0.18638098791E+01  0.16273325336E+01  0.25003876204E+01  0.51100000000E-03 0. -1.
        -11    1    4    4    0    0  0.73324770722E+01 -0.76660023504E-01 -0.38321825659E+01  0.82738576404E+01  0.51100000000E-03 0.  1.
        -12    1    4    4    0    0  0.30550714696E+02 -0.12229692472E+02 -0.16942576464E+02  0.37013003710E+02  0.00000000000E+00 0.  1.
</event>
<event>
 8    1  0.5542925E-011  0.9118800E+02  0.7816164E-02  0.1184000E+00
        -11   -1    0    0    0    0  0.00000000000E+00  0.00000000000E+00  0.45593999997E+02  0.45594000000E+02  0.51100000000E-03 0. -1.
         11   -1    0    0    0    0 -0.00000000000E+00 -0.00000000000E+00 -0.45593999997E+02  0.45594000000E+02  0.51100000000E-03 0.  1.
         23    2    1    2    0    0 -0.35527136788E-14  0.00000000000E+00  0.00000000000E+00  0.91188000000E+02  0.91188000000E+02 0.  0.
    9900012    2    3    3    0    0 -0.25143858653E+02  0.15799036042E+02  0.31651245958E+02  0.47787256475E+02  0.19999933574E+02 0.  0.
        -12    1    3    3    0    0  0.25143858653E+02 -0.15799036042E+02 -0.31651245958E+02  0.43400743525E+02  0.00000000000E+00 0.  1.
         11    1    4    4    0    0 -0.22337602336E+02  0.62992537949E+01  0.13903915481E+02  0.27054906070E+02  0.51100000000E-03 0. -1.
        -11    1    4    4    0    0 -0.52558643797E+00  0.13519308892E+01  0.52269708106E+00  0.15418076185E+01  0.51100000000E-03 0.  1.
         12    1    4    4    0    0 -0.22806698792E+01  0.81478513578E+01  0.17224633396E+02  0.19190542787E+02  0.00000000000E+00 0. -1.
</event>
<event>
 8    1  0.5542925E-011  0.9118800E+02  0.7816164E-02  0.1184000E+00
        -11   -1    0    0    0    0  0.00000000000E+00  0.00000000000E+00  0.45593999997E+02  0.45594000000E+02  0.51100000000E-03 0. -1.
         11   -1    0    0    0    0 -0.00000000000E+00 -0.00000000000E+00 -0.45593999997E+02  0.45594000000E+02  0.51100000000E-03 0.  1.
         23    2    1    2    0    0 -0.17763568394E-14 -0.35527136788E-14  0.00000000000E+00  0.91188000000E+02  0.91188000000E+02 0.  0.
    9900012    2    3    3    0    0  0.92861348399E+01 -0.21953382383E+02  0.36268991491E+02  0.47787273715E+02  0.20000012175E+02 0.  0.
        -12    1    3    3    0    0 -0.92861348399E+01  0.21953382383E+02 -0.36268991491E+02  0.43400726285E+02  0.00000000000E+00 0.  1.
         11    1    4    4    0    0 -0.71249965210E+00  0.13612355360E+01  0.38858738856E+00  0.15848086188E+01  0.51100000000E-03 0. -1.
        -11    1    4    4    0    0 -0.26048016721E+00  0.13908734200E+01  0.56998052744E+01  0.58728322993E+01  0.51100000000E-03 0.  1.
         12    1    4    4    0    0  0.10259114659E+02 -0.24705491339E+02  0.30180598828E+02  0.40329632797E+02  0.00000000000E+00 0. -1.
</event>
<event>
 8    1  0.5542925E-011  0.9118800E+02  0.7816164E-02  0.1184000E+00
        -11   -1    0    0    0    0  0.00000000000E+00  0.00000000000E+00  0.45593999997E+02  0.45594000000E+02  0.51100000000E-03 0. -1.
         11   -1    0    0    0    0 -0.00000000000E+00 -0.00000000000E+00 -0.45593999997E+02  0.45594000000E+02  0.51100000000E-03 0.  1.
         23    2    1    2    0    0 -0.88817841970E-15 -0.71054273576E-14  0.00000000000E+00  0.91188000000E+02  0.91188000000E+02 0.  0.
    9900012    2    3    3    0    0 -0.70655660109E+01 -0.38264458454E+02  0.19223121101E+02  0.47787315804E+02  0.20000204074E+02 0.  0.
        -12    1    3    3    0    0  0.70655660109E+01  0.38264458454E+02 -0.19223121101E+02  0.43400684196E+02  0.00000000000E+00 0.  1.
         11    1    4    4    0    0 -0.48882652313E+01 -0.31963012064E+02  0.12848084034E+02  0.34793714099E+02  0.51100000000E-03 0. -1.
        -11    1    4    4    0    0  0.16531446476E+01 -0.46030515423E+01 -0.52704562396E+00  0.49192223042E+01  0.51100000000E-03 0.  1.
        -12    1    4    4    0    0 -0.38304454273E+01 -0.16983948476E+01  0.69020826910E+01  0.80743794005E+01  0.00000000000E+00 0.  1.
</event>
<event>
 8    1  0.5542925E-011  0.9118800E+02  0.7816164E-02  0.1184000E+00
        -11   -1    0    0    0    0  0.00000000000E+00  0.00000000000E+00  0.45593999997E+02  0.45594000000E+02  0.51100000000E-03 0. -1.
         11   -1    0    0    0    0 -0.00000000000E+00 -0.00000000000E+00 -0.45593999997E+02  0.45594000000E+02  0.51100000000E-03 0.  1.
         23    2    1    2    0    0  0.35527136788E-14 -0.44408920985E-15  0.00000000000E+00  0.91188000000E+02  0.91188000000E+02 0.  0.
    9900012    2    3    3    0    0  0.26315016422E+02  0.10882803702E+01  0.34495776371E+02  0.47787273844E+02  0.20000012762E+02 0.  0.
        -12    1    3    3    0    0 -0.26315016422E+02 -0.10882803702E+01 -0.34495776371E+02  0.43400726156E+02  0.00000000000E+00 0.  1.
         11    1    4    4    0    0  0.12103658991E+02 -0.25178952709E+01  0.64166171539E+01  0.13928795121E+02  0.51100000000E-03 0. -1.
        -11    1    4    4    0    0  0.59298241997E+01  0.15290582984E+01  0.20390186496E+01  0.64543343292E+01  0.51100000000E-03 0.  1.
        -12    1    4    4    0    0  0.82815332307E+01  0.20771173427E+01  0.26040140568E+02  0.27404144393E+02  0.00000000000E+00 0.  1.
</event>
<event>
 8    1  0.5542925E-011  0.9118800E+02  0.7816164E-02  0.1184000E+00
        -11   -1    0    0    0    0  0.00000000000E+00  0.00000000000E+00  0.45593999997E+02  0.45594000000E+02  0.51100000000E-03 0. -1.
         11   -1    0    0    0    0 -0.00000000000E+00 -0.00000000000E+00 -0.45593999997E+02  0.45594000000E+02  0.51100000000E-03 0.  1.
         23    2    1    2    0    0  0.00000000000E+00  0.35527136788E-14  0.00000000000E+00  0.91188000000E+02  0.91188000000E+02 0.  0.
    9900012    2    3    3    0    0  0.20357901296E+02 -0.24264437898E+02  0.29671810550E+02  0.47787269211E+02  0.19999991642E+02 0.  0.
        -12    1    3    3    0    0 -0.20357901296E+02  0.24264437898E+02 -0.29671810550E+02  0.43400730789E+02  0.00000000000E+00 0.  1.
         11    1    4    4    0    0  0.30760648528E+01  0.23025596772E+00  0.30167391323E+01  0.43146156310E+01  0.51100000000E-03 0. -1.
        -11    1    4    4    0    0  0.36593489673E+01 -0.47532580055E+01 -0.17945819062E+01  0.62613753290E+01  0.51100000000E-03 0.  1.
         12    1    4    4    0    0  0.13622487476E+02 -0.19741435860E+02  0.28449653324E+02  0.37211278251E+02  0.00000000000E+00 0. -1.
</event>
<event>
 8    1  0.5542925E-011  0.9118800E+02  0.7816164E-02  0.1184000E+00
        -11   -1    0    0    0    0  0.00000000000E+00  0.00000000000E+00  0.45593999997E+02  0.45594000000E+02  0.51100000000E-03 0. -1.
         11   -1    0    0    0    0 -0.00000000000E+00 -0.00000000000E+00 -0.45593999997E+02  0.45594000000E+02  0.51100000000E-03 0.  1.
         23    2    1    2    0    0  0.00000000000E+00  0.88817841970E-15  0.00000000000E+00  0.91188000000E+02  0.91188000000E+02 0.  0.
    9900012    2    3    3    0    0  0.28385172775E+02 -0.57996482538E+01 -0.32315159148E+02  0.47787268853E+02  0.19999990010E+02 0.  0.
         12    1    3    3    0    0 -0.28385172775E+02  0.57996482538E+01  0.32315159148E+02  0.43400731147E+02  0.00000000000E+00 0. -1.
         11    1    4    4    0    0  0.40684182896E+00 -0.64009089806E+01 -0.83392209371E+01  0.10520444960E+02  0.51100000000E-03 0. -1.
        -11    1    4    4    0    0  0.73958205888E+01  0.11617632672E+01 -0.95090247262E+01  0.12102454610E+02  0.51100000000E-03 0.  1.
         12    1    4    4    0    0  0.20582510357E+02 -0.56050254034E+00 -0.14466913485E+02  0.25164369284E+02  0.00000000000E+00 0. -1.
</event>
<event>
 8    1  0.5542925E-011  0.9118800E+02  0.7816164E-02  0.1184000E+00
        -11   -1    0    0    0    0  0.00000000000E+00  0.00000000000E+00  0.45593999997E+02  0.45594000000E+02  0.51100000000E-03 0. -1.
         11   -1    0    0    0    0 -0.00000000000E+00 -0.00000000000E+00 -0.45593999997E+02  0.45594000000E+02  0.51100000000E-03 0.  1.
         23    2    1    2    0    0  0.17763568394E-14  0.00000000000E+00  0.00000000000E+00  0.91188000000E+02  0.91188000000E+02 0.  0.
    9900012    2    3    3    0    0  0.11370096409E+02  0.24306640976E+02  0.34110579835E+02  0.47787267925E+02  0.19999985779E+02 0.  0.
        -12    1    3    3    0    0 -0.11370096409E+02 -0.24306640976E+02 -0.34110579835E+02  0.43400732075E+02  0.00000000000E+00 0.  1.
         11    1    4    4    0    0  0.97615459480E+00  0.61739521582E+01  0.46226952087E+01  0.77743086058E+01  0.51100000000E-03 0. -1.
        -11    1    4    4    0    0  0.10727182897E+01 -0.51379775507E+00  0.13980804298E+02  0.14031307913E+02  0.51100000000E-03 0.  1.
        -12    1    4    4    0    0  0.93212235246E+01  0.18646486573E+02  0.15507080329E+02  0.25981651407E+02  0.00000000000E+00 0.  1.
</event>
<event>
 8    1  0.5542925E-011  0.9118800E+02  0.7816164E-02  0.1184000E+00
        -11   -1    0    0    0    0  0.00000000000E+00  0.00000000000E+00  0.45593999997E+02  0.45594000000E+02  0.51100000000E-03 0. -1.
         11   -1    0    0    0    0 -0.00000000000E+00 -0.00000000000E+00 -0.45593999997E+02  0.45594000000E+02  0.51100000000E-03 0.  1.
         23    2    1    2    0    0 -0.16653345369E-15 -0.71054273576E-14  0.00000000000E+00  0.91188000000E+02  0.91188000000E+02 0.  0.
    9900012    2    3    3    0    0 -0.44903918454E+00 -0.34800390002E+02 -0.25929801647E+02  0.47787269661E+02  0.19999993694E+02 0.  0.
         12    1    3    3    0    0  0.44903918454E+00  0.34800390002E+02  0.25929801647E+02  0.43400730339E+02  0.00000000000E+00 0. -1.
         11    1    4    4    0    0 -0.33423791614E+01 -0.12284042258E+02 -0.80683201042E+01  0.15072059654E+02  0.51100000000E-03 0. -1.
        -11    1    4    4    0    0 -0.39133921960E+01 -0.15703851588E+02 -0.16280497825E+02  0.22956049374E+02  0.51100000000E-03 0.  1.
         12    1    4    4    0    0  0.68067321729E+01 -0.68124961556E+01 -0.15809837179E+01  0.97591606330E+01  0.00000000000E+00 0. -1.
</event>
<event>
 8    1  0.5542925E-011  0.9118800E+02  0.7816164E-02  0.1184000E+00
        -11   -1    0    0    0    0  0.00000000000E+00  0.00000000000E+00  0.45593999997E+02  0.45594000000E+02  0.51100000000E-03 0. -1.
         11   -1    0    0    0    0 -0.00000000000E+00 -0.00000000000E+00 -0.45593999997E+02  0.45594000000E+02  0.51100000000E-03 0.  1.
         23    2    1    2    0    0  0.00000000000E+00  0.88817841970E-15  0.00000000000E+00  0.91188000000E+02  0.91188000000E+02 0.  0.
    9900012    2    3    3    0    0  0.62930998425E+01  0.40255052031E+01 -0.42752957584E+02  0.47787272126E+02  0.20000004932E+02 0.  0.
         12    1    3    3    0    0 -0.62930998425E+01 -0.40255052031E+01  0.42752957584E+02  0.43400727874E+02  0.00000000000E+00 0. -1.
         11    1    4    4    0    0 -0.42841365709E+01 -0.27478546573E+01 -0.67538658020E+01  0.84569045701E+01  0.51100000000E-03 0. -1.
        -11    1    4    4    0    0  0.13484638994E+01 -0.19048738051E+01 -0.11665892649E+02  0.11897056386E+02  0.51100000000E-03 0.  1.
        -12    1    4    4    0    0  0.92287725140E+01  0.86782336654E+01 -0.24333199134E+02  0.27433311170E+02  0.00000000000E+00 0.  1.
</event>
<event>
 8    1  0.5542925E-011  0.9118800E+02  0.7816164E-02  0.1184000E+00
        -11   -1    0    0    0    0  0.00000000000E+00  0.00000000000E+00  0.45593999997E+02  0.45594000000E+02  0.51100000000E-03 0. -1.
         11   -1    0    0    0    0 -0.00000000000E+00 -0.00000000000E+00 -0.45593999997E+02  0.45594000000E+02  0.51100000000E-03 0.  1.
         23    2    1    2    0    0  0.00000000000E+00 -0.35527136788E-14  0.88817841970E-15  0.91188000000E+02  0.91188000000E+02 0.  0.
    9900012    2    3    3    0    0 -0.33713432398E+02 -0.27319542023E+02  0.81894309058E+00  0.47787267654E+02  0.19999984542E+02 0.  0.
        -12    1    3    3    0    0  0.33713432398E+02  0.27319542023E+02 -0.81894309058E+00  0.43400732346E+02  0.00000000000E+00 0.  1.
         11    1    4    4    0    0 -0.26557062922E+01 -0.96630835804E+01  0.27497347580E+01  0.10391775676E+02  0.51100000000E-03 0. -1.
        -11    1    4    4    0    0 -0.82944990284E+01 -0.75698850857E+01 -0.50316891384E+01  0.12305274080E+02  0.51100000000E-03 0.  1.
        -12    1    4    4    0    0 -0.22763227077E+02 -0.10086573357E+02  0.31008974710E+01  0.25090217898E+02  0.00000000000E+00 0.  1.
</event>
<event>
 8    1  0.5542925E-011  0.9118800E+02  0.7816164E-02  0.1184000E+00
        -11   -1    0    0    0    0  0.00000000000E+00  0.00000000000E+00  0.45593999997E+02  0.45594000000E+02  0.51100000000E-03 0. -1.
         11   -1    0    0    0    0 -0.00000000000E+00 -0.00000000000E+00 -0.45593999997E+02  0.45594000000E+02  0.51100000000E-03 0.  1.
         23    2    1    2    0    0  0.00000000000E+00  0.71054273576E-14  0.00000000000E+00  0.91188000000E+02  0.91188000000E+02 0.  0.
    9900012    2    3    3    0    0  0.22380839887E+02 -0.25848411390E+02 -0.26731647456E+02  0.47787270269E+02  0.19999996466E+02 0.  0.
         12    1    3    3    0    0 -0.22380839887E+02  0.25848411390E+02  0.26731647456E+02  0.43400729731E+02  0.00000000000E+00 0. -1.
         11    1    4    4    0    0  0.24652225500E+01 -0.28256360212E+01  0.17645039814E+00  0.37540213304E+01  0.51100000000E-03 0. -1.
        -11    1    4    4    0    0  0.16672426035E+02 -0.25543950053E+02 -0.21873878574E+02  0.37535712839E+02  0.51100000000E-03 0.  1.
         12    1    4    4    0    0  0.32431913018E+01  0.25211746842E+01 -0.50342192802E+01  0.64975360999E+01  0.00000000000E+00 0. -1.
</event>
<event>
 8    1  0.5542925E-011  0.9118800E+02  0.7816164E-02  0.1184000E+00
        -11   -1    0    0    0    0  0.00000000000E+00  0.00000000000E+00  0.45593999997E+02  0.45594000000E+02  0.51100000000E-03 0. -1.
         11   -1    0    0    0    0 -0.00000000000E+00 -0.00000000000E+00 -0.45593999997E+02  0.45594000000E+02  0.51100000000E-03 0.  1.
         23    2    1    2    0    0  0.00000000000E+00 -0.11102230246E-15  0.71054273576E-14  0.91188000000E+02  0.91188000000E+02 0.  0.
    9900012    2    3    3    0    0 -0.15699388189E+02  0.60653729221E+00  0.40457187777E+02  0.47787277427E+02  0.20000029101E+02 0.  0.
        -12    1    3    3    0    0  0.15699388189E+02 -0.60653729221E+00 -0.40457187777E+02  0.43400722573E+02  0.00000000000E+00 0.  1.
         11    1    4    4    0    0  0.45907006564E+00 -0.62695768035E+00 -0.14281097093E+01  0.16258286690E+01  0.51100000000E-03 0. -1.
        -11    1    4    4    0    0  0.44794040925E+00 -0.12630910308E+00 -0.46099608097E+00  0.65507423057E+00  0.51100000000E-03 0.  1.
         12    1    4    4    0    0 -0.16606398664E+02  0.13598040756E+01  0.42346293568E+02  0.45506374527E+02  0.00000000000E+00 0. -1.
</event>
<event>
 8    1  0.5542925E-011  0.9118800E+02  0.7816164E-02  0.1184000E+00
        -11   -1    0    0    0    0  0.00000000000E+00  0.00000000000E+00  0.45593999997E+02  0.45594000000E+02  0.51100000000E-03 0. -1.
         11   -1    0    0    0    0 -0.00000000000E+00 -0.00000000000E+00 -0.45593999997E+02  0.45594000000E+02  0.51100000000E-03 0.  1.
         23    2    1    2    0    0  0.00000000000E+00  0.00000000000E+00  0.00000000000E+00  0.91188000000E+02  0.91188000000E+02 0.  0.
    9900012    2    3    3    0    0 -0.97139954421E+01  0.76507931975E+01 -0.41602002899E+02  0.47787274324E+02  0.20000014951E+02 0.  0.
         12    1    3    3    0    0  0.97139954421E+01 -0.76507931975E+01  0.41602002899E+02  0.43400725676E+02  0.00000000000E+00 0. -1.
         11    1    4    4    0    0 -0.38832686567E+01  0.76888183259E+01 -0.20269239143E+02  0.22023618195E+02  0.51100000000E-03 0. -1.
        -11    1    4    4    0    0 -0.10096717096E+02  0.67917400068E+00 -0.15025094084E+02  0.18115143553E+02  0.51100000000E-03 0.  1.
         12    1    4    4    0    0  0.42659903111E+01 -0.71719912914E+00 -0.63076696722E+01  0.76485125755E+01  0.00000000000E+00 0. -1.
</event>
<event>
 8    1  0.5542925E-011  0.9118800E+02  0.7816164E-02  0.1184000E+00
        -11   -1    0    0    0    0  0.00000000000E+00  0.00000000000E+00  0.45593999997E+02  0.45594000000E+02  0.51100000000E-03 0. -1.
         11   -1    0    0    0    0 -0.00000000000E+00 -0.00000000000E+00 -0.45593999997E+02  0.45594000000E+02  0.51100000000E-03 0.  1.
         23    2    1    2    0    0  0.00000000000E+00  0.00000000000E+00  0.35527136788E-14  0.91188000000E+02  0.91188000000E+02 0.  0.
    9900012    2    3    3    0    0  0.19327891362E+02  0.35708958037E+02 -0.15327298764E+02  0.47787272402E+02  0.20000006192E+02 0.  0.
         12    1    3    3    0    0 -0.19327891362E+02 -0.35708958037E+02  0.15327298764E+02  0.43400727598E+02  0.00000000000E+00 0. -1.
         11    1    4    4    0    0  0.78529503550E+01  0.18106077262E+02 -0.12245788148E+02  0.23226239272E+02  0.51100000000E-03 0. -1.
        -11    1    4    4    0    0  0.79473382665E+01  0.11048889913E+02 -0.78593342466E+01  0.15716465534E+02  0.51100000000E-03 0.  1.
         12    1    4    4    0    0  0.35276027409E+01  0.65539908625E+01  0.47778236307E+01  0.88445675965E+01  0.00000000000E+00 0. -1.
</event>
<event>
 8    1  0.5542925E-011  0.9118800E+02  0.7816164E-02  0.1184000E+00
        -11   -1    0    0    0    0  0.00000000000E+00  0.00000000000E+00  0.45593999997E+02  0.45594000000E+02  0.51100000000E-03 0. -1.
         11   -1    0    0    0    0 -0.00000000000E+00 -0.00000000000E+00 -0.45593999997E+02  0.45594000000E+02  0.51100000000E-03 0.  1.
         23    2    1    2    0    0  0.00000000000E+00  0.00000000000E+00  0.00000000000E+00  0.91188000000E+02  0.91188000000E+02 0.  0.
    9900012    2    3    3    0    0 -0.18924847625E+02 -0.10537078564E+02 -0.37609086410E+02  0.47787271171E+02  0.20000000576E+02 0.  0.
         12    1    3    3    0    0  0.18924847625E+02  0.10537078564E+02  0.37609086410E+02  0.43400728829E+02  0.00000000000E+00 0. -1.
         11    1    4    4    0    0 -0.28643670556E+01  0.29249264413E+01 -0.77890271711E+01  0.87993600818E+01  0.51100000000E-03 0. -1.
        -11    1    4    4    0    0 -0.11962641209E+02 -0.37808589547E+01 -0.83161328976E+01  0.15051835296E+02  0.51100000000E-03 0.  1.
         12    1    4    4    0    0 -0.40978393602E+01 -0.96811460510E+01 -0.21503926342E+02  0.23936075793E+02  0.00000000000E+00 0. -1.
</event>
<event>
 8    1  0.5542925E-011  0.9118800E+02  0.7816164E-02  0.1184000E+00
        -11   -1    0    0    0    0  0.00000000000E+00  0.00000000000E+00  0.45593999997E+02  0.45594000000E+02  0.51100000000E-03 0.  1.
         11   -1    0    0    0    0 -0.00000000000E+00 -0.00000000000E+00 -0.45593999997E+02  0.45594000000E+02  0.51100000000E-03 0. -1.
         23    2    1    2    0    0  0.00000000000E+00  0.00000000000E+00  0.00000000000E+00  0.91188000000E+02  0.91188000000E+02 0.  0.
    9900012    2    3    3    0    0  0.26905900715E+02  0.25502280151E+02 -0.22568303265E+02  0.47787284586E+02  0.20000061740E+02 0.  0.
         12    1    3    3    0    0 -0.26905900715E+02 -0.25502280151E+02  0.22568303265E+02  0.43400715414E+02  0.00000000000E+00 0. -1.
         11    1    4    4    0    0  0.70676730296E+01  0.10480054199E+01 -0.19318489124E+01  0.74015105144E+01  0.51100000000E-03 0. -1.
        -11    1    4    4    0    0  0.20264816299E+01  0.61235364340E+01  0.14439263873E+01  0.66097844086E+01  0.51100000000E-03 0.  1.
         12    1    4    4    0    0  0.17811746056E+02  0.18330738297E+02 -0.22080380740E+02  0.33775989663E+02  0.00000000000E+00 0. -1.
</event>
<event>
 8    1  0.5542925E-011  0.9118800E+02  0.7816164E-02  0.1184000E+00
        -11   -1    0    0    0    0  0.00000000000E+00  0.00000000000E+00  0.45593999997E+02  0.45594000000E+02  0.51100000000E-03 0. -1.
         11   -1    0    0    0    0 -0.00000000000E+00 -0.00000000000E+00 -0.45593999997E+02  0.45594000000E+02  0.51100000000E-03 0.  1.
         23    2    1    2    0    0  0.00000000000E+00  0.00000000000E+00  0.35527136788E-14  0.91188000000E+02  0.91188000000E+02 0.  0.
    9900012    2    3    3    0    0 -0.56628907947E+01  0.36481011814E+02  0.22818648483E+02  0.47787271046E+02  0.20000000009E+02 0.  0.
        -12    1    3    3    0    0  0.56628907947E+01 -0.36481011814E+02 -0.22818648483E+02  0.43400728954E+02  0.00000000000E+00 0.  1.
         11    1    4    4    0    0  0.25421542238E+01  0.16281938717E+02  0.88877735808E+01  0.18723156677E+02  0.51100000000E-03 0. -1.
        -11    1    4    4    0    0 -0.39561891268E+01  0.13586429651E+02  0.13303748922E+01  0.14213106652E+02  0.51100000000E-03 0.  1.
        -12    1    4    4    0    0 -0.42488558916E+01  0.66126434456E+01  0.12600500010E+02  0.14851007717E+02  0.00000000000E+00 0.  1.
</event>
<event>
 8    1  0.5542925E-011  0.9118800E+02  0.7816164E-02  0.1184000E+00
        -11   -1    0    0    0    0  0.00000000000E+00  0.00000000000E+00  0.45593999997E+02  0.45594000000E+02  0.51100000000E-03 0. -1.
         11   -1    0    0    0    0 -0.00000000000E+00 -0.00000000000E+00 -0.45593999997E+02  0.45594000000E+02  0.51100000000E-03 0.  1.
         23    2    1    2    0    0 -0.17763568394E-14  0.35527136788E-14 -0.35527136788E-14  0.91188000000E+02  0.91188000000E+02 0.  0.
    9900012    2    3    3    0    0 -0.14105417866E+02  0.28406156626E+02 -0.29626865308E+02  0.47787266189E+02  0.19999977860E+02 0.  0.
         12    1    3    3    0    0  0.14105417866E+02 -0.28406156626E+02  0.29626865308E+02  0.43400733811E+02  0.00000000000E+00 0. -1.
         11    1    4    4    0    0 -0.72053956551E+01  0.12135624527E+01 -0.37088007769E+01  0.81942457760E+01  0.51100000000E-03 0. -1.
        -11    1    4    4    0    0  0.15828054491E+01  0.20187754048E+01 -0.55647070103E+01  0.61275355238E+01  0.51100000000E-03 0.  1.
         12    1    4    4    0    0 -0.84828276596E+01  0.25173818768E+02 -0.20353357521E+02  0.33465484889E+02  0.00000000000E+00 0. -1.
</event>
<event>
 8    1  0.5542925E-011  0.9118800E+02  0.7816164E-02  0.1184000E+00
        -11   -1    0    0    0    0  0.00000000000E+00  0.00000000000E+00  0.45593999997E+02  0.45594000000E+02  0.51100000000E-03 0. -1.
         11   -1    0    0    0    0 -0.00000000000E+00 -0.00000000000E+00 -0.45593999997E+02  0.45594000000E+02  0.51100000000E-03 0.  1.
         23    2    1    2    0    0  0.00000000000E+00 -0.88817841970E-15 -0.35527136788E-14  0.91188000000E+02  0.91188000000E+02 0.  0.
    9900012    2    3    3    0    0 -0.32171157635E+02 -0.69874911103E+01 -0.28280987110E+02  0.47787278260E+02  0.20000032901E+02 0.  0.
         12    1    3    3    0    0  0.32171157635E+02  0.69874911103E+01  0.28280987110E+02  0.43400721740E+02  0.00000000000E+00 0. -1.
         11    1    4    4    0    0 -0.11221991486E+00  0.49314784633E+00 -0.41050520377E+01  0.41360900137E+01  0.51100000000E-03 0. -1.
        -11    1    4    4    0    0 -0.14708488737E+02 -0.18184044549E+01 -0.20061553874E+02  0.24942176725E+02  0.51100000000E-03 0.  1.
        -12    1    4    4    0    0 -0.17350448984E+02 -0.56622345018E+01 -0.41143811982E+01  0.18709011522E+02  0.00000000000E+00 0.  1.
</event>
<event>
 8    1  0.5542925E-011  0.9118800E+02  0.7816164E-02  0.1184000E+00
        -11   -1    0    0    0    0  0.00000000000E+00  0.00000000000E+00  0.45593999997E+02  0.45594000000E+02  0.51100000000E-03 0. -1.
         11   -1    0    0    0    0 -0.00000000000E+00 -0.00000000000E+00 -0.45593999997E+02  0.45594000000E+02  0.51100000000E-03 0.  1.
         23    2    1    2    0    0  0.00000000000E+00  0.00000000000E+00 -0.71054273576E-14  0.91188000000E+02  0.91188000000E+02 0.  0.
    9900012    2    3    3    0    0  0.80202663647E+01 -0.25971469459E+02 -0.33834636307E+02  0.47787256776E+02  0.19999934943E+02 0.  0.
         12    1    3    3    0    0 -0.80202663647E+01  0.25971469459E+02  0.33834636307E+02  0.43400743224E+02  0.00000000000E+00 0. -1.
         11    1    4    4    0    0 -0.72442538408E+00 -0.16808309501E+02 -0.22751915174E+02  0.28296531673E+02  0.51100000000E-03 0. -1.
        -11    1    4    4    0    0  0.49933763299E+01 -0.10709033739E+02 -0.93973148834E+01  0.15097242731E+02  0.51100000000E-03 0.  1.
        -12    1    4    4    0    0  0.37513154189E+01  0.15458737813E+01 -0.16854062500E+01  0.43934823714E+01  0.00000000000E+00 0.  1.
</event>
<event>
 8    1  0.5542925E-011  0.9118800E+02  0.7816164E-02  0.1184000E+00
        -11   -1    0    0    0    0  0.00000000000E+00  0.00000000000E+00  0.45593999997E+02  0.45594000000E+02  0.51100000000E-03 0. -1.
         11   -1    0    0    0    0 -0.00000000000E+00 -0.00000000000E+00 -0.45593999997E+02  0.45594000000E+02  0.51100000000E-03 0.  1.
         23    2    1    2    0    0  0.44408920985E-15  0.00000000000E+00  0.00000000000E+00  0.91188000000E+02  0.91188000000E+02 0.  0.
    9900012    2    3    3    0    0  0.37614862770E+01 -0.94982846686E+01  0.42181243322E+02  0.47787268683E+02  0.19999989234E+02 0.  0.
        -12    1    3    3    0    0 -0.37614862770E+01  0.94982846686E+01 -0.42181243322E+02  0.43400731317E+02  0.00000000000E+00 0.  1.
         11    1    4    4    0    0 -0.29640658799E+01 -0.14508999799E+01  0.18044415882E+02  0.18343711240E+02  0.51100000000E-03 0. -1.
        -11    1    4    4    0    0 -0.23850148561E+00  0.34138101896E+01  0.56278060445E+01  0.65865912356E+01  0.51100000000E-03 0.  1.
        -12    1    4    4    0    0  0.69640536425E+01 -0.11461194878E+02  0.18509021396E+02  0.22856966207E+02  0.00000000000E+00 0.  1.
</event>
<event>
 8    1  0.5542925E-011  0.9118800E+02  0.7816164E-02  0.1184000E+00
        -11   -1    0    0    0    0  0.00000000000E+00  0.00000000000E+00  0.45593999997E+02  0.45594000000E+02  0.51100000000E-03 0.  1.
         11   -1    0    0    0    0 -0.00000000000E+00 -0.00000000000E+00 -0.45593999997E+02  0.45594000000E+02  0.51100000000E-03 0. -1.
         23    2    1    2    0    0  0.00000000000E+00  0.35527136788E-14 -0.44408920985E-15  0.91188000000E+02  0.91188000000E+02 0.  0.
    9900012    2    3    3    0    0 -0.34007011201E+02 -0.26934839685E+02  0.12889920852E+01  0.47787263828E+02  0.19999967098E+02 0.  0.
        -12    1    3    3    0    0  0.34007011201E+02  0.26934839685E+02 -0.12889920852E+01  0.43400736172E+02  0.00000000000E+00 0.  1.
         11    1    4    4    0    0 -0.20315224169E+02 -0.16537501246E+02 -0.13078617247E+01  0.26227996169E+02  0.51100000000E-03 0. -1.
        -11    1    4    4    0    0 -0.14396486923E+02 -0.79787627989E+01  0.58290567422E+01  0.17461311356E+02  0.51100000000E-03 0.  1.
        -12    1    4    4    0    0  0.70469989079E+00 -0.24185756395E+01 -0.32322029323E+01  0.40979563023E+01  0.00000000000E+00 0.  1.
</event>
<event>
 8    1  0.5542925E-011  0.9118800E+02  0.7816164E-02  0.1184000E+00
        -11   -1    0    0    0    0  0.00000000000E+00  0.00000000000E+00  0.45593999997E+02  0.45594000000E+02  0.51100000000E-03 0. -1.
         11   -1    0    0    0    0 -0.00000000000E+00 -0.00000000000E+00 -0.45593999997E+02  0.45594000000E+02  0.51100000000E-03 0.  1.
         23    2    1    2    0    0 -0.17763568394E-14  0.00000000000E+00  0.00000000000E+00  0.91188000000E+02  0.91188000000E+02 0.  0.
    9900012    2    3    3    0    0  0.11350013223E+02  0.89795791542E+01 -0.40916589967E+02  0.47787274471E+02  0.20000015623E+02 0.  0.
         12    1    3    3    0    0 -0.11350013223E+02 -0.89795791542E+01  0.40916589967E+02  0.43400725529E+02  0.00000000000E+00 0. -1.
         11    1    4    4    0    0 -0.55943340291E+00  0.60581962558E+01 -0.19097481461E+02  0.20043166068E+02  0.51100000000E-03 0. -1.
        -11    1    4    4    0    0  0.58130409044E+01  0.54803921864E+00 -0.20168964013E+02  0.20997116496E+02  0.51100000000E-03 0.  1.
         12    1    4    4    0    0  0.60964057216E+01  0.23733436797E+01 -0.16501444926E+01  0.67469919069E+01  0.00000000000E+00 0. -1.
</event>
<event>
 8    1  0.5542925E-011  0.9118800E+02  0.7816164E-02  0.1184000E+00
        -11   -1    0    0    0    0  0.00000000000E+00  0.00000000000E+00  0.45593999997E+02  0.45594000000E+02  0.51100000000E-03 0. -1.
         11   -1    0    0    0    0 -0.00000000000E+00 -0.00000000000E+00 -0.45593999997E+02  0.45594000000E+02  0.51100000000E-03 0.  1.
         23    2    1    2    0    0  0.00000000000E+00  0.00000000000E+00 -0.35527136788E-14  0.91188000000E+02  0.91188000000E+02 0.  0.
    9900012    2    3    3    0    0  0.28195178247E+02  0.91742531762E+01  0.31693664096E+02  0.47787270265E+02  0.19999996446E+02 0.  0.
        -12    1    3    3    0    0 -0.28195178247E+02 -0.91742531762E+01 -0.31693664096E+02  0.43400729735E+02  0.00000000000E+00 0.  1.
         11    1    4    4    0    0  0.83593597122E+01  0.52966290712E+01  0.93253550056E+01  0.13597625548E+02  0.51100000000E-03 0. -1.
        -11    1    4    4    0    0  0.22032670773E+02  0.34754319447E+01  0.22820792691E+02  0.31910903902E+02  0.51100000000E-03 0.  1.
        -12    1    4    4    0    0 -0.21968522378E+01  0.40219216031E+00 -0.45248360038E+00  0.22787408139E+01  0.00000000000E+00 0.  1.
</event>
<event>
 8    1  0.5542925E-011  0.9118800E+02  0.7816164E-02  0.1184000E+00
        -11   -1    0    0    0    0  0.00000000000E+00  0.00000000000E+00  0.45593999997E+02  0.45594000000E+02  0.51100000000E-03 0. -1.
         11   -1    0    0    0    0 -0.00000000000E+00 -0.00000000000E+00 -0.45593999997E+02  0.45594000000E+02  0.51100000000E-03 0.  1.
         23    2    1    2    0    0 -0.88817841970E-15  0.00000000000E+00  0.00000000000E+00  0.91188000000E+02  0.91188000000E+02 0.  0.
    9900012    2    3    3    0    0  0.22009779890E+01 -0.15164235211E+02  0.40605725665E+02  0.47787270854E+02  0.19999999132E+02 0.  0.
        -12    1    3    3    0    0 -0.22009779890E+01  0.15164235211E+02 -0.40605725665E+02  0.43400729146E+02  0.00000000000E+00 0.  1.
         11    1    4    4    0    0  0.78539065115E+01 -0.84972083555E+01  0.19769215293E+02  0.22906511539E+02  0.51100000000E-03 0. -1.
        -11    1    4    4    0    0 -0.28967558561E-01 -0.46324352995E+01  0.17350472865E+02  0.17958262856E+02  0.51100000000E-03 0.  1.
        -12    1    4    4    0    0 -0.56239609639E+01 -0.20345915557E+01  0.34860375071E+01  0.69224964589E+01  0.00000000000E+00 0.  1.
</event>
<event>
 8    1  0.5542925E-011  0.9118800E+02  0.7816164E-02  0.1184000E+00
        -11   -1    0    0    0    0  0.00000000000E+00  0.00000000000E+00  0.45593999997E+02  0.45594000000E+02  0.51100000000E-03 0. -1.
         11   -1    0    0    0    0 -0.00000000000E+00 -0.00000000000E+00 -0.45593999997E+02  0.45594000000E+02  0.51100000000E-03 0.  1.
         23    2    1    2    0    0  0.53290705182E-14 -0.35527136788E-14 -0.71054273576E-14  0.91188000000E+02  0.91188000000E+02 0.  0.
    9900012    2    3    3    0    0 -0.11570865520E+02  0.24181895478E+02  0.34131715654E+02  0.47787274070E+02  0.20000013794E+02 0.  0.
        -12    1    3    3    0    0  0.11570865520E+02 -0.24181895478E+02 -0.34131715654E+02  0.43400725930E+02  0.00000000000E+00 0.  1.
         11    1    4    4    0    0 -0.15809489867E+02  0.19793446254E+02  0.21325815371E+02  0.33113605753E+02  0.51100000000E-03 0. -1.
        -11    1    4    4    0    0 -0.30405033083E+00 -0.37717719165E+00  0.39711932560E+00  0.62642897241E+00  0.51100000000E-03 0.  1.
         12    1    4    4    0    0  0.45426746774E+01  0.47656264154E+01  0.12408780957E+02  0.14047239344E+02  0.00000000000E+00 0. -1.
</event>
<event>
 8    1  0.5542925E-011  0.9118800E+02  0.7816164E-02  0.1184000E+00
        -11   -1    0    0    0    0  0.00000000000E+00  0.00000000000E+00  0.45593999997E+02  0.45594000000E+02  0.51100000000E-03 0. -1.
         11   -1    0    0    0    0 -0.00000000000E+00 -0.00000000000E+00 -0.45593999997E+02  0.45594000000E+02  0.51100000000E-03 0.  1.
         23    2    1    2    0    0 -0.71054273576E-14 -0.11102230246E-15 -0.71054273576E-14  0.91188000000E+02  0.91188000000E+02 0.  0.
    9900012    2    3    3    0    0  0.21838340528E+02  0.52071974068E+00  0.37502514361E+02  0.47787275934E+02  0.20000022293E+02 0.  0.
        -12    1    3    3    0    0 -0.21838340528E+02 -0.52071974068E+00 -0.37502514361E+02  0.43400724066E+02  0.00000000000E+00 0.  1.
         11    1    4    4    0    0  0.13350407253E+02  0.93196909297E+01  0.15135244224E+02  0.22229836501E+02  0.51100000000E-03 0. -1.
        -11    1    4    4    0    0  0.30572891257E+01 -0.20597010921E+01  0.74172265697E+01  0.82827915364E+01  0.51100000000E-03 0.  1.
         12    1    4    4    0    0  0.54306441493E+01 -0.67392700970E+01  0.14950043567E+02  0.17274647897E+02  0.00000000000E+00 0. -1.
</event>
<event>
 8    1  0.5542925E-011  0.9118800E+02  0.7816164E-02  0.1184000E+00
        -11   -1    0    0    0    0  0.00000000000E+00  0.00000000000E+00  0.45593999997E+02  0.45594000000E+02  0.51100000000E-03 0. -1.
         11   -1    0    0    0    0 -0.00000000000E+00 -0.00000000000E+00 -0.45593999997E+02  0.45594000000E+02  0.51100000000E-03 0.  1.
         23    2    1    2    0    0  0.00000000000E+00  0.17763568394E-14  0.71054273576E-14  0.91188000000E+02  0.91188000000E+02 0.  0.
    9900012    2    3    3    0    0  0.29390680374E+01  0.45967343590E+01 -0.43056441086E+02  0.47787248778E+02  0.19999898476E+02 0.  0.
         12    1    3    3    0    0 -0.29390680374E+01 -0.45967343590E+01  0.43056441086E+02  0.43400751222E+02  0.00000000000E+00 0. -1.
         11    1    4    4    0    0  0.16723420000E+01  0.40895089320E+01 -0.73290006935E+01  0.85577486816E+01  0.51100000000E-03 0. -1.
        -11    1    4    4    0    0 -0.45684895778E+01  0.39507787432E+01 -0.29210963292E+02  0.29828847219E+02  0.51100000000E-03 0.  1.
        -12    1    4    4    0    0  0.58352156151E+01 -0.34435533161E+01 -0.65164771003E+01  0.94006528770E+01  0.00000000000E+00 0.  1.
</event>
<event>
 8    1  0.5542925E-011  0.9118800E+02  0.7816164E-02  0.1184000E+00
        -11   -1    0    0    0    0  0.00000000000E+00  0.00000000000E+00  0.45593999997E+02  0.45594000000E+02  0.51100000000E-03 0. -1.
         11   -1    0    0    0    0 -0.00000000000E+00 -0.00000000000E+00 -0.45593999997E+02  0.45594000000E+02  0.51100000000E-03 0.  1.
         23    2    1    2    0    0  0.00000000000E+00  0.17763568394E-14  0.35527136788E-14  0.91188000000E+02  0.91188000000E+02 0.  0.
    9900012    2    3    3    0    0  0.33230682818E+02 -0.13833167868E+02 -0.24248474893E+02  0.47787270185E+02  0.19999996083E+02 0.  0.
         12    1    3    3    0    0 -0.33230682818E+02  0.13833167868E+02  0.24248474893E+02  0.43400729815E+02  0.00000000000E+00 0. -1.
         11    1    4    4    0    0  0.22846180531E+01 -0.19899777937E+01  0.70328352128E+00  0.31103214046E+01  0.51100000000E-03 0. -1.
        -11    1    4    4    0    0  0.11278812222E+02 -0.96804807602E+01 -0.30717561447E+01  0.15177582118E+02  0.51100000000E-03 0.  1.
        -12    1    4    4    0    0  0.19667252543E+02 -0.21627093140E+01 -0.21880002270E+02  0.29499366662E+02  0.00000000000E+00 0.  1.
</event>
<event>
 8    1  0.5542925E-011  0.9118800E+02  0.7816164E-02  0.1184000E+00
        -11   -1    0    0    0    0  0.00000000000E+00  0.00000000000E+00  0.45593999997E+02  0.45594000000E+02  0.51100000000E-03 0. -1.
         11   -1    0    0    0    0 -0.00000000000E+00 -0.00000000000E+00 -0.45593999997E+02  0.45594000000E+02  0.51100000000E-03 0.  1.
         23    2    1    2    0    0  0.17763568394E-14 -0.35527136788E-14  0.35527136788E-14  0.91188000000E+02  0.91188000000E+02 0.  0.
    9900012    2    3    3    0    0 -0.89424763956E+01  0.31389545027E+02 -0.28606855717E+02  0.47787267114E+02  0.19999982078E+02 0.  0.
         12    1    3    3    0    0  0.89424763956E+01 -0.31389545027E+02  0.28606855717E+02  0.43400732886E+02  0.00000000000E+00 0. -1.
         11    1    4    4    0    0  0.50132998772E+01  0.14753828620E+01 -0.31758264554E+01  0.61152108863E+01  0.51100000000E-03 0. -1.
        -11    1    4    4    0    0 -0.37150012189E+01  0.83502549204E+01 -0.71887722292E+01  0.11627830310E+02  0.51100000000E-03 0.  1.
         12    1    4    4    0    0 -0.10240775054E+02  0.21563907244E+02 -0.18242257032E+02  0.30044225917E+02  0.00000000000E+00 0. -1.
</event>
<event>
 8    1  0.5542925E-011  0.9118800E+02  0.7816164E-02  0.1184000E+00
        -11   -1    0    0    0    0  0.00000000000E+00  0.00000000000E+00  0.45593999997E+02  0.45594000000E+02  0.51100000000E-03 0. -1.
         11   -1    0    0    0    0 -0.00000000000E+00 -0.00000000000E+00 -0.45593999997E+02  0.45594000000E+02  0.51100000000E-03 0.  1.
         23    2    1    2    0    0  0.00000000000E+00  0.00000000000E+00  0.00000000000E+00  0.91188000000E+02  0.91188000000E+02 0.  0.
    9900012    2    3    3    0    0 -0.30227505751E+02 -0.81520802307E+01 -0.30057701804E+02  0.47787263212E+02  0.19999964289E+02 0.  0.
         12    1    3    3    0    0  0.30227505751E+02  0.81520802307E+01  0.30057701804E+02  0.43400736788E+02  0.00000000000E+00 0. -1.
         11    1    4    4    0    0 -0.13601078336E+02  0.10620395185E+01 -0.11379849165E+02  0.17765647388E+02  0.51100000000E-03 0. -1.
        -11    1    4    4    0    0 -0.16635028638E+02 -0.27228198513E+01 -0.14980794753E+02  0.22551322299E+02  0.51100000000E-03 0.  1.
         12    1    4    4    0    0  0.86012222577E-02 -0.64912998979E+01 -0.36970578850E+01  0.74702935251E+01  0.00000000000E+00 0. -1.
</event>
<event>
 8    1  0.5542925E-011  0.9118800E+02  0.7816164E-02  0.1184000E+00
        -11   -1    0    0    0    0  0.00000000000E+00  0.00000000000E+00  0.45593999997E+02  0.45594000000E+02  0.51100000000E-03 0. -1.
         11   -1    0    0    0    0 -0.00000000000E+00 -0.00000000000E+00 -0.45593999997E+02  0.45594000000E+02  0.51100000000E-03 0.  1.
         23    2    1    2    0    0 -0.71054273576E-14 -0.35527136788E-14  0.35527136788E-14  0.91188000000E+02  0.91188000000E+02 0.  0.
    9900012    2    3    3    0    0 -0.31169711284E+02 -0.25758134904E+02  0.15766778639E+02  0.47787265860E+02  0.19999976363E+02 0.  0.
        -12    1    3    3    0    0  0.31169711284E+02  0.25758134904E+02 -0.15766778639E+02  0.43400734140E+02  0.00000000000E+00 0.  1.
         11    1    4    4    0    0  0.27335432932E+00  0.18675819776E+01 -0.12458330581E+01  0.22615670015E+01  0.51100000000E-03 0.  1.
        -11    1    4    4    0    0 -0.18937603481E+01 -0.35733059829E+01  0.81870265154E+00  0.41261505299E+01  0.51100000000E-03 0. -1.
        -12    1    4    4    0    0 -0.29549305265E+02 -0.24052410898E+02  0.16193909045E+02  0.41399548329E+02  0.00000000000E+00 0.  1.
</event>
<event>
 8    1  0.5891841E-011  0.9118800E+02  0.7816164E-02  0.1184000E+00
        -11   -1    0    0    0    0  0.00000000000E+00  0.00000000000E+00  0.45593999997E+02  0.45594000000E+02  0.51100000000E-03 0. -1.
         11   -1    0    0    0    0 -0.00000000000E+00 -0.00000000000E+00 -0.45593999997E+02  0.45594000000E+02  0.51100000000E-03 0.  1.
         23    2    1    2    0    0  0.00000000000E+00  0.35527136788E-14  0.00000000000E+00  0.91188000000E+02  0.91188000000E+02 0.  0.
    9900012    2    3    3    0    0 -0.15212202919E+02 -0.27607304448E+02  0.29833686422E+02  0.47787271641E+02  0.20000002721E+02 0.  0.
        -12    1    3    3    0    0  0.15212202919E+02  0.27607304448E+02 -0.29833686422E+02  0.43400728359E+02  0.00000000000E+00 0.  1.
         11    1    4    4    0    0 -0.47621182155E+00 -0.98050123116E+01  0.30410949073E+01  0.10276833298E+02  0.51100000000E-03 0. -1.
        -11    1    4    4    0    0  0.10887253342E+01  0.74875964444E+00  0.52914309690E-01  0.13224084255E+01  0.51100000000E-03 0.  1.
         12    1    4    4    0    0 -0.15824716432E+02 -0.18551051781E+02  0.26739677205E+02  0.36188029918E+02  0.00000000000E+00 0. -1.
</event>
<event>
 8    1  0.5542925E-011  0.9118800E+02  0.7816164E-02  0.1184000E+00
        -11   -1    0    0    0    0  0.00000000000E+00  0.00000000000E+00  0.45593999997E+02  0.45594000000E+02  0.51100000000E-03 0. -1.
         11   -1    0    0    0    0 -0.00000000000E+00 -0.00000000000E+00 -0.45593999997E+02  0.45594000000E+02  0.51100000000E-03 0.  1.
         23    2    1    2    0    0  0.00000000000E+00  0.00000000000E+00  0.71054273576E-14  0.91188000000E+02  0.91188000000E+02 0.  0.
    9900012    2    3    3    0    0 -0.10157837468E+02 -0.20340049238E+02 -0.36969234365E+02  0.47787267811E+02  0.19999985255E+02 0.  0.
         12    1    3    3    0    0  0.10157837468E+02  0.20340049238E+02  0.36969234365E+02  0.43400732189E+02  0.00000000000E+00 0. -1.
         11    1    4    4    0    0  0.24347527817E+01 -0.56207051527E+01 -0.55919309065E+01  0.82939760697E+01  0.51100000000E-03 0. -1.
        -11    1    4    4    0    0 -0.65975606438E+01 -0.13881974195E+02 -0.29312255517E+02  0.33097512561E+02  0.51100000000E-03 0.  1.
         12    1    4    4    0    0 -0.59950296060E+01 -0.83736989029E+00 -0.20650479418E+01  0.63957791794E+01  0.00000000000E+00 0. -1.
</event>
<event>
 8    1  0.5542925E-011  0.9118800E+02  0.7816164E-02  0.1184000E+00
        -11   -1    0    0    0    0  0.00000000000E+00  0.00000000000E+00  0.45593999997E+02  0.45594000000E+02  0.51100000000E-03 0. -1.
         11   -1    0    0    0    0 -0.00000000000E+00 -0.00000000000E+00 -0.45593999997E+02  0.45594000000E+02  0.51100000000E-03 0.  1.
         23    2    1    2    0    0  0.00000000000E+00  0.00000000000E+00  0.00000000000E+00  0.91188000000E+02  0.91188000000E+02 0.  0.
    9900012    2    3    3    0    0 -0.18518036106E+02  0.18843937972E+02 -0.34432709061E+02  0.47787272900E+02  0.20000008460E+02 0.  0.
         12    1    3    3    0    0  0.18518036106E+02 -0.18843937972E+02  0.34432709061E+02  0.43400727100E+02  0.00000000000E+00 0. -1.
         11    1    4    4    0    0 -0.84581218982E+01  0.11889084033E+02 -0.13138576217E+02  0.19634467919E+02  0.51100000000E-03 0. -1.
        -11    1    4    4    0    0 -0.41549748340E+01  0.95636530663E+01 -0.18242568907E+02  0.21012343906E+02  0.51100000000E-03 0.  1.
         12    1    4    4    0    0 -0.59049393739E+01 -0.26087991280E+01 -0.30515639380E+01  0.71404610752E+01  0.00000000000E+00 0. -1.
</event>
<event>
 8    1  0.5542925E-011  0.9118800E+02  0.7816164E-02  0.1184000E+00
        -11   -1    0    0    0    0  0.00000000000E+00  0.00000000000E+00  0.45593999997E+02  0.45594000000E+02  0.51100000000E-03 0. -1.
         11   -1    0    0    0    0 -0.00000000000E+00 -0.00000000000E+00 -0.45593999997E+02  0.45594000000E+02  0.51100000000E-03 0.  1.
         23    2    1    2    0    0  0.00000000000E+00 -0.35527136788E-14 -0.71054273576E-14  0.91188000000E+02  0.91188000000E+02 0.  0.
    9900012    2    3    3    0    0 -0.10948208676E+02 -0.17073540337E+02 -0.38369966720E+02  0.47787269604E+02  0.19999993431E+02 0.  0.
         12    1    3    3    0    0  0.10948208676E+02  0.17073540337E+02  0.38369966720E+02  0.43400730396E+02  0.00000000000E+00 0. -1.
         11    1    4    4    0    0 -0.42519511950E+01 -0.13443885069E+02 -0.22791255393E+02  0.26800344352E+02  0.51100000000E-03 0. -1.
        -11    1    4    4    0    0 -0.37432867821E+01 -0.43519632361E+01 -0.16767376273E+02  0.17722773126E+02  0.51100000000E-03 0.  1.
         12    1    4    4    0    0 -0.29529706989E+01  0.72230796769E+00  0.11886649461E+01  0.32641521262E+01  0.00000000000E+00 0. -1.
</event>
<event>
 8    1  0.5542925E-011  0.9118800E+02  0.7816164E-02  0.1184000E+00
        -11   -1    0    0    0    0  0.00000000000E+00  0.00000000000E+00  0.45593999997E+02  0.45594000000E+02  0.51100000000E-03 0. -1.
         11   -1    0    0    0    0 -0.00000000000E+00 -0.00000000000E+00 -0.45593999997E+02  0.45594000000E+02  0.51100000000E-03 0.  1.
         23    2    1    2    0    0  0.00000000000E+00  0.00000000000E+00  0.71054273576E-14  0.91188000000E+02  0.91188000000E+02 0.  0.
    9900012    2    3    3    0    0  0.61493182311E+01  0.68425544776E+01  0.42414486277E+02  0.47787270598E+02  0.19999997964E+02 0.  0.
        -12    1    3    3    0    0 -0.61493182311E+01 -0.68425544776E+01 -0.42414486277E+02  0.43400729402E+02  0.00000000000E+00 0.  1.
         11    1    4    4    0    0  0.22992571944E+01  0.67683852201E+00  0.16643307160E+01  0.29179943496E+01  0.51100000000E-03 0. -1.
        -11    1    4    4    0    0 -0.77593529076E+00  0.44364580864E+00 -0.16279165258E+01  0.18571509511E+01  0.51100000000E-03 0.  1.
         12    1    4    4    0    0  0.46259963274E+01  0.57220701469E+01  0.42378072087E+02  0.43012125297E+02  0.00000000000E+00 0. -1.
</event>
<event>
 8    1  0.5542925E-011  0.9118800E+02  0.7816164E-02  0.1184000E+00
        -11   -1    0    0    0    0  0.00000000000E+00  0.00000000000E+00  0.45593999997E+02  0.45594000000E+02  0.51100000000E-03 0. -1.
         11   -1    0    0    0    0 -0.00000000000E+00 -0.00000000000E+00 -0.45593999997E+02  0.45594000000E+02  0.51100000000E-03 0.  1.
         23    2    1    2    0    0  0.00000000000E+00  0.00000000000E+00  0.00000000000E+00  0.91188000000E+02  0.91188000000E+02 0.  0.
    9900012    2    3    3    0    0 -0.10491876442E+02  0.39442212585E+02  0.14759928761E+02  0.47787273026E+02  0.20000009033E+02 0.  0.
        -12    1    3    3    0    0  0.10491876442E+02 -0.39442212585E+02 -0.14759928761E+02  0.43400726974E+02  0.00000000000E+00 0.  1.
         11    1    4    4    0    0  0.65871185782E+00  0.94269434205E+01  0.51159907676E+01  0.10745907377E+02  0.51100000000E-03 0. -1.
        -11    1    4    4    0    0 -0.10449373256E+02  0.13151342555E+02  0.11047533561E+02  0.20104606698E+02  0.51100000000E-03 0.  1.
         12    1    4    4    0    0 -0.70121504341E+00  0.16863926610E+02 -0.14035955670E+01  0.16936758951E+02  0.00000000000E+00 0. -1.
</event>
<event>
 8    1  0.5542925E-011  0.9118800E+02  0.7816164E-02  0.1184000E+00
        -11   -1    0    0    0    0  0.00000000000E+00  0.00000000000E+00  0.45593999997E+02  0.45594000000E+02  0.51100000000E-03 0.  1.
         11   -1    0    0    0    0 -0.00000000000E+00 -0.00000000000E+00 -0.45593999997E+02  0.45594000000E+02  0.51100000000E-03 0. -1.
         23    2    1    2    0    0  0.00000000000E+00  0.00000000000E+00  0.35527136788E-14  0.91188000000E+02  0.91188000000E+02 0.  0.
    9900012    2    3    3    0    0  0.38819257768E+02  0.44433237129E+01 -0.18892982434E+02  0.47787277834E+02  0.20000030958E+02 0.  0.
         12    1    3    3    0    0 -0.38819257768E+02 -0.44433237129E+01  0.18892982434E+02  0.43400722166E+02  0.00000000000E+00 0. -1.
         11    1    4    4    0    0  0.92454677876E+01 -0.38013313168E+01 -0.17641913051E+01  0.10150919447E+02  0.51100000000E-03 0. -1.
        -11    1    4    4    0    0  0.16849785335E+02  0.10445832948E+01 -0.27023651347E+01  0.17097052310E+02  0.51100000000E-03 0.  1.
         12    1    4    4    0    0  0.12724004645E+02  0.72000717349E+01 -0.14426425994E+02  0.20539306078E+02  0.00000000000E+00 0. -1.
</event>
<event>
 8    1  0.5542925E-011  0.9118800E+02  0.7816164E-02  0.1184000E+00
        -11   -1    0    0    0    0  0.00000000000E+00  0.00000000000E+00  0.45593999997E+02  0.45594000000E+02  0.51100000000E-03 0.  1.
         11   -1    0    0    0    0 -0.00000000000E+00 -0.00000000000E+00 -0.45593999997E+02  0.45594000000E+02  0.51100000000E-03 0. -1.
         23    2    1    2    0    0  0.00000000000E+00  0.00000000000E+00  0.00000000000E+00  0.91188000000E+02  0.91188000000E+02 0.  0.
    9900012    2    3    3    0    0 -0.36704686730E+02  0.22391113725E+02  0.59183355561E+01  0.47787277684E+02  0.20000030273E+02 0.  0.
        -12    1    3    3    0    0  0.36704686730E+02 -0.22391113725E+02 -0.59183355561E+01  0.43400722316E+02  0.00000000000E+00 0.  1.
         11    1    4    4    0    0 -0.15895032837E+02  0.33344517469E+01  0.34969482536E+01  0.16613226198E+02  0.51100000000E-03 0. -1.
        -11    1    4    4    0    0 -0.20087862114E+01 -0.15381513642E+01  0.20973692668E+01  0.32863490023E+01  0.51100000000E-03 0.  1.
        -12    1    4    4    0    0 -0.18800867682E+02  0.20594813342E+02  0.32401803572E+00  0.27887702484E+02  0.00000000000E+00 0.  1.
</event>
<event>
 8    1  0.5542925E-011  0.9118800E+02  0.7816164E-02  0.1184000E+00
        -11   -1    0    0    0    0  0.00000000000E+00  0.00000000000E+00  0.45593999997E+02  0.45594000000E+02  0.51100000000E-03 0.  1.
         11   -1    0    0    0    0 -0.00000000000E+00 -0.00000000000E+00 -0.45593999997E+02  0.45594000000E+02  0.51100000000E-03 0. -1.
         23    2    1    2    0    0  0.00000000000E+00 -0.17763568394E-14 -0.88817841970E-15  0.91188000000E+02  0.91188000000E+02 0.  0.
    9900012    2    3    3    0    0 -0.41561034651E+02 -0.10231010488E+02 -0.71853959487E+01  0.47787273142E+02  0.20000009563E+02 0.  0.
        -12    1    3    3    0    0  0.41561034651E+02  0.10231010488E+02  0.71853959487E+01  0.43400726858E+02  0.00000000000E+00 0.  1.
         11    1    4    4    0    0 -0.80021926149E+01 -0.52166232569E+01 -0.27925077575E+01  0.99522030068E+01  0.51100000000E-03 0. -1.
        -11    1    4    4    0    0 -0.16507020060E+02 -0.10214938733E+02  0.24820945382E+00  0.19413611018E+02  0.51100000000E-03 0.  1.
        -12    1    4    4    0    0 -0.17051821976E+02  0.52005515025E+01 -0.46410976451E+01  0.18421459117E+02  0.00000000000E+00 0.  1.
</event>
<event>
 8    1  0.5542925E-011  0.9118800E+02  0.7816164E-02  0.1184000E+00
        -11   -1    0    0    0    0  0.00000000000E+00  0.00000000000E+00  0.45593999997E+02  0.45594000000E+02  0.51100000000E-03 0. -1.
         11   -1    0    0    0    0 -0.00000000000E+00 -0.00000000000E+00 -0.45593999997E+02  0.45594000000E+02  0.51100000000E-03 0.  1.
         23    2    1    2    0    0 -0.88817841970E-15  0.00000000000E+00  0.00000000000E+00  0.91188000000E+02  0.91188000000E+02 0.  0.
    9900012    2    3    3    0    0  0.70852311550E+01  0.71079303955E+01  0.42224399923E+02  0.47787272773E+02  0.20000007879E+02 0.  0.
        -12    1    3    3    0    0 -0.70852311550E+01 -0.71079303955E+01 -0.42224399923E+02  0.43400727227E+02  0.00000000000E+00 0.  1.
         11    1    4    4    0    0 -0.10441588761E+01  0.14385163037E+01  0.32999743023E+01  0.37482566043E+01  0.51100000000E-03 0. -1.
        -11    1    4    4    0    0  0.13018371456E+02 -0.12296431897E+00  0.24724366656E+02  0.27942573654E+02  0.51100000000E-03 0.  1.
        -12    1    4    4    0    0 -0.48889814249E+01  0.57923784108E+01  0.14200058965E+02  0.16096442515E+02  0.00000000000E+00 0.  1.
</event>
<event>
 8    1  0.5542925E-011  0.9118800E+02  0.7816164E-02  0.1184000E+00
        -11   -1    0    0    0    0  0.00000000000E+00  0.00000000000E+00  0.45593999997E+02  0.45594000000E+02  0.51100000000E-03 0. -1.
         11   -1    0    0    0    0 -0.00000000000E+00 -0.00000000000E+00 -0.45593999997E+02  0.45594000000E+02  0.51100000000E-03 0.  1.
         23    2    1    2    0    0 -0.66613381478E-15  0.00000000000E+00  0.00000000000E+00  0.91188000000E+02  0.91188000000E+02 0.  0.
    9900012    2    3    3    0    0  0.64189742582E+00  0.31837759702E+02 -0.29488444686E+02  0.47787270223E+02  0.19999996254E+02 0.  0.
         12    1    3    3    0    0 -0.64189742582E+00 -0.31837759702E+02  0.29488444686E+02  0.43400729777E+02  0.00000000000E+00 0. -1.
         11    1    4    4    0    0  0.16968351100E+01  0.47275350820E+01 -0.43532525450E+01  0.66467770629E+01  0.51100000000E-03 0.  1.
        -11    1    4    4    0    0 -0.78903770334E+01  0.11139464491E+02 -0.17422085357E+02  0.22133114949E+02  0.51100000000E-03 0. -1.
         12    1    4    4    0    0  0.68354393492E+01  0.15970760130E+02 -0.77131067841E+01  0.19007378211E+02  0.00000000000E+00 0. -1.
</event>
<event>
 8    1  0.5542925E-011  0.9118800E+02  0.7816164E-02  0.1184000E+00
        -11   -1    0    0    0    0  0.00000000000E+00  0.00000000000E+00  0.45593999997E+02  0.45594000000E+02  0.51100000000E-03 0. -1.
         11   -1    0    0    0    0 -0.00000000000E+00 -0.00000000000E+00 -0.45593999997E+02  0.45594000000E+02  0.51100000000E-03 0.  1.
         23    2    1    2    0    0  0.00000000000E+00 -0.35527136788E-14  0.00000000000E+00  0.91188000000E+02  0.91188000000E+02 0.  0.
    9900012    2    3    3    0    0 -0.16422854346E+02 -0.18526668670E+02  0.35646537652E+02  0.47787271394E+02  0.20000001596E+02 0.  0.
        -12    1    3    3    0    0  0.16422854346E+02  0.18526668670E+02 -0.35646537652E+02  0.43400728606E+02  0.00000000000E+00 0.  1.
         11    1    4    4    0    0 -0.98053949962E+01 -0.84025473686E+01  0.17270965973E+02  0.21564666452E+02  0.51100000000E-03 0. -1.
        -11    1    4    4    0    0 -0.40861763461E+01 -0.13518988672E+02  0.11811867977E+02  0.18411412689E+02  0.51100000000E-03 0.  1.
        -12    1    4    4    0    0 -0.25312830039E+01  0.33948673706E+01  0.65637037030E+01  0.78111922528E+01  0.00000000000E+00 0.  1.
</event>
<event>
 8    1  0.5542925E-011  0.9118800E+02  0.7816164E-02  0.1184000E+00
        -11   -1    0    0    0    0  0.00000000000E+00  0.00000000000E+00  0.45593999997E+02  0.45594000000E+02  0.51100000000E-03 0. -1.
         11   -1    0    0    0    0 -0.00000000000E+00 -0.00000000000E+00 -0.45593999997E+02  0.45594000000E+02  0.51100000000E-03 0.  1.
         23    2    1    2    0    0  0.00000000000E+00 -0.35527136788E-14 -0.35527136788E-14  0.91188000000E+02  0.91188000000E+02 0.  0.
    9900012    2    3    3    0    0 -0.24369773154E+02 -0.17406526539E+02 -0.31412584694E+02  0.47787268591E+02  0.19999988813E+02 0.  0.
         12    1    3    3    0    0  0.24369773154E+02  0.17406526539E+02  0.31412584694E+02  0.43400731409E+02  0.00000000000E+00 0. -1.
         11    1    4    4    0    0  0.79256102081E+00 -0.38496723438E+00 -0.19138221946E+01  0.21069096794E+01  0.51100000000E-03 0. -1.
        -11    1    4    4    0    0 -0.14184650244E+02 -0.17527384358E+02 -0.25367856105E+02  0.33940265594E+02  0.51100000000E-03 0.  1.
         12    1    4    4    0    0 -0.10977683931E+02  0.50582505276E+00 -0.41309063937E+01  0.11740093317E+02  0.00000000000E+00 0. -1.
</event>
<event>
 8    1  0.5542925E-011  0.9118800E+02  0.7816164E-02  0.1184000E+00
        -11   -1    0    0    0    0  0.00000000000E+00  0.00000000000E+00  0.45593999997E+02  0.45594000000E+02  0.51100000000E-03 0. -1.
         11   -1    0    0    0    0 -0.00000000000E+00 -0.00000000000E+00 -0.45593999997E+02  0.45594000000E+02  0.51100000000E-03 0.  1.
         23    2    1    2    0    0  0.00000000000E+00  0.00000000000E+00  0.00000000000E+00  0.91188000000E+02  0.91188000000E+02 0.  0.
    9900012    2    3    3    0    0  0.33850630419E+02  0.14670471347E+02 -0.22859034097E+02  0.47787270177E+02  0.19999996044E+02 0.  0.
         12    1    3    3    0    0 -0.33850630419E+02 -0.14670471347E+02  0.22859034097E+02  0.43400729823E+02  0.00000000000E+00 0. -1.
         11    1    4    4    0    0  0.15421473054E+02  0.55491844561E+01 -0.74840557043E+01  0.18017390747E+02  0.51100000000E-03 0. -1.
        -11    1    4    4    0    0  0.18718355226E+02  0.34873962374E+01 -0.14767391678E+02  0.24095945969E+02  0.51100000000E-03 0.  1.
         12    1    4    4    0    0 -0.28919786141E+00  0.56338906538E+01 -0.60758671461E+00  0.56739334609E+01  0.00000000000E+00 0. -1.
</event>
<event>
 8    1  0.5542925E-011  0.9118800E+02  0.7816164E-02  0.1184000E+00
        -11   -1    0    0    0    0  0.00000000000E+00  0.00000000000E+00  0.45593999997E+02  0.45594000000E+02  0.51100000000E-03 0. -1.
         11   -1    0    0    0    0 -0.00000000000E+00 -0.00000000000E+00 -0.45593999997E+02  0.45594000000E+02  0.51100000000E-03 0.  1.
         23    2    1    2    0    0  0.00000000000E+00  0.00000000000E+00  0.00000000000E+00  0.91188000000E+02  0.91188000000E+02 0.  0.
    9900012    2    3    3    0    0 -0.39808963500E+02  0.12147377845E+02  0.12300867368E+02  0.47787266118E+02  0.19999977538E+02 0.  0.
        -12    1    3    3    0    0  0.39808963500E+02 -0.12147377845E+02 -0.12300867368E+02  0.43400733882E+02  0.00000000000E+00 0.  1.
         11    1    4    4    0    0 -0.22473965469E+02  0.91248383174E+01  0.10725828273E+02  0.26521410043E+02  0.51100000000E-03 0. -1.
        -11    1    4    4    0    0 -0.97232356687E+01  0.75860381547E+01  0.94222708632E+00  0.12368390312E+02  0.51100000000E-03 0.  1.
        -12    1    4    4    0    0 -0.76117623624E+01 -0.45634986271E+01  0.63281200895E+00  0.88974657639E+01  0.00000000000E+00 0.  1.
</event>
<event>
 8    1  0.5542925E-011  0.9118800E+02  0.7816164E-02  0.1184000E+00
        -11   -1    0    0    0    0  0.00000000000E+00  0.00000000000E+00  0.45593999997E+02  0.45594000000E+02  0.51100000000E-03 0. -1.
         11   -1    0    0    0    0 -0.00000000000E+00 -0.00000000000E+00 -0.45593999997E+02  0.45594000000E+02  0.51100000000E-03 0.  1.
         23    2    1    2    0    0  0.00000000000E+00 -0.22204460493E-15  0.00000000000E+00  0.91188000000E+02  0.91188000000E+02 0.  0.
    9900012    2    3    3    0    0 -0.25264123857E+02 -0.14123967833E+01 -0.35261202430E+02  0.47787271714E+02  0.20000003053E+02 0.  0.
         12    1    3    3    0    0  0.25264123857E+02  0.14123967833E+01  0.35261202430E+02  0.43400728286E+02  0.00000000000E+00 0. -1.
         11    1    4    4    0    0 -0.12589697023E+02 -0.12880725940E+01 -0.38515049409E+01  0.13228518160E+02  0.51100000000E-03 0. -1.
        -11    1    4    4    0    0 -0.50776465160E+01  0.25911932138E+01 -0.81992987916E+01  0.99862544203E+01  0.51100000000E-03 0.  1.
         12    1    4    4    0    0 -0.75967803174E+01 -0.27155174031E+01 -0.23210398698E+02  0.24572499133E+02  0.00000000000E+00 0. -1.
</event>
<event>
 8    1  0.5542925E-011  0.9118800E+02  0.7816164E-02  0.1184000E+00
        -11   -1    0    0    0    0  0.00000000000E+00  0.00000000000E+00  0.45593999997E+02  0.45594000000E+02  0.51100000000E-03 0. -1.
         11   -1    0    0    0    0 -0.00000000000E+00 -0.00000000000E+00 -0.45593999997E+02  0.45594000000E+02  0.51100000000E-03 0.  1.
         23    2    1    2    0    0 -0.17763568394E-14  0.00000000000E+00  0.35527136788E-14  0.91188000000E+02  0.91188000000E+02 0.  0.
    9900012    2    3    3    0    0 -0.14043168969E+02 -0.37216659058E+02  0.17358954408E+02  0.47787267238E+02  0.19999982647E+02 0.  0.
        -12    1    3    3    0    0  0.14043168969E+02  0.37216659058E+02 -0.17358954408E+02  0.43400732762E+02  0.00000000000E+00 0.  1.
         11    1    4    4    0    0 -0.30815906372E+01 -0.46754981743E+01 -0.32853956015E+00  0.56093156923E+01  0.51100000000E-03 0.  1.
        -11    1    4    4    0    0 -0.11270241600E+02 -0.31995255409E+02  0.11292698195E+02  0.35752478896E+02  0.51100000000E-03 0. -1.
         12    1    4    4    0    0  0.30866326853E+00 -0.54590547446E+00  0.63947957728E+01  0.64254726500E+01  0.00000000000E+00 0. -1.
</event>
<event>
 8    1  0.5542925E-011  0.9118800E+02  0.7816164E-02  0.1184000E+00
        -11   -1    0    0    0    0  0.00000000000E+00  0.00000000000E+00  0.45593999997E+02  0.45594000000E+02  0.51100000000E-03 0. -1.
         11   -1    0    0    0    0 -0.00000000000E+00 -0.00000000000E+00 -0.45593999997E+02  0.45594000000E+02  0.51100000000E-03 0.  1.
         23    2    1    2    0    0  0.00000000000E+00  0.00000000000E+00  0.35527136788E-14  0.91188000000E+02  0.91188000000E+02 0.  0.
    9900012    2    3    3    0    0 -0.30979796878E+02 -0.47373705848E+01  0.30023870754E+02  0.47787270632E+02  0.19999998118E+02 0.  0.
        -12    1    3    3    0    0  0.30979796878E+02  0.47373705848E+01 -0.30023870754E+02  0.43400729368E+02  0.00000000000E+00 0.  1.
         11    1    4    4    0    0 -0.14656374670E+02  0.11428402762E+01  0.20799829796E+02  0.25470538317E+02  0.51100000000E-03 0. -1.
        -11    1    4    4    0    0 -0.15932762704E+01  0.13730289100E+01  0.49082368534E+01  0.53398995245E+01  0.51100000000E-03 0.  1.
        -12    1    4    4    0    0 -0.14730145937E+02 -0.72532397710E+01  0.43158041045E+01  0.16976832790E+02  0.00000000000E+00 0.  1.
</event>
<event>
 8    1  0.5542925E-011  0.9118800E+02  0.7816164E-02  0.1184000E+00
        -11   -1    0    0    0    0  0.00000000000E+00  0.00000000000E+00  0.45593999997E+02  0.45594000000E+02  0.51100000000E-03 0. -1.
         11   -1    0    0    0    0 -0.00000000000E+00 -0.00000000000E+00 -0.45593999997E+02  0.45594000000E+02  0.51100000000E-03 0.  1.
         23    2    1    2    0    0  0.35527136788E-14 -0.17763568394E-14 -0.71054273576E-14  0.91188000000E+02  0.91188000000E+02 0.  0.
    9900012    2    3    3    0    0  0.13024145497E+02 -0.14806402945E+02 -0.38662194913E+02  0.47787271324E+02  0.20000001276E+02 0.  0.
         12    1    3    3    0    0 -0.13024145497E+02  0.14806402945E+02  0.38662194913E+02  0.43400728676E+02  0.00000000000E+00 0. -1.
         11    1    4    4    0    0  0.39666571678E+01 -0.66392997552E+01 -0.68362684271E+01  0.10322268965E+02  0.51100000000E-03 0.  1.
        -11    1    4    4    0    0  0.74445320165E+01 -0.97608852794E+01 -0.32781291888E+02  0.35004414529E+02  0.51100000000E-03 0. -1.
         12    1    4    4    0    0  0.16129563128E+01  0.15937820897E+01  0.95536540247E+00  0.24605878299E+01  0.00000000000E+00 0. -1.
</event>
<event>
 8    1  0.5542925E-011  0.9118800E+02  0.7816164E-02  0.1184000E+00
        -11   -1    0    0    0    0  0.00000000000E+00  0.00000000000E+00  0.45593999997E+02  0.45594000000E+02  0.51100000000E-03 0. -1.
         11   -1    0    0    0    0 -0.00000000000E+00 -0.00000000000E+00 -0.45593999997E+02  0.45594000000E+02  0.51100000000E-03 0.  1.
         23    2    1    2    0    0 -0.71054273576E-14 -0.55511151231E-15 -0.35527136788E-14  0.91188000000E+02  0.91188000000E+02 0.  0.
    9900012    2    3    3    0    0 -0.33902332902E+02 -0.58811980257E+00 -0.27090764195E+02  0.47787267682E+02  0.19999984670E+02 0.  0.
         12    1    3    3    0    0  0.33902332902E+02  0.58811980257E+00  0.27090764195E+02  0.43400732318E+02  0.00000000000E+00 0. -1.
         11    1    4    4    0    0 -0.81851931165E+01  0.21578202509E+01  0.98099154494E+00  0.85214974777E+01  0.51100000000E-03 0. -1.
        -11    1    4    4    0    0 -0.11289728716E+02 -0.39419376517E+01 -0.75167385628E+01  0.14124383378E+02  0.51100000000E-03 0.  1.
        -12    1    4    4    0    0 -0.14427411069E+02  0.11959975982E+01 -0.20555017177E+02  0.25141386826E+02  0.00000000000E+00 0.  1.
</event>
<event>
 8    1  0.5542925E-011  0.9118800E+02  0.7816164E-02  0.1184000E+00
        -11   -1    0    0    0    0  0.00000000000E+00  0.00000000000E+00  0.45593999997E+02  0.45594000000E+02  0.51100000000E-03 0. -1.
         11   -1    0    0    0    0 -0.00000000000E+00 -0.00000000000E+00 -0.45593999997E+02  0.45594000000E+02  0.51100000000E-03 0.  1.
         23    2    1    2    0    0  0.88817841970E-15  0.00000000000E+00  0.00000000000E+00  0.91188000000E+02  0.91188000000E+02 0.  0.
    9900012    2    3    3    0    0 -0.34870147735E+01  0.41811464638E+02 -0.11102482736E+02  0.47787274544E+02  0.20000015958E+02 0.  0.
         12    1    3    3    0    0  0.34870147735E+01 -0.41811464638E+02  0.11102482736E+02  0.43400725456E+02  0.00000000000E+00 0. -1.
         11    1    4    4    0    0 -0.87112680097E+01  0.11251372868E+02 -0.25877223997E+01  0.14462914272E+02  0.51100000000E-03 0. -1.
        -11    1    4    4    0    0 -0.13214786262E+01  0.91883511597E+01  0.32393805971E+00  0.92885434230E+01  0.51100000000E-03 0.  1.
        -12    1    4    4    0    0  0.65457318624E+01  0.21371740609E+02 -0.88386983958E+01  0.24035816850E+02  0.00000000000E+00 0.  1.
</event>
<event>
 8    1  0.5542925E-011  0.9118800E+02  0.7816164E-02  0.1184000E+00
        -11   -1    0    0    0    0  0.00000000000E+00  0.00000000000E+00  0.45593999997E+02  0.45594000000E+02  0.51100000000E-03 0. -1.
         11   -1    0    0    0    0 -0.00000000000E+00 -0.00000000000E+00 -0.45593999997E+02  0.45594000000E+02  0.51100000000E-03 0.  1.
         23    2    1    2    0    0  0.00000000000E+00  0.00000000000E+00  0.35527136788E-14  0.91188000000E+02  0.91188000000E+02 0.  0.
    9900012    2    3    3    0    0  0.83441982874E+01 -0.29038033904E+02 -0.31157503081E+02  0.47787273551E+02  0.20000011430E+02 0.  0.
         12    1    3    3    0    0 -0.83441982874E+01  0.29038033904E+02  0.31157503081E+02  0.43400726449E+02  0.00000000000E+00 0. -1.
         11    1    4    4    0    0  0.81304993346E+01 -0.19187183825E+02 -0.78127750304E+01  0.22255167861E+02  0.51100000000E-03 0. -1.
        -11    1    4    4    0    0 -0.55060129341E+00 -0.34860713479E+00 -0.29255280637E+01  0.29972326288E+01  0.51100000000E-03 0.  1.
         12    1    4    4    0    0  0.76430024619E+00 -0.95022429437E+01 -0.20419199986E+02  0.22534873062E+02  0.00000000000E+00 0. -1.
</event>
<event>
 8    1  0.5542925E-011  0.9118800E+02  0.7816164E-02  0.1184000E+00
        -11   -1    0    0    0    0  0.00000000000E+00  0.00000000000E+00  0.45593999997E+02  0.45594000000E+02  0.51100000000E-03 0.  1.
         11   -1    0    0    0    0 -0.00000000000E+00 -0.00000000000E+00 -0.45593999997E+02  0.45594000000E+02  0.51100000000E-03 0. -1.
         23    2    1    2    0    0  0.00000000000E+00  0.00000000000E+00 -0.17763568394E-14  0.91188000000E+02  0.91188000000E+02 0.  0.
    9900012    2    3    3    0    0 -0.38954760709E+02 -0.16005573407E+02  0.10486711467E+02  0.47787275589E+02  0.20000020723E+02 0.  0.
         12    1    3    3    0    0  0.38954760709E+02  0.16005573407E+02 -0.10486711467E+02  0.43400724411E+02  0.00000000000E+00 0. -1.
         11    1    4    4    0    0 -0.16129421133E+02 -0.22297121720E+01  0.39996492049E+01  0.16766843367E+02  0.51100000000E-03 0. -1.
        -11    1    4    4    0    0 -0.17122011198E+02 -0.39034548680E+01  0.83878378173E+01  0.19461655914E+02  0.51100000000E-03 0.  1.
         12    1    4    4    0    0 -0.57033283770E+01 -0.98724063672E+01 -0.19007755550E+01  0.11558776309E+02  0.00000000000E+00 0. -1.
</event>
<event>
 8    1  0.5542925E-011  0.9118800E+02  0.7816164E-02  0.1184000E+00
        -11   -1    0    0    0    0  0.00000000000E+00  0.00000000000E+00  0.45593999997E+02  0.45594000000E+02  0.51100000000E-03 0. -1.
         11   -1    0    0    0    0 -0.00000000000E+00 -0.00000000000E+00 -0.45593999997E+02  0.45594000000E+02  0.51100000000E-03 0.  1.
         23    2    1    2    0    0  0.00000000000E+00  0.00000000000E+00  0.00000000000E+00  0.91188000000E+02  0.91188000000E+02 0.  0.
    9900012    2    3    3    0    0  0.26217474886E+02 -0.33019350000E+02 -0.10295135784E+02  0.47787270921E+02  0.19999999435E+02 0.  0.
         12    1    3    3    0    0 -0.26217474886E+02  0.33019350000E+02  0.10295135784E+02  0.43400729079E+02  0.00000000000E+00 0. -1.
         11    1    4    4    0    0  0.64026923175E+01 -0.37717424521E+01 -0.63795008253E+01  0.97938011558E+01  0.51100000000E-03 0. -1.
        -11    1    4    4    0    0  0.95219110782E+01 -0.37951649936E+01  0.71322202610E-01  0.10250617300E+02  0.51100000000E-03 0.  1.
        -12    1    4    4    0    0  0.10292871490E+02 -0.25452442554E+02 -0.39869571618E+01  0.27742852465E+02  0.00000000000E+00 0.  1.
</event>
<event>
 8    1  0.5542925E-011  0.9118800E+02  0.7816164E-02  0.1184000E+00
        -11   -1    0    0    0    0  0.00000000000E+00  0.00000000000E+00  0.45593999997E+02  0.45594000000E+02  0.51100000000E-03 0. -1.
         11   -1    0    0    0    0 -0.00000000000E+00 -0.00000000000E+00 -0.45593999997E+02  0.45594000000E+02  0.51100000000E-03 0.  1.
         23    2    1    2    0    0  0.71054273576E-14  0.00000000000E+00  0.00000000000E+00  0.91188000000E+02  0.91188000000E+02 0.  0.
    9900012    2    3    3    0    0 -0.27561714855E+02 -0.33899148743E+01  0.33353914388E+02  0.47787271278E+02  0.20000001066E+02 0.  0.
        -12    1    3    3    0    0  0.27561714855E+02  0.33899148743E+01 -0.33353914388E+02  0.43400728722E+02  0.00000000000E+00 0.  1.
         11    1    4    4    0    0 -0.84184158359E+01  0.28700407849E+01  0.14023006147E+02  0.16605768906E+02  0.51100000000E-03 0. -1.
        -11    1    4    4    0    0 -0.17807214031E+02 -0.61195190758E-01  0.16349340942E+02  0.24174398977E+02  0.51100000000E-03 0.  1.
        -12    1    4    4    0    0 -0.13360849882E+01 -0.61987604684E+01  0.29815672981E+01  0.70071033953E+01  0.00000000000E+00 0.  1.
</event>
<event>
 8    1  0.5542925E-011  0.9118800E+02  0.7816164E-02  0.1184000E+00
        -11   -1    0    0    0    0  0.00000000000E+00  0.00000000000E+00  0.45593999997E+02  0.45594000000E+02  0.51100000000E-03 0. -1.
         11   -1    0    0    0    0 -0.00000000000E+00 -0.00000000000E+00 -0.45593999997E+02  0.45594000000E+02  0.51100000000E-03 0.  1.
         23    2    1    2    0    0 -0.22204460493E-15  0.00000000000E+00  0.00000000000E+00  0.91188000000E+02  0.91188000000E+02 0.  0.
    9900012    2    3    3    0    0 -0.13232199860E+01 -0.38130771213E+02  0.20686151333E+02  0.47787268654E+02  0.19999989099E+02 0.  0.
        -12    1    3    3    0    0  0.13232199860E+01  0.38130771213E+02 -0.20686151333E+02  0.43400731346E+02  0.00000000000E+00 0.  1.
         11    1    4    4    0    0  0.21982403310E+01 -0.76494854629E+01  0.70825560665E+01  0.10654083212E+02  0.51100000000E-03 0. -1.
        -11    1    4    4    0    0 -0.26571406857E+01 -0.31726359772E+02  0.10239686480E+02  0.33443586537E+02  0.51100000000E-03 0.  1.
        -12    1    4    4    0    0 -0.86431963126E+00  0.12450740220E+01  0.33639087868E+01  0.36895989038E+01  0.00000000000E+00 0.  1.
</event>
<event>
 8    1  0.5542925E-011  0.9118800E+02  0.7816164E-02  0.1184000E+00
        -11   -1    0    0    0    0  0.00000000000E+00  0.00000000000E+00  0.45593999997E+02  0.45594000000E+02  0.51100000000E-03 0.  1.
         11   -1    0    0    0    0 -0.00000000000E+00 -0.00000000000E+00 -0.45593999997E+02  0.45594000000E+02  0.51100000000E-03 0. -1.
         23    2    1    2    0    0  0.00000000000E+00  0.35527136788E-14 -0.17763568394E-14  0.91188000000E+02  0.91188000000E+02 0.  0.
    9900012    2    3    3    0    0 -0.28566965468E+02  0.31086477238E+02  0.10058950915E+02  0.47787273317E+02  0.20000010361E+02 0.  0.
         12    1    3    3    0    0  0.28566965468E+02 -0.31086477238E+02 -0.10058950915E+02  0.43400726683E+02  0.00000000000E+00 0. -1.
         11    1    4    4    0    0 -0.18627352516E+01  0.72319372136E+01  0.23548676190E+01  0.78304597721E+01  0.51100000000E-03 0. -1.
        -11    1    4    4    0    0 -0.26171104912E+02  0.25955781415E+02  0.63547882048E+01  0.37403377582E+02  0.51100000000E-03 0.  1.
        -12    1    4    4    0    0 -0.53312530483E+00 -0.21012413907E+01  0.13492950908E+01  0.25534359625E+01  0.00000000000E+00 0.  1.
</event>
<event>
 8    1  0.5542925E-011  0.9118800E+02  0.7816164E-02  0.1184000E+00
        -11   -1    0    0    0    0  0.00000000000E+00  0.00000000000E+00  0.45593999997E+02  0.45594000000E+02  0.51100000000E-03 0. -1.
         11   -1    0    0    0    0 -0.00000000000E+00 -0.00000000000E+00 -0.45593999997E+02  0.45594000000E+02  0.51100000000E-03 0.  1.
         23    2    1    2    0    0  0.00000000000E+00  0.00000000000E+00  0.88817841970E-15  0.91188000000E+02  0.91188000000E+02 0.  0.
    9900012    2    3    3    0    0  0.32282910832E+02  0.28575086568E+02 -0.49897986142E+01  0.47787308827E+02  0.20000172263E+02 0.  0.
        -12    1    3    3    0    0 -0.32282910832E+02 -0.28575086568E+02  0.49897986142E+01  0.43400691173E+02  0.00000000000E+00 0.  1.
         11    1    4    4    0    0  0.16906489886E+02  0.10364788392E+02 -0.46566953587E+01  0.20370150972E+02  0.51100000000E-03 0. -1.
        -11    1    4    4    0    0  0.13037643294E+02  0.49437799228E+01 -0.83157529670E-01  0.13943744764E+02  0.51100000000E-03 0.  1.
         12    1    4    4    0    0  0.23387776509E+01  0.13266518253E+02 -0.24994572582E+00  0.13473413091E+02  0.00000000000E+00 0. -1.
</event>
<event>
 8    1  0.5542925E-011  0.9118800E+02  0.7816164E-02  0.1184000E+00
        -11   -1    0    0    0    0  0.00000000000E+00  0.00000000000E+00  0.45593999997E+02  0.45594000000E+02  0.51100000000E-03 0. -1.
         11   -1    0    0    0    0 -0.00000000000E+00 -0.00000000000E+00 -0.45593999997E+02  0.45594000000E+02  0.51100000000E-03 0.  1.
         23    2    1    2    0    0  0.00000000000E+00  0.00000000000E+00  0.00000000000E+00  0.91188000000E+02  0.91188000000E+02 0.  0.
    9900012    2    3    3    0    0  0.30866517120E+02  0.21354359828E+02  0.21791579611E+02  0.47787268385E+02  0.19999987876E+02 0.  0.
        -12    1    3    3    0    0 -0.30866517120E+02 -0.21354359828E+02 -0.21791579611E+02  0.43400731615E+02  0.00000000000E+00 0.  1.
         11    1    4    4    0    0  0.87815200411E+01  0.11432953039E+02  0.98940046768E+01  0.17484817363E+02  0.51100000000E-03 0. -1.
        -11    1    4    4    0    0 -0.14523718718E+01  0.27639083437E+01  0.23721583348E+01  0.39211871688E+01  0.51100000000E-03 0.  1.
        -12    1    4    4    0    0  0.23537368950E+02  0.71574984453E+01  0.95254165995E+01  0.26381263853E+02  0.00000000000E+00 0.  1.
</event>
<event>
 8    1  0.5542925E-011  0.9118800E+02  0.7816164E-02  0.1184000E+00
        -11   -1    0    0    0    0  0.00000000000E+00  0.00000000000E+00  0.45593999997E+02  0.45594000000E+02  0.51100000000E-03 0. -1.
         11   -1    0    0    0    0 -0.00000000000E+00 -0.00000000000E+00 -0.45593999997E+02  0.45594000000E+02  0.51100000000E-03 0.  1.
         23    2    1    2    0    0  0.00000000000E+00  0.00000000000E+00  0.00000000000E+00  0.91188000000E+02  0.91188000000E+02 0.  0.
    9900012    2    3    3    0    0 -0.20362471152E+01 -0.41625970316E+02 -0.12114275343E+02  0.47787269889E+02  0.19999994731E+02 0.  0.
         12    1    3    3    0    0  0.20362471152E+01  0.41625970316E+02  0.12114275343E+02  0.43400730111E+02  0.00000000000E+00 0. -1.
         11    1    4    4    0    0  0.21365240501E+00 -0.96393762722E+00  0.19642929346E+01  0.21984699437E+01  0.51100000000E-03 0. -1.
        -11    1    4    4    0    0 -0.37793692060E+00 -0.10065354342E+02 -0.10787298790E+02  0.14758726564E+02  0.51100000000E-03 0.  1.
         12    1    4    4    0    0 -0.18719625996E+01 -0.30596678347E+02 -0.32912694883E+01  0.30830073381E+02  0.00000000000E+00 0. -1.
</event>
<event>
 8    1  0.5542925E-011  0.9118800E+02  0.7816164E-02  0.1184000E+00
        -11   -1    0    0    0    0  0.00000000000E+00  0.00000000000E+00  0.45593999997E+02  0.45594000000E+02  0.51100000000E-03 0.  1.
         11   -1    0    0    0    0 -0.00000000000E+00 -0.00000000000E+00 -0.45593999997E+02  0.45594000000E+02  0.51100000000E-03 0. -1.
         23    2    1    2    0    0  0.00000000000E+00  0.00000000000E+00 -0.88817841970E-15  0.91188000000E+02  0.91188000000E+02 0.  0.
    9900012    2    3    3    0    0  0.33203291276E+02 -0.27179273095E+02  0.65154869895E+01  0.47787274105E+02  0.20000013954E+02 0.  0.
        -12    1    3    3    0    0 -0.33203291276E+02  0.27179273095E+02 -0.65154869895E+01  0.43400725895E+02  0.00000000000E+00 0.  1.
         11    1    4    4    0    0  0.29519191160E+02 -0.12823752106E+02  0.36969449957E+01  0.32395966839E+02  0.51100000000E-03 0. -1.
        -11    1    4    4    0    0  0.29765850792E+01 -0.55559622840E+01  0.11750238888E+01  0.64116656990E+01  0.51100000000E-03 0.  1.
         12    1    4    4    0    0  0.70751503629E+00 -0.87995587043E+01  0.16435181049E+01  0.89796415673E+01  0.00000000000E+00 0. -1.
</event>
<event>
 8    1  0.5542925E-011  0.9118800E+02  0.7816164E-02  0.1184000E+00
        -11   -1    0    0    0    0  0.00000000000E+00  0.00000000000E+00  0.45593999997E+02  0.45594000000E+02  0.51100000000E-03 0. -1.
         11   -1    0    0    0    0 -0.00000000000E+00 -0.00000000000E+00 -0.45593999997E+02  0.45594000000E+02  0.51100000000E-03 0.  1.
         23    2    1    2    0    0  0.00000000000E+00 -0.88817841970E-15  0.00000000000E+00  0.91188000000E+02  0.91188000000E+02 0.  0.
    9900012    2    3    3    0    0 -0.13166085335E+02 -0.56011322940E+01  0.40974439925E+02  0.47787271743E+02  0.20000003186E+02 0.  0.
        -12    1    3    3    0    0  0.13166085335E+02  0.56011322940E+01 -0.40974439925E+02  0.43400728257E+02  0.00000000000E+00 0.  1.
         11    1    4    4    0    0 -0.45762170519E+01 -0.52164193485E+01  0.59421317957E+01  0.91357388242E+01  0.51100000000E-03 0. -1.
        -11    1    4    4    0    0 -0.24976918550E+01 -0.13262174157E+01  0.31336906300E+02  0.31464249776E+02  0.51100000000E-03 0.  1.
         12    1    4    4    0    0 -0.60921764282E+01  0.94150447012E+00  0.36954018295E+01  0.71872831432E+01  0.00000000000E+00 0. -1.
</event>
<event>
 8    1  0.8482066E-011  0.9118800E+02  0.7816164E-02  0.1184000E+00
        -11   -1    0    0    0    0  0.00000000000E+00  0.00000000000E+00  0.45593999997E+02  0.45594000000E+02  0.51100000000E-03 0. -1.
         11   -1    0    0    0    0 -0.00000000000E+00 -0.00000000000E+00 -0.45593999997E+02  0.45594000000E+02  0.51100000000E-03 0.  1.
         23    2    1    2    0    0 -0.35527136788E-14  0.00000000000E+00  0.00000000000E+00  0.91188000000E+02  0.91188000000E+02 0.  0.
    9900012    2    3    3    0    0 -0.17192282322E+02 -0.15901748754E+02  0.36540155923E+02  0.47787272129E+02  0.20000004943E+02 0.  0.
        -12    1    3    3    0    0  0.17192282322E+02  0.15901748754E+02 -0.36540155923E+02  0.43400727871E+02  0.00000000000E+00 0.  1.
         11    1    4    4    0    0 -0.60216577937E+01  0.75652075808E+00  0.14893335369E+02  0.16082416638E+02  0.51100000000E-03 0. -1.
        -11    1    4    4    0    0 -0.34226459046E+01 -0.16592711198E+01 -0.52261341992E+00  0.38393763407E+01  0.51100000000E-03 0.  1.
         12    1    4    4    0    0 -0.77479786237E+01 -0.14998998392E+02  0.22169433974E+02  0.27865479150E+02  0.00000000000E+00 0. -1.
</event>
<event>
 8    1  0.5542925E-011  0.9118800E+02  0.7816164E-02  0.1184000E+00
        -11   -1    0    0    0    0  0.00000000000E+00  0.00000000000E+00  0.45593999997E+02  0.45594000000E+02  0.51100000000E-03 0. -1.
         11   -1    0    0    0    0 -0.00000000000E+00 -0.00000000000E+00 -0.45593999997E+02  0.45594000000E+02  0.51100000000E-03 0.  1.
         23    2    1    2    0    0  0.00000000000E+00  0.00000000000E+00  0.00000000000E+00  0.91188000000E+02  0.91188000000E+02 0.  0.
    9900012    2    3    3    0    0 -0.10875332210E+02  0.33764743429E+02  0.25005852851E+02  0.47787269288E+02  0.19999991993E+02 0.  0.
        -12    1    3    3    0    0  0.10875332210E+02 -0.33764743429E+02 -0.25005852851E+02  0.43400730712E+02  0.00000000000E+00 0.  1.
         11    1    4    4    0    0 -0.43895725757E+01  0.18765293224E+02  0.22480113021E+02  0.29610134394E+02  0.51100000000E-03 0. -1.
        -11    1    4    4    0    0 -0.48281630817E+01  0.25896058538E+01  0.89193668005E+00  0.55509250151E+01  0.51100000000E-03 0.  1.
        -12    1    4    4    0    0 -0.16575965531E+01  0.12409844352E+02  0.16338031500E+01  0.12626209879E+02  0.00000000000E+00 0.  1.
</event>
<event>
 8    1  0.5542925E-011  0.9118800E+02  0.7816164E-02  0.1184000E+00
        -11   -1    0    0    0    0  0.00000000000E+00  0.00000000000E+00  0.45593999997E+02  0.45594000000E+02  0.51100000000E-03 0. -1.
         11   -1    0    0    0    0 -0.00000000000E+00 -0.00000000000E+00 -0.45593999997E+02  0.45594000000E+02  0.51100000000E-03 0.  1.
         23    2    1    2    0    0  0.00000000000E+00  0.00000000000E+00  0.00000000000E+00  0.91188000000E+02  0.91188000000E+02 0.  0.
    9900012    2    3    3    0    0  0.27219972496E+02  0.13898392463E+02 -0.30814465848E+02  0.47787268194E+02  0.19999987005E+02 0.  0.
         12    1    3    3    0    0 -0.27219972496E+02 -0.13898392463E+02  0.30814465848E+02  0.43400731806E+02  0.00000000000E+00 0. -1.
         11    1    4    4    0    0  0.35511948353E+01 -0.25345398162E+01 -0.20175574334E+01  0.48068092428E+01  0.51100000000E-03 0. -1.
        -11    1    4    4    0    0  0.22185877803E+01  0.68598949266E+01 -0.12367326250E+02  0.14315412986E+02  0.51100000000E-03 0.  1.
        -12    1    4    4    0    0  0.21450189881E+02  0.95730373524E+01 -0.16429582165E+02  0.28665045965E+02  0.00000000000E+00 0.  1.
</event>
<event>
 8    1  0.5542925E-011  0.9118800E+02  0.7816164E-02  0.1184000E+00
        -11   -1    0    0    0    0  0.00000000000E+00  0.00000000000E+00  0.45593999997E+02  0.45594000000E+02  0.51100000000E-03 0. -1.
         11   -1    0    0    0    0 -0.00000000000E+00 -0.00000000000E+00 -0.45593999997E+02  0.45594000000E+02  0.51100000000E-03 0.  1.
         23    2    1    2    0    0 -0.26645352591E-14  0.35527136788E-14 -0.71054273576E-14  0.91188000000E+02  0.91188000000E+02 0.  0.
    9900012    2    3    3    0    0  0.79009169501E+01 -0.18999305413E+02  0.38212892009E+02  0.47787271774E+02  0.20000003328E+02 0.  0.
        -12    1    3    3    0    0 -0.79009169501E+01  0.18999305413E+02 -0.38212892009E+02  0.43400728226E+02  0.00000000000E+00 0.  1.
         11    1    4    4    0    0  0.22849885085E+01 -0.59878527425E+01  0.43034943519E+01  0.77198197419E+01  0.51100000000E-03 0. -1.
        -11    1    4    4    0    0  0.86131840169E+01 -0.66632001159E+00  0.13534856559E+02  0.16056875898E+02  0.51100000000E-03 0.  1.
        -12    1    4    4    0    0 -0.29972555753E+01 -0.12345132659E+02  0.20374541098E+02  0.24010576135E+02  0.00000000000E+00 0.  1.
</event>
<event>
 8    1  0.5542925E-011  0.9118800E+02  0.7816164E-02  0.1184000E+00
        -11   -1    0    0    0    0  0.00000000000E+00  0.00000000000E+00  0.45593999997E+02  0.45594000000E+02  0.51100000000E-03 0. -1.
         11   -1    0    0    0    0 -0.00000000000E+00 -0.00000000000E+00 -0.45593999997E+02  0.45594000000E+02  0.51100000000E-03 0.  1.
         23    2    1    2    0    0  0.88817841970E-15  0.22204460493E-15  0.00000000000E+00  0.91188000000E+02  0.91188000000E+02 0.  0.
    9900012    2    3    3    0    0  0.46810639359E+01 -0.10819693307E+01 -0.43133977050E+02  0.47787274276E+02  0.20000014735E+02 0.  0.
         12    1    3    3    0    0 -0.46810639359E+01  0.10819693307E+01  0.43133977050E+02  0.43400725724E+02  0.00000000000E+00 0. -1.
         11    1    4    4    0    0  0.79993761204E-01 -0.42670147321E+01 -0.26912287463E+01  0.50454460805E+01  0.51100000000E-03 0. -1.
        -11    1    4    4    0    0 -0.11574799810E+00 -0.43832405197E+01 -0.19364368332E+02  0.19854595343E+02  0.51100000000E-03 0.  1.
         12    1    4    4    0    0  0.47168181728E+01  0.75682859211E+01 -0.21078379971E+02  0.22887232853E+02  0.00000000000E+00 0. -1.
</event>
<event>
 8    1  0.5542925E-011  0.9118800E+02  0.7816164E-02  0.1184000E+00
        -11   -1    0    0    0    0  0.00000000000E+00  0.00000000000E+00  0.45593999997E+02  0.45594000000E+02  0.51100000000E-03 0. -1.
         11   -1    0    0    0    0 -0.00000000000E+00 -0.00000000000E+00 -0.45593999997E+02  0.45594000000E+02  0.51100000000E-03 0.  1.
         23    2    1    2    0    0  0.00000000000E+00  0.00000000000E+00  0.00000000000E+00  0.91188000000E+02  0.91188000000E+02 0.  0.
    9900012    2    3    3    0    0 -0.12256981603E+02 -0.37023462204E+02  0.19043455950E+02  0.47787267678E+02  0.19999984652E+02 0.  0.
        -12    1    3    3    0    0  0.12256981603E+02  0.37023462204E+02 -0.19043455950E+02  0.43400732322E+02  0.00000000000E+00 0.  1.
         11    1    4    4    0    0 -0.17882554226E+01 -0.20238142763E+01 -0.87885622427E+00  0.28400827815E+01  0.51100000000E-03 0. -1.
        -11    1    4    4    0    0  0.23325913729E+01 -0.31827115991E+01 -0.18145852318E+01  0.43431964566E+01  0.51100000000E-03 0.  1.
         12    1    4    4    0    0 -0.12801317553E+02 -0.31816936328E+02  0.21736897406E+02  0.40603988440E+02  0.00000000000E+00 0. -1.
</event>
<event>
 8    1  0.5542925E-011  0.9118800E+02  0.7816164E-02  0.1184000E+00
        -11   -1    0    0    0    0  0.00000000000E+00  0.00000000000E+00  0.45593999997E+02  0.45594000000E+02  0.51100000000E-03 0. -1.
         11   -1    0    0    0    0 -0.00000000000E+00 -0.00000000000E+00 -0.45593999997E+02  0.45594000000E+02  0.51100000000E-03 0.  1.
         23    2    1    2    0    0 -0.88817841970E-15  0.00000000000E+00  0.63837823916E-15  0.91188000000E+02  0.91188000000E+02 0.  0.
    9900012    2    3    3    0    0 -0.48247031938E+01  0.43131360703E+02 -0.17570945272E+00  0.47787275227E+02  0.20000019072E+02 0.  0.
         12    1    3    3    0    0  0.48247031938E+01 -0.43131360703E+02  0.17570945272E+00  0.43400724773E+02  0.00000000000E+00 0. -1.
         11    1    4    4    0    0 -0.10381957369E+01  0.19249608051E+02  0.35815124491E+01  0.19607460115E+02  0.51100000000E-03 0. -1.
        -11    1    4    4    0    0  0.82720790468E+00  0.90855155339E+01  0.49738549759E+01  0.10390866134E+02  0.51100000000E-03 0.  1.
        -12    1    4    4    0    0 -0.46137153616E+01  0.14796237118E+02 -0.87310768777E+01  0.17788948978E+02  0.00000000000E+00 0.  1.
</event>
<event>
 8    1  0.5542925E-011  0.9118800E+02  0.7816164E-02  0.1184000E+00
        -11   -1    0    0    0    0  0.00000000000E+00  0.00000000000E+00  0.45593999997E+02  0.45594000000E+02  0.51100000000E-03 0. -1.
         11   -1    0    0    0    0 -0.00000000000E+00 -0.00000000000E+00 -0.45593999997E+02  0.45594000000E+02  0.51100000000E-03 0.  1.
         23    2    1    2    0    0  0.00000000000E+00  0.00000000000E+00  0.00000000000E+00  0.91188000000E+02  0.91188000000E+02 0.  0.
    9900012    2    3    3    0    0  0.20794362729E+02  0.21765120169E+02  0.31264952803E+02  0.47787271307E+02  0.20000001197E+02 0.  0.
        -12    1    3    3    0    0 -0.20794362729E+02 -0.21765120169E+02 -0.31264952803E+02  0.43400728693E+02  0.00000000000E+00 0.  1.
         11    1    4    4    0    0  0.78899611844E+01 -0.44231129097E+00  0.77504258289E+01  0.11068704873E+02  0.51100000000E-03 0. -1.
        -11    1    4    4    0    0 -0.10453247369E+01  0.43485130834E+01  0.82853828561E+01  0.94154043554E+01  0.51100000000E-03 0.  1.
         12    1    4    4    0    0  0.13949726282E+02  0.17858918377E+02  0.15229144118E+02  0.27303162079E+02  0.00000000000E+00 0. -1.
</event>
<event>
 8    1  0.5542925E-011  0.9118800E+02  0.7816164E-02  0.1184000E+00
        -11   -1    0    0    0    0  0.00000000000E+00  0.00000000000E+00  0.45593999997E+02  0.45594000000E+02  0.51100000000E-03 0. -1.
         11   -1    0    0    0    0 -0.00000000000E+00 -0.00000000000E+00 -0.45593999997E+02  0.45594000000E+02  0.51100000000E-03 0.  1.
         23    2    1    2    0    0 -0.35527136788E-14  0.00000000000E+00  0.71054273576E-14  0.91188000000E+02  0.91188000000E+02 0.  0.
    9900012    2    3    3    0    0 -0.25298578624E+02 -0.20271835905E+01  0.35206455998E+02  0.47787284595E+02  0.20000061782E+02 0.  0.
        -12    1    3    3    0    0  0.25298578624E+02  0.20271835905E+01 -0.35206455998E+02  0.43400715405E+02  0.00000000000E+00 0.  1.
         11    1    4    4    0    0 -0.30759313827E+01 -0.19906912353E+01  0.75203222380E+00  0.37402885172E+01  0.51100000000E-03 0. -1.
        -11    1    4    4    0    0 -0.97524029206E+01 -0.30569250212E+01  0.39555064951E+01  0.10959023004E+02  0.51100000000E-03 0.  1.
         12    1    4    4    0    0 -0.12470244321E+02  0.30204326661E+01  0.30498917279E+02  0.33087973074E+02  0.00000000000E+00 0. -1.
</event>
<event>
 8    1  0.5542925E-011  0.9118800E+02  0.7816164E-02  0.1184000E+00
        -11   -1    0    0    0    0  0.00000000000E+00  0.00000000000E+00  0.45593999997E+02  0.45594000000E+02  0.51100000000E-03 0.  1.
         11   -1    0    0    0    0 -0.00000000000E+00 -0.00000000000E+00 -0.45593999997E+02  0.45594000000E+02  0.51100000000E-03 0. -1.
         23    2    1    2    0    0  0.00000000000E+00  0.00000000000E+00  0.00000000000E+00  0.91188000000E+02  0.91188000000E+02 0.  0.
    9900012    2    3    3    0    0  0.33271016720E+02  0.23855148749E+02  0.14408129931E+02  0.47787275541E+02  0.20000020503E+02 0.  0.
        -12    1    3    3    0    0 -0.33271016720E+02 -0.23855148749E+02 -0.14408129931E+02  0.43400724459E+02  0.00000000000E+00 0.  1.
         11    1    4    4    0    0  0.51119698889E+01  0.38252301396E+01  0.49435335008E+01  0.80748464692E+01  0.51100000000E-03 0. -1.
        -11    1    4    4    0    0  0.44276711180E+01  0.38193263312E+01 -0.48576550392E+01  0.76018641066E+01  0.51100000000E-03 0.  1.
         12    1    4    4    0    0  0.23731375713E+02  0.16210592278E+02  0.14322251470E+02  0.32110564966E+02  0.00000000000E+00 0. -1.
</event>
<event>
 8    1  0.5542925E-011  0.9118800E+02  0.7816164E-02  0.1184000E+00
        -11   -1    0    0    0    0  0.00000000000E+00  0.00000000000E+00  0.45593999997E+02  0.45594000000E+02  0.51100000000E-03 0. -1.
         11   -1    0    0    0    0 -0.00000000000E+00 -0.00000000000E+00 -0.45593999997E+02  0.45594000000E+02  0.51100000000E-03 0.  1.
         23    2    1    2    0    0  0.71054273576E-14 -0.35527136788E-14  0.10658141036E-13  0.91188000000E+02  0.91188000000E+02 0.  0.
    9900012    2    3    3    0    0 -0.19097784452E+02  0.23488773250E+02 -0.31099445070E+02  0.47787270473E+02  0.19999997396E+02 0.  0.
         12    1    3    3    0    0  0.19097784452E+02 -0.23488773250E+02  0.31099445070E+02  0.43400729527E+02  0.00000000000E+00 0. -1.
         11    1    4    4    0    0 -0.12450903952E+02  0.49826084259E+01 -0.14504760830E+02  0.19754480072E+02  0.51100000000E-03 0. -1.
        -11    1    4    4    0    0 -0.96293470495E+01  0.13989504602E+02 -0.14097731932E+02  0.22072077599E+02  0.51100000000E-03 0.  1.
         12    1    4    4    0    0  0.29824665499E+01  0.45166602220E+01 -0.24969523084E+01  0.59607128024E+01  0.00000000000E+00 0. -1.
</event>
<event>
 8    1  0.5542925E-011  0.9118800E+02  0.7816164E-02  0.1184000E+00
        -11   -1    0    0    0    0  0.00000000000E+00  0.00000000000E+00  0.45593999997E+02  0.45594000000E+02  0.51100000000E-03 0. -1.
         11   -1    0    0    0    0 -0.00000000000E+00 -0.00000000000E+00 -0.45593999997E+02  0.45594000000E+02  0.51100000000E-03 0.  1.
         23    2    1    2    0    0  0.00000000000E+00  0.00000000000E+00  0.00000000000E+00  0.91188000000E+02  0.91188000000E+02 0.  0.
    9900012    2    3    3    0    0  0.39760756280E+01  0.38736430375E+02 -0.19165153659E+02  0.47787270394E+02  0.19999997032E+02 0.  0.
         12    1    3    3    0    0 -0.39760756280E+01 -0.38736430375E+02  0.19165153659E+02  0.43400729606E+02  0.00000000000E+00 0. -1.
         11    1    4    4    0    0  0.30802925592E+00  0.18704384868E+02 -0.86045743212E+00  0.18726699725E+02  0.51100000000E-03 0. -1.
        -11    1    4    4    0    0 -0.67084122017E+00 -0.84726550075E+00 -0.22781260859E+00  0.11044390509E+01  0.51100000000E-03 0.  1.
        -12    1    4    4    0    0  0.43388875923E+01  0.20879311007E+02 -0.18076883619E+02  0.27956131618E+02  0.00000000000E+00 0.  1.
</event>
<event>
 8    1  0.5542925E-011  0.9118800E+02  0.7816164E-02  0.1184000E+00
        -11   -1    0    0    0    0  0.00000000000E+00  0.00000000000E+00  0.45593999997E+02  0.45594000000E+02  0.51100000000E-03 0. -1.
         11   -1    0    0    0    0 -0.00000000000E+00 -0.00000000000E+00 -0.45593999997E+02  0.45594000000E+02  0.51100000000E-03 0.  1.
         23    2    1    2    0    0 -0.44408920985E-15  0.00000000000E+00  0.00000000000E+00  0.91188000000E+02  0.91188000000E+02 0.  0.
    9900012    2    3    3    0    0 -0.21723080452E+01  0.75048544398E+01  0.42691693074E+02  0.47787280883E+02  0.20000044856E+02 0.  0.
        -12    1    3    3    0    0  0.21723080452E+01 -0.75048544398E+01 -0.42691693074E+02  0.43400719117E+02  0.00000000000E+00 0.  1.
         11    1    4    4    0    0 -0.89383276719E+00  0.40068740006E+01  0.32112449898E+02  0.32373807546E+02  0.51100000000E-03 0. -1.
        -11    1    4    4    0    0 -0.24191160688E+01  0.27565374082E+01  0.12518464901E+02  0.13044638162E+02  0.51100000000E-03 0.  1.
        -12    1    4    4    0    0  0.11406407908E+01  0.74144303095E+00 -0.19392217260E+01  0.23688351746E+01  0.00000000000E+00 0.  1.
</event>
<event>
 8    1  0.5542925E-011  0.9118800E+02  0.7816164E-02  0.1184000E+00
        -11   -1    0    0    0    0  0.00000000000E+00  0.00000000000E+00  0.45593999997E+02  0.45594000000E+02  0.51100000000E-03 0. -1.
         11   -1    0    0    0    0 -0.00000000000E+00 -0.00000000000E+00 -0.45593999997E+02  0.45594000000E+02  0.51100000000E-03 0.  1.
         23    2    1    2    0    0  0.00000000000E+00  0.00000000000E+00  0.00000000000E+00  0.91188000000E+02  0.91188000000E+02 0.  0.
    9900012    2    3    3    0    0 -0.96757959198E+01  0.12296544902E+02  0.40482063290E+02  0.47787268538E+02  0.19999988574E+02 0.  0.
        -12    1    3    3    0    0  0.96757959198E+01 -0.12296544902E+02 -0.40482063290E+02  0.43400731462E+02  0.00000000000E+00 0.  1.
         11    1    4    4    0    0  0.52366905099E+00 -0.11341179257E+01  0.11187890489E+02  0.11257412962E+02  0.51100000000E-03 0. -1.
        -11    1    4    4    0    0 -0.73516311569E+01 -0.70894186543E+00  0.10559212262E+02  0.12885885421E+02  0.51100000000E-03 0.  1.
         12    1    4    4    0    0 -0.28478338139E+01  0.14139604693E+02  0.18734960539E+02  0.23643970156E+02  0.00000000000E+00 0. -1.
</event>
<event>
 8    1  0.5542925E-011  0.9118800E+02  0.7816164E-02  0.1184000E+00
        -11   -1    0    0    0    0  0.00000000000E+00  0.00000000000E+00  0.45593999997E+02  0.45594000000E+02  0.51100000000E-03 0. -1.
         11   -1    0    0    0    0 -0.00000000000E+00 -0.00000000000E+00 -0.45593999997E+02  0.45594000000E+02  0.51100000000E-03 0.  1.
         23    2    1    2    0    0 -0.35527136788E-14  0.00000000000E+00  0.35527136788E-14  0.91188000000E+02  0.91188000000E+02 0.  0.
    9900012    2    3    3    0    0  0.24670429806E+02 -0.20155297437E+02  0.29474686056E+02  0.47787271438E+02  0.20000001795E+02 0.  0.
        -12    1    3    3    0    0 -0.24670429806E+02  0.20155297437E+02 -0.29474686056E+02  0.43400728562E+02  0.00000000000E+00 0.  1.
         11    1    4    4    0    0  0.12737857067E+02 -0.36546963031E+01  0.16166442287E+02  0.20903675854E+02  0.51100000000E-03 0. -1.
        -11    1    4    4    0    0  0.68049079516E+01 -0.11304522830E+01  0.22074018735E+01  0.72427424286E+01  0.51100000000E-03 0.  1.
        -12    1    4    4    0    0  0.51276647872E+01 -0.15370148851E+02  0.11100841895E+02  0.19640853155E+02  0.00000000000E+00 0.  1.
</event>
<event>
 8    1  0.5542925E-011  0.9118800E+02  0.7816164E-02  0.1184000E+00
        -11   -1    0    0    0    0  0.00000000000E+00  0.00000000000E+00  0.45593999997E+02  0.45594000000E+02  0.51100000000E-03 0. -1.
         11   -1    0    0    0    0 -0.00000000000E+00 -0.00000000000E+00 -0.45593999997E+02  0.45594000000E+02  0.51100000000E-03 0.  1.
         23    2    1    2    0    0  0.35527136788E-14  0.44408920985E-15 -0.71054273576E-14  0.91188000000E+02  0.91188000000E+02 0.  0.
    9900012    2    3    3    0    0  0.11994075231E+02 -0.16166337628E+01 -0.41679160337E+02  0.47787265539E+02  0.19999974897E+02 0.  0.
         12    1    3    3    0    0 -0.11994075231E+02  0.16166337628E+01  0.41679160337E+02  0.43400734461E+02  0.00000000000E+00 0. -1.
         11    1    4    4    0    0  0.12251110264E+02  0.58949313432E+01 -0.32626701604E+02  0.35346026312E+02  0.51100000000E-03 0. -1.
        -11    1    4    4    0    0 -0.16206288514E+00 -0.50934012597E+00 -0.34000330869E+01  0.34417897954E+01  0.51100000000E-03 0.  1.
        -12    1    4    4    0    0 -0.94972148135E-01 -0.70022249800E+01 -0.56524256467E+01  0.89994494315E+01  0.00000000000E+00 0.  1.
</event>
<event>
 8    1  0.5542925E-011  0.9118800E+02  0.7816164E-02  0.1184000E+00
        -11   -1    0    0    0    0  0.00000000000E+00  0.00000000000E+00  0.45593999997E+02  0.45594000000E+02  0.51100000000E-03 0. -1.
         11   -1    0    0    0    0 -0.00000000000E+00 -0.00000000000E+00 -0.45593999997E+02  0.45594000000E+02  0.51100000000E-03 0.  1.
         23    2    1    2    0    0 -0.35527136788E-14  0.88817841970E-15  0.00000000000E+00  0.91188000000E+02  0.91188000000E+02 0.  0.
    9900012    2    3    3    0    0  0.18459315993E+02 -0.64105187302E+01  0.38752834156E+02  0.47787271291E+02  0.20000001124E+02 0.  0.
        -12    1    3    3    0    0 -0.18459315993E+02  0.64105187302E+01 -0.38752834156E+02  0.43400728709E+02  0.00000000000E+00 0.  1.
         11    1    4    4    0    0  0.14034345861E+02 -0.72374192799E+01  0.29331298004E+02  0.33311681802E+02  0.51100000000E-03 0. -1.
        -11    1    4    4    0    0  0.37523748538E+00 -0.32247755121E+01  0.79109556955E+01  0.85512104728E+01  0.51100000000E-03 0.  1.
         12    1    4    4    0    0  0.40497326461E+01  0.40516760618E+01  0.15105804568E+01  0.59243790165E+01  0.00000000000E+00 0. -1.
</event>
<event>
 8    1  0.5542925E-011  0.9118800E+02  0.7816164E-02  0.1184000E+00
        -11   -1    0    0    0    0  0.00000000000E+00  0.00000000000E+00  0.45593999997E+02  0.45594000000E+02  0.51100000000E-03 0. -1.
         11   -1    0    0    0    0 -0.00000000000E+00 -0.00000000000E+00 -0.45593999997E+02  0.45594000000E+02  0.51100000000E-03 0.  1.
         23    2    1    2    0    0  0.00000000000E+00  0.00000000000E+00  0.00000000000E+00  0.91188000000E+02  0.91188000000E+02 0.  0.
    9900012    2    3    3    0    0  0.18690371184E+02  0.31169313458E+01  0.39045838657E+02  0.47787277052E+02  0.20000027389E+02 0.  0.
        -12    1    3    3    0    0 -0.18690371184E+02 -0.31169313458E+01 -0.39045838657E+02  0.43400722948E+02  0.00000000000E+00 0.  1.
         11    1    4    4    0    0  0.12462754597E+02 -0.13431698210E+01  0.98553941865E+01  0.15945317562E+02  0.51100000000E-03 0. -1.
        -11    1    4    4    0    0  0.17992404134E+01  0.10014064390E+01 -0.56715974839E-01  0.20599266696E+01  0.51100000000E-03 0.  1.
        -12    1    4    4    0    0  0.44283761730E+01  0.34586947278E+01  0.29247160446E+02  0.29782032820E+02  0.00000000000E+00 0.  1.
</event>
<event>
 8    1  0.5542925E-011  0.9118800E+02  0.7816164E-02  0.1184000E+00
        -11   -1    0    0    0    0  0.00000000000E+00  0.00000000000E+00  0.45593999997E+02  0.45594000000E+02  0.51100000000E-03 0. -1.
         11   -1    0    0    0    0 -0.00000000000E+00 -0.00000000000E+00 -0.45593999997E+02  0.45594000000E+02  0.51100000000E-03 0.  1.
         23    2    1    2    0    0 -0.35527136788E-14  0.00000000000E+00  0.71054273576E-14  0.91188000000E+02  0.91188000000E+02 0.  0.
    9900012    2    3    3    0    0 -0.17307172995E+02  0.19555913468E+02 -0.34664838865E+02  0.47787273714E+02  0.20000012171E+02 0.  0.
         12    1    3    3    0    0  0.17307172995E+02 -0.19555913468E+02  0.34664838865E+02  0.43400726286E+02  0.00000000000E+00 0. -1.
         11    1    4    4    0    0 -0.10747005044E+01  0.97451180768E+01 -0.17630565542E+02  0.20173228524E+02  0.51100000000E-03 0. -1.
        -11    1    4    4    0    0 -0.10824754408E+02  0.10169695263E+02 -0.16449973564E+02  0.22163024168E+02  0.51100000000E-03 0.  1.
         12    1    4    4    0    0 -0.54077180820E+01 -0.35889987196E+00 -0.58429975896E+00  0.54510210219E+01  0.00000000000E+00 0. -1.
</event>
<event>
 8    1  0.5542925E-011  0.9118800E+02  0.7816164E-02  0.1184000E+00
        -11   -1    0    0    0    0  0.00000000000E+00  0.00000000000E+00  0.45593999997E+02  0.45594000000E+02  0.51100000000E-03 0. -1.
         11   -1    0    0    0    0 -0.00000000000E+00 -0.00000000000E+00 -0.45593999997E+02  0.45594000000E+02  0.51100000000E-03 0.  1.
         23    2    1    2    0    0 -0.71054273576E-14  0.00000000000E+00  0.00000000000E+00  0.91188000000E+02  0.91188000000E+02 0.  0.
    9900012    2    3    3    0    0  0.38351781851E+02  0.11354145097E+02 -0.16847799250E+02  0.47787261278E+02  0.19999955472E+02 0.  0.
         12    1    3    3    0    0 -0.38351781851E+02 -0.11354145097E+02  0.16847799250E+02  0.43400738722E+02  0.00000000000E+00 0. -1.
         11    1    4    4    0    0 -0.95435107387E+00 -0.52751245300E+00 -0.26638026110E+01  0.28783502170E+01  0.51100000000E-03 0. -1.
        -11    1    4    4    0    0  0.68340818507E+01  0.65737264575E+01 -0.51379078827E+01  0.10785019794E+02  0.51100000000E-03 0.  1.
         12    1    4    4    0    0  0.32472051074E+02  0.53079310929E+01 -0.90460887565E+01  0.34123891267E+02  0.00000000000E+00 0. -1.
</event>
<event>
 8    1  0.5542925E-011  0.9118800E+02  0.7816164E-02  0.1184000E+00
        -11   -1    0    0    0    0  0.00000000000E+00  0.00000000000E+00  0.45593999997E+02  0.45594000000E+02  0.51100000000E-03 0. -1.
         11   -1    0    0    0    0 -0.00000000000E+00 -0.00000000000E+00 -0.45593999997E+02  0.45594000000E+02  0.51100000000E-03 0.  1.
         23    2    1    2    0    0  0.35527136788E-14  0.35527136788E-14  0.00000000000E+00  0.91188000000E+02  0.91188000000E+02 0.  0.
    9900012    2    3    3    0    0  0.29467709570E+02  0.28989716476E+02  0.13223987104E+02  0.47787269550E+02  0.19999993188E+02 0.  0.
        -12    1    3    3    0    0 -0.29467709570E+02 -0.28989716476E+02 -0.13223987104E+02  0.43400730450E+02  0.00000000000E+00 0.  1.
         11    1    4    4    0    0  0.14755387636E+02  0.61349060246E+01  0.91544820954E+01  0.18416380723E+02  0.51100000000E-03 0. -1.
        -11    1    4    4    0    0  0.28346371806E+01  0.24391063766E+01  0.43672174035E+01  0.57495213690E+01  0.51100000000E-03 0.  1.
        -12    1    4    4    0    0  0.11877684753E+02  0.20415704075E+02 -0.29771239437E+00  0.23621367459E+02  0.00000000000E+00 0.  1.
</event>
<event>
 8    1  0.5542925E-011  0.9118800E+02  0.7816164E-02  0.1184000E+00
        -11   -1    0    0    0    0  0.00000000000E+00  0.00000000000E+00  0.45593999997E+02  0.45594000000E+02  0.51100000000E-03 0. -1.
         11   -1    0    0    0    0 -0.00000000000E+00 -0.00000000000E+00 -0.45593999997E+02  0.45594000000E+02  0.51100000000E-03 0.  1.
         23    2    1    2    0    0  0.71054273576E-14  0.00000000000E+00  0.00000000000E+00  0.91188000000E+02  0.91188000000E+02 0.  0.
    9900012    2    3    3    0    0  0.32710708195E+02 -0.15728785526E+02 -0.23795754089E+02  0.47787273769E+02  0.20000012421E+02 0.  0.
         12    1    3    3    0    0 -0.32710708195E+02  0.15728785526E+02  0.23795754089E+02  0.43400726231E+02  0.00000000000E+00 0. -1.
         11    1    4    4    0    0  0.66342425091E+01  0.34082186463E+00 -0.95115141207E+01  0.11601647915E+02  0.51100000000E-03 0. -1.
        -11    1    4    4    0    0  0.19105062144E+02 -0.43867639641E+01 -0.93014256029E+01  0.21697087733E+02  0.51100000000E-03 0.  1.
         12    1    4    4    0    0  0.69714035425E+01 -0.11682843426E+02 -0.49828143650E+01  0.14488538121E+02  0.00000000000E+00 0. -1.
</event>
<event>
 8    1  0.5542925E-011  0.9118800E+02  0.7816164E-02  0.1184000E+00
        -11   -1    0    0    0    0  0.00000000000E+00  0.00000000000E+00  0.45593999997E+02  0.45594000000E+02  0.51100000000E-03 0. -1.
         11   -1    0    0    0    0 -0.00000000000E+00 -0.00000000000E+00 -0.45593999997E+02  0.45594000000E+02  0.51100000000E-03 0.  1.
         23    2    1    2    0    0  0.00000000000E+00 -0.35527136788E-14  0.00000000000E+00  0.91188000000E+02  0.91188000000E+02 0.  0.
    9900012    2    3    3    0    0  0.79957942526E+01  0.19085156661E+02 -0.38150325480E+02  0.47787271150E+02  0.20000000480E+02 0.  0.
         12    1    3    3    0    0 -0.79957942526E+01 -0.19085156661E+02  0.38150325480E+02  0.43400728850E+02  0.00000000000E+00 0. -1.
         11    1    4    4    0    0  0.56076326590E+00  0.44937166409E+01 -0.17513778902E+00  0.45319552288E+01  0.51100000000E-03 0. -1.
        -11    1    4    4    0    0  0.12523035303E+01  0.27821451116E+01 -0.45325419220E-01  0.30513358073E+01  0.51100000000E-03 0.  1.
        -12    1    4    4    0    0  0.61827274563E+01  0.11809294908E+02 -0.37929862272E+02  0.40203980114E+02  0.00000000000E+00 0.  1.
</event>
<event>
 8    1  0.5542925E-011  0.9118800E+02  0.7816164E-02  0.1184000E+00
        -11   -1    0    0    0    0  0.00000000000E+00  0.00000000000E+00  0.45593999997E+02  0.45594000000E+02  0.51100000000E-03 0. -1.
         11   -1    0    0    0    0 -0.00000000000E+00 -0.00000000000E+00 -0.45593999997E+02  0.45594000000E+02  0.51100000000E-03 0.  1.
         23    2    1    2    0    0  0.44408920985E-15  0.71054273576E-14  0.35527136788E-14  0.91188000000E+02  0.91188000000E+02 0.  0.
    9900012    2    3    3    0    0 -0.20719013400E+01  0.35614980542E+02 -0.24716469259E+02  0.47787268822E+02  0.19999989866E+02 0.  0.
         12    1    3    3    0    0  0.20719013400E+01 -0.35614980542E+02  0.24716469259E+02  0.43400731178E+02  0.00000000000E+00 0. -1.
         11    1    4    4    0    0  0.59716424833E+01  0.17071018740E+02 -0.13030719514E+02  0.22290801827E+02  0.51100000000E-03 0. -1.
        -11    1    4    4    0    0 -0.14511496666E+01  0.81480139468E+01 -0.10141644037E+02  0.13090030965E+02  0.51100000000E-03 0.  1.
         12    1    4    4    0    0 -0.65923941567E+01  0.10395947855E+02 -0.15441057079E+01  0.12406436030E+02  0.00000000000E+00 0. -1.
</event>
<event>
 8    1  0.5542925E-011  0.9118800E+02  0.7816164E-02  0.1184000E+00
        -11   -1    0    0    0    0  0.00000000000E+00  0.00000000000E+00  0.45593999997E+02  0.45594000000E+02  0.51100000000E-03 0. -1.
         11   -1    0    0    0    0 -0.00000000000E+00 -0.00000000000E+00 -0.45593999997E+02  0.45594000000E+02  0.51100000000E-03 0.  1.
         23    2    1    2    0    0 -0.35527136788E-14  0.00000000000E+00 -0.35527136788E-14  0.91188000000E+02  0.91188000000E+02 0.  0.
    9900012    2    3    3    0    0 -0.16079901893E+02 -0.35393788850E+02 -0.19296106857E+02  0.47787271044E+02  0.19999999999E+02 0.  0.
         12    1    3    3    0    0  0.16079901893E+02  0.35393788850E+02  0.19296106857E+02  0.43400728956E+02  0.00000000000E+00 0. -1.
         11    1    4    4    0    0 -0.52077959393E+01 -0.48490265024E+01  0.11100848109E+01  0.72018390092E+01  0.51100000000E-03 0. -1.
        -11    1    4    4    0    0 -0.30508589629E+01 -0.89043780283E-01 -0.42536043022E+01  0.52353432578E+01  0.51100000000E-03 0.  1.
        -12    1    4    4    0    0 -0.78212469912E+01 -0.30455718567E+02 -0.16152587365E+02  0.35350088777E+02  0.00000000000E+00 0.  1.
</event>
<event>
 8    1  0.5542925E-011  0.9118800E+02  0.7816164E-02  0.1184000E+00
        -11   -1    0    0    0    0  0.00000000000E+00  0.00000000000E+00  0.45593999997E+02  0.45594000000E+02  0.51100000000E-03 0. -1.
         11   -1    0    0    0    0 -0.00000000000E+00 -0.00000000000E+00 -0.45593999997E+02  0.45594000000E+02  0.51100000000E-03 0.  1.
         23    2    1    2    0    0  0.00000000000E+00  0.00000000000E+00  0.00000000000E+00  0.91188000000E+02  0.91188000000E+02 0.  0.
    9900012    2    3    3    0    0  0.39360546171E+02  0.38535194894E+01  0.17875147526E+02  0.47787272974E+02  0.20000008797E+02 0.  0.
        -12    1    3    3    0    0 -0.39360546171E+02 -0.38535194894E+01 -0.17875147526E+02  0.43400727026E+02  0.00000000000E+00 0.  1.
         11    1    4    4    0    0  0.23773014773E+02  0.16730310408E+01  0.45303952209E+01  0.24258601472E+02  0.51100000000E-03 0. -1.
        -11    1    4    4    0    0  0.45179595564E+00 -0.12252051810E+01 -0.15466391647E+01  0.20241887975E+01  0.51100000000E-03 0.  1.
        -12    1    4    4    0    0  0.15135735442E+02  0.34056936295E+01  0.14891391470E+02  0.21504482704E+02  0.00000000000E+00 0.  1.
</event>
<event>
 8    1  0.5542925E-011  0.9118800E+02  0.7816164E-02  0.1184000E+00
        -11   -1    0    0    0    0  0.00000000000E+00  0.00000000000E+00  0.45593999997E+02  0.45594000000E+02  0.51100000000E-03 0. -1.
         11   -1    0    0    0    0 -0.00000000000E+00 -0.00000000000E+00 -0.45593999997E+02  0.45594000000E+02  0.51100000000E-03 0.  1.
         23    2    1    2    0    0 -0.35527136788E-14  0.35527136788E-14  0.35527136788E-14  0.91188000000E+02  0.91188000000E+02 0.  0.
    9900012    2    3    3    0    0 -0.23744966482E+02  0.30967211139E+02  0.18995571036E+02  0.47787270537E+02  0.19999997685E+02 0.  0.
        -12    1    3    3    0    0  0.23744966482E+02 -0.30967211139E+02 -0.18995571036E+02  0.43400729463E+02  0.00000000000E+00 0.  1.
         11    1    4    4    0    0 -0.22794361588E+02  0.18578206906E+02  0.19039303500E+02  0.35031810830E+02  0.51100000000E-03 0. -1.
        -11    1    4    4    0    0  0.25248073267E+00  0.37706368393E+00 -0.49946002299E+00  0.67482154515E+00  0.51100000000E-03 0.  1.
         12    1    4    4    0    0 -0.12030856275E+01  0.12011940549E+02  0.45572755892E+00  0.12080638161E+02  0.00000000000E+00 0. -1.
</event>
<event>
 8    1  0.5542925E-011  0.9118800E+02  0.7816164E-02  0.1184000E+00
        -11   -1    0    0    0    0  0.00000000000E+00  0.00000000000E+00  0.45593999997E+02  0.45594000000E+02  0.51100000000E-03 0. -1.
         11   -1    0    0    0    0 -0.00000000000E+00 -0.00000000000E+00 -0.45593999997E+02  0.45594000000E+02  0.51100000000E-03 0.  1.
         23    2    1    2    0    0  0.35527136788E-14 -0.35527136788E-14  0.00000000000E+00  0.91188000000E+02  0.91188000000E+02 0.  0.
    9900012    2    3    3    0    0  0.21083109275E+02 -0.27014138195E+02  0.26633858076E+02  0.47787267805E+02  0.19999985228E+02 0.  0.
        -12    1    3    3    0    0 -0.21083109275E+02  0.27014138195E+02 -0.26633858076E+02  0.43400732195E+02  0.00000000000E+00 0.  1.
         11    1    4    4    0    0  0.75010643572E+01 -0.43789562274E+01  0.46096166314E+01  0.98330966578E+01  0.51100000000E-03 0. -1.
        -11    1    4    4    0    0 -0.75277890596E+00  0.21234926728E+01  0.10829350326E+01  0.24997291371E+01  0.51100000000E-03 0.  1.
         12    1    4    4    0    0  0.14334823823E+02 -0.24758674640E+02  0.20941306412E+02  0.35454442010E+02  0.00000000000E+00 0. -1.
</event>
<event>
 8    1  0.5542925E-011  0.9118800E+02  0.7816164E-02  0.1184000E+00
        -11   -1    0    0    0    0  0.00000000000E+00  0.00000000000E+00  0.45593999997E+02  0.45594000000E+02  0.51100000000E-03 0. -1.
         11   -1    0    0    0    0 -0.00000000000E+00 -0.00000000000E+00 -0.45593999997E+02  0.45594000000E+02  0.51100000000E-03 0.  1.
         23    2    1    2    0    0  0.00000000000E+00  0.44408920985E-15  0.00000000000E+00  0.91188000000E+02  0.91188000000E+02 0.  0.
    9900012    2    3    3    0    0  0.16558719529E+02  0.39192210778E+01 -0.39925835916E+02  0.47787264294E+02  0.19999969221E+02 0.  0.
         12    1    3    3    0    0 -0.16558719529E+02 -0.39192210778E+01  0.39925835916E+02  0.43400735706E+02  0.00000000000E+00 0. -1.
         11    1    4    4    0    0  0.92388174027E+01  0.47884083076E+01 -0.25599850792E+02  0.27633982015E+02  0.51100000000E-03 0. -1.
        -11    1    4    4    0    0  0.30144814915E+01 -0.73736944097E+00 -0.15403589620E+02  0.15713095997E+02  0.51100000000E-03 0.  1.
         12    1    4    4    0    0  0.43054206347E+01 -0.13181778881E+00  0.10776044971E+01  0.44401862825E+01  0.00000000000E+00 0. -1.
</event>
<event>
 8    1  0.5542925E-011  0.9118800E+02  0.7816164E-02  0.1184000E+00
        -11   -1    0    0    0    0  0.00000000000E+00  0.00000000000E+00  0.45593999997E+02  0.45594000000E+02  0.51100000000E-03 0. -1.
         11   -1    0    0    0    0 -0.00000000000E+00 -0.00000000000E+00 -0.45593999997E+02  0.45594000000E+02  0.51100000000E-03 0.  1.
         23    2    1    2    0    0 -0.35527136788E-14  0.17763568394E-14  0.00000000000E+00  0.91188000000E+02  0.91188000000E+02 0.  0.
    9900012    2    3    3    0    0 -0.20784649249E+02  0.12520740244E+02 -0.35984065266E+02  0.47787268051E+02  0.19999986352E+02 0.  0.
         12    1    3    3    0    0  0.20784649249E+02 -0.12520740244E+02  0.35984065266E+02  0.43400731949E+02  0.00000000000E+00 0. -1.
         11    1    4    4    0    0 -0.90561462295E+01  0.49169051763E+01 -0.12068681155E+02  0.15869555953E+02  0.51100000000E-03 0. -1.
        -11    1    4    4    0    0 -0.11559860747E+02 -0.97425306372E+00 -0.88906944658E+01  0.14615881700E+02  0.51100000000E-03 0.  1.
         12    1    4    4    0    0 -0.16864227198E+00  0.85780881318E+01 -0.15024689644E+02  0.17301830398E+02  0.00000000000E+00 0. -1.
</event>
<event>
 8    1  0.5542925E-011  0.9118800E+02  0.7816164E-02  0.1184000E+00
        -11   -1    0    0    0    0  0.00000000000E+00  0.00000000000E+00  0.45593999997E+02  0.45594000000E+02  0.51100000000E-03 0. -1.
         11   -1    0    0    0    0 -0.00000000000E+00 -0.00000000000E+00 -0.45593999997E+02  0.45594000000E+02  0.51100000000E-03 0.  1.
         23    2    1    2    0    0  0.88817841970E-15 -0.35527136788E-14 -0.71054273576E-14  0.91188000000E+02  0.91188000000E+02 0.  0.
    9900012    2    3    3    0    0  0.27920103375E+01  0.20793310937E+02  0.37992965753E+02  0.47787279405E+02  0.20000038118E+02 0.  0.
        -12    1    3    3    0    0 -0.27920103375E+01 -0.20793310937E+02 -0.37992965753E+02  0.43400720595E+02  0.00000000000E+00 0.  1.
         11    1    4    4    0    0 -0.25178069918E+01 -0.90412792750E+00  0.10478773647E+02  0.10814873867E+02  0.51100000000E-03 0.  1.
        -11    1    4    4    0    0 -0.21359645413E+01  0.24234658789E+01  0.76774643221E+01  0.83294051448E+01  0.51100000000E-03 0. -1.
        -12    1    4    4    0    0  0.74457818705E+01  0.19273972986E+02  0.19836727784E+02  0.28643000393E+02  0.00000000000E+00 0.  1.
</event>
<event>
 8    1  0.5542925E-011  0.9118800E+02  0.7816164E-02  0.1184000E+00
        -11   -1    0    0    0    0  0.00000000000E+00  0.00000000000E+00  0.45593999997E+02  0.45594000000E+02  0.51100000000E-03 0. -1.
         11   -1    0    0    0    0 -0.00000000000E+00 -0.00000000000E+00 -0.45593999997E+02  0.45594000000E+02  0.51100000000E-03 0.  1.
         23    2    1    2    0    0  0.00000000000E+00 -0.35527136788E-14  0.17763568394E-14  0.91188000000E+02  0.91188000000E+02 0.  0.
    9900012    2    3    3    0    0  0.36935103005E+02  0.16571029274E+02  0.15646803287E+02  0.47787270763E+02  0.19999998719E+02 0.  0.
        -12    1    3    3    0    0 -0.36935103005E+02 -0.16571029274E+02 -0.15646803287E+02  0.43400729237E+02  0.00000000000E+00 0.  1.
         11    1    4    4    0    0  0.27932628694E+02  0.16333088159E+02  0.62177278371E+01  0.32949380180E+02  0.51100000000E-03 0. -1.
        -11    1    4    4    0    0  0.35004936328E+01  0.18698468140E+01  0.20453742763E+00  0.39738669582E+01  0.51100000000E-03 0.  1.
        -12    1    4    4    0    0  0.55019806781E+01 -0.16319056992E+01  0.92245380225E+01  0.10864023625E+02  0.00000000000E+00 0.  1.
</event>
<event>
 8    1  0.5542925E-011  0.9118800E+02  0.7816164E-02  0.1184000E+00
        -11   -1    0    0    0    0  0.00000000000E+00  0.00000000000E+00  0.45593999997E+02  0.45594000000E+02  0.51100000000E-03 0. -1.
         11   -1    0    0    0    0 -0.00000000000E+00 -0.00000000000E+00 -0.45593999997E+02  0.45594000000E+02  0.51100000000E-03 0.  1.
         23    2    1    2    0    0  0.00000000000E+00  0.00000000000E+00  0.35527136788E-14  0.91188000000E+02  0.91188000000E+02 0.  0.
    9900012    2    3    3    0    0  0.32823874068E+02 -0.15864874863E+02  0.23548296781E+02  0.47787271382E+02  0.20000001539E+02 0.  0.
        -12    1    3    3    0    0 -0.32823874068E+02  0.15864874863E+02 -0.23548296781E+02  0.43400728618E+02  0.00000000000E+00 0.  1.
         11    1    4    4    0    0  0.21316984876E+02 -0.12955430431E+02  0.17455482532E+02  0.30445868234E+02  0.51100000000E-03 0. -1.
        -11    1    4    4    0    0  0.43138656515E+01 -0.64612056441E+01  0.98491845420E+00  0.78311352853E+01  0.51100000000E-03 0.  1.
         12    1    4    4    0    0  0.71930235408E+01  0.35517612114E+01  0.51078957953E+01  0.95102678625E+01  0.00000000000E+00 0. -1.
</event>
<event>
 8    1  0.5542925E-011  0.9118800E+02  0.7816164E-02  0.1184000E+00
        -11   -1    0    0    0    0  0.00000000000E+00  0.00000000000E+00  0.45593999997E+02  0.45594000000E+02  0.51100000000E-03 0. -1.
         11   -1    0    0    0    0 -0.00000000000E+00 -0.00000000000E+00 -0.45593999997E+02  0.45594000000E+02  0.51100000000E-03 0.  1.
         23    2    1    2    0    0  0.35527136788E-14  0.88817841970E-15  0.71054273576E-14  0.91188000000E+02  0.91188000000E+02 0.  0.
    9900012    2    3    3    0    0 -0.25832388304E+02 -0.40490589108E+01 -0.34639805433E+02  0.47787270928E+02  0.19999999471E+02 0.  0.
         12    1    3    3    0    0  0.25832388304E+02  0.40490589108E+01  0.34639805433E+02  0.43400729072E+02  0.00000000000E+00 0. -1.
         11    1    4    4    0    0 -0.29682036049E+01 -0.54911543098E+01 -0.59136910449E+01  0.85985318706E+01  0.51100000000E-03 0. -1.
        -11    1    4    4    0    0 -0.66175835650E+01 -0.32526156860E+01 -0.17225582186E+02  0.18737465222E+02  0.51100000000E-03 0.  1.
         12    1    4    4    0    0 -0.16246601134E+02  0.46947110851E+01 -0.11500532202E+02  0.20451273835E+02  0.00000000000E+00 0. -1.
</event>
<event>
 8    1  0.5542925E-011  0.9118800E+02  0.7816164E-02  0.1184000E+00
        -11   -1    0    0    0    0  0.00000000000E+00  0.00000000000E+00  0.45593999997E+02  0.45594000000E+02  0.51100000000E-03 0. -1.
         11   -1    0    0    0    0 -0.00000000000E+00 -0.00000000000E+00 -0.45593999997E+02  0.45594000000E+02  0.51100000000E-03 0.  1.
         23    2    1    2    0    0  0.00000000000E+00  0.00000000000E+00  0.00000000000E+00  0.91188000000E+02  0.91188000000E+02 0.  0.
    9900012    2    3    3    0    0  0.94267734744E+01 -0.18638785828E+01  0.42323567707E+02  0.47787280133E+02  0.20000041440E+02 0.  0.
        -12    1    3    3    0    0 -0.94267734744E+01  0.18638785828E+01 -0.42323567707E+02  0.43400719867E+02  0.00000000000E+00 0.  1.
         11    1    4    4    0    0 -0.11119533744E+01  0.13633207341E+01  0.52902592482E+01  0.55751167616E+01  0.51100000000E-03 0.  1.
        -11    1    4    4    0    0  0.11882858125E+02  0.14646893829E+00  0.11899361038E+02  0.16817210343E+02  0.51100000000E-03 0. -1.
         12    1    4    4    0    0 -0.13441312758E+01 -0.33736682551E+01  0.25133947420E+02  0.25394953028E+02  0.00000000000E+00 0. -1.
</event>
<event>
 8    1  0.5542925E-011  0.9118800E+02  0.7816164E-02  0.1184000E+00
        -11   -1    0    0    0    0  0.00000000000E+00  0.00000000000E+00  0.45593999997E+02  0.45594000000E+02  0.51100000000E-03 0. -1.
         11   -1    0    0    0    0 -0.00000000000E+00 -0.00000000000E+00 -0.45593999997E+02  0.45594000000E+02  0.51100000000E-03 0.  1.
         23    2    1    2    0    0  0.44408920985E-15  0.00000000000E+00 -0.88817841970E-15  0.91188000000E+02  0.91188000000E+02 0.  0.
    9900012    2    3    3    0    0  0.24657949651E+01 -0.42771154537E+02 -0.69405692989E+01  0.47787270658E+02  0.19999998238E+02 0.  0.
         12    1    3    3    0    0 -0.24657949651E+01  0.42771154537E+02  0.69405692989E+01  0.43400729342E+02  0.00000000000E+00 0. -1.
         11    1    4    4    0    0  0.40779852464E+01 -0.29288821984E+01  0.11751743332E+00  0.50221633994E+01  0.51100000000E-03 0. -1.
        -11    1    4    4    0    0  0.25879397039E+01 -0.15124606690E+02 -0.87004117737E+01  0.17639396949E+02  0.51100000000E-03 0.  1.
         12    1    4    4    0    0 -0.42001299851E+01 -0.24717665649E+02  0.16423250415E+01  0.25125710310E+02  0.00000000000E+00 0. -1.
</event>
<event>
 8    1  0.5542925E-011  0.9118800E+02  0.7816164E-02  0.1184000E+00
        -11   -1    0    0    0    0  0.00000000000E+00  0.00000000000E+00  0.45593999997E+02  0.45594000000E+02  0.51100000000E-03 0. -1.
         11   -1    0    0    0    0 -0.00000000000E+00 -0.00000000000E+00 -0.45593999997E+02  0.45594000000E+02  0.51100000000E-03 0.  1.
         23    2    1    2    0    0  0.00000000000E+00  0.44408920985E-15  0.00000000000E+00  0.91188000000E+02  0.91188000000E+02 0.  0.
    9900012    2    3    3    0    0  0.16418726289E+02 -0.15550066323E+01 -0.40145119060E+02  0.47787271862E+02  0.20000003728E+02 0.  0.
         12    1    3    3    0    0 -0.16418726289E+02  0.15550066323E+01  0.40145119060E+02  0.43400728138E+02  0.00000000000E+00 0. -1.
         11    1    4    4    0    0  0.70524864011E+00 -0.22116513408E+01 -0.23307044085E+02  0.23422362852E+02  0.51100000000E-03 0. -1.
        -11    1    4    4    0    0  0.26432962235E+01  0.26484760900E+01 -0.68124101638E+01  0.77724110175E+01  0.51100000000E-03 0.  1.
         12    1    4    4    0    0  0.13070181426E+02 -0.19918313815E+01 -0.10025664810E+02  0.16592497993E+02  0.00000000000E+00 0. -1.
</event>
<event>
 8    1  0.5542925E-011  0.9118800E+02  0.7816164E-02  0.1184000E+00
        -11   -1    0    0    0    0  0.00000000000E+00  0.00000000000E+00  0.45593999997E+02  0.45594000000E+02  0.51100000000E-03 0.  1.
         11   -1    0    0    0    0 -0.00000000000E+00 -0.00000000000E+00 -0.45593999997E+02  0.45594000000E+02  0.51100000000E-03 0. -1.
         23    2    1    2    0    0  0.00000000000E+00  0.00000000000E+00  0.00000000000E+00  0.91188000000E+02  0.91188000000E+02 0.  0.
    9900012    2    3    3    0    0 -0.17128667398E+02  0.32582431467E+02 -0.22991678962E+02  0.47787269723E+02  0.19999993974E+02 0.  0.
         12    1    3    3    0    0  0.17128667398E+02 -0.32582431467E+02  0.22991678962E+02  0.43400730277E+02  0.00000000000E+00 0. -1.
         11    1    4    4    0    0 -0.48881756337E+01  0.16358607955E+02 -0.20571104654E+02  0.26733287530E+02  0.51100000000E-03 0. -1.
        -11    1    4    4    0    0 -0.15687707163E+01  0.10837897049E+01  0.10970462665E+01  0.21998073681E+01  0.51100000000E-03 0.  1.
         12    1    4    4    0    0 -0.10671721048E+02  0.15140033807E+02 -0.35176205754E+01  0.18854174824E+02  0.00000000000E+00 0. -1.
</event>
<event>
 8    1  0.5542925E-011  0.9118800E+02  0.7816164E-02  0.1184000E+00
        -11   -1    0    0    0    0  0.00000000000E+00  0.00000000000E+00  0.45593999997E+02  0.45594000000E+02  0.51100000000E-03 0. -1.
         11   -1    0    0    0    0 -0.00000000000E+00 -0.00000000000E+00 -0.45593999997E+02  0.45594000000E+02  0.51100000000E-03 0.  1.
         23    2    1    2    0    0 -0.22204460493E-14  0.00000000000E+00  0.00000000000E+00  0.91188000000E+02  0.91188000000E+02 0.  0.
    9900012    2    3    3    0    0  0.38259254489E+01 -0.82015316935E+01 -0.42446675240E+02  0.47787273432E+02  0.20000010887E+02 0.  0.
         12    1    3    3    0    0 -0.38259254489E+01  0.82015316935E+01  0.42446675240E+02  0.43400726568E+02  0.00000000000E+00 0. -1.
         11    1    4    4    0    0 -0.21663300913E+01  0.18955984579E+00 -0.21080212571E+01  0.30286420853E+01  0.51100000000E-03 0. -1.
        -11    1    4    4    0    0  0.93141563376E+01  0.10458366525E+01 -0.20443669470E+02  0.22489795558E+02  0.51100000000E-03 0.  1.
        -12    1    4    4    0    0 -0.33219007975E+01 -0.94369281918E+01 -0.19894984513E+02  0.22268835789E+02  0.00000000000E+00 0.  1.
</event>
<event>
 8    1  0.5542925E-011  0.9118800E+02  0.7816164E-02  0.1184000E+00
        -11   -1    0    0    0    0  0.00000000000E+00  0.00000000000E+00  0.45593999997E+02  0.45594000000E+02  0.51100000000E-03 0. -1.
         11   -1    0    0    0    0 -0.00000000000E+00 -0.00000000000E+00 -0.45593999997E+02  0.45594000000E+02  0.51100000000E-03 0.  1.
         23    2    1    2    0    0  0.22204460493E-15  0.00000000000E+00  0.00000000000E+00  0.91188000000E+02  0.91188000000E+02 0.  0.
    9900012    2    3    3    0    0  0.15759626190E+01  0.39457008872E+02  0.18007921857E+02  0.47787257415E+02  0.19999937859E+02 0.  0.
        -12    1    3    3    0    0 -0.15759626190E+01 -0.39457008872E+02 -0.18007921857E+02  0.43400742585E+02  0.00000000000E+00 0.  1.
         11    1    4    4    0    0 -0.46837841637E+01  0.95231452887E+01  0.31332900018E+01  0.11065515658E+02  0.51100000000E-03 0. -1.
        -11    1    4    4    0    0 -0.15258305734E+01 -0.60793883687E+00 -0.40966648894E+00  0.16928010696E+01  0.51100000000E-03 0.  1.
        -12    1    4    4    0    0  0.77855773560E+01  0.30541802420E+02  0.15284298344E+02  0.35028940688E+02  0.00000000000E+00 0.  1.
</event>
<event>
 8    1  0.5542925E-011  0.9118800E+02  0.7816164E-02  0.1184000E+00
        -11   -1    0    0    0    0  0.00000000000E+00  0.00000000000E+00  0.45593999997E+02  0.45594000000E+02  0.51100000000E-03 0. -1.
         11   -1    0    0    0    0 -0.00000000000E+00 -0.00000000000E+00 -0.45593999997E+02  0.45594000000E+02  0.51100000000E-03 0.  1.
         23    2    1    2    0    0 -0.17763568394E-14  0.00000000000E+00  0.00000000000E+00  0.91188000000E+02  0.91188000000E+02 0.  0.
    9900012    2    3    3    0    0 -0.15161790652E+02 -0.23902549408E+02  0.32900023341E+02  0.47787270746E+02  0.19999998637E+02 0.  0.
        -12    1    3    3    0    0  0.15161790652E+02  0.23902549408E+02 -0.32900023341E+02  0.43400729254E+02  0.00000000000E+00 0.  1.
         11    1    4    4    0    0  0.69487437549E+00 -0.16177940192E+01  0.76622125813E+01  0.78619087879E+01  0.51100000000E-03 0. -1.
        -11    1    4    4    0    0 -0.25483636994E+01 -0.11762789252E+01  0.10665134067E+02  0.11028276138E+02  0.51100000000E-03 0.  1.
         12    1    4    4    0    0 -0.13308301328E+02 -0.21108476464E+02  0.14572676693E+02  0.28897085819E+02  0.00000000000E+00 0. -1.
</event>
<event>
 8    1  0.5542925E-011  0.9118800E+02  0.7816164E-02  0.1184000E+00
        -11   -1    0    0    0    0  0.00000000000E+00  0.00000000000E+00  0.45593999997E+02  0.45594000000E+02  0.51100000000E-03 0. -1.
         11   -1    0    0    0    0 -0.00000000000E+00 -0.00000000000E+00 -0.45593999997E+02  0.45594000000E+02  0.51100000000E-03 0.  1.
         23    2    1    2    0    0  0.00000000000E+00  0.00000000000E+00  0.88817841970E-15  0.91188000000E+02  0.91188000000E+02 0.  0.
    9900012    2    3    3    0    0  0.25145577689E+02 -0.34621906726E+02 -0.72558154667E+01  0.47787270043E+02  0.19999995436E+02 0.  0.
         12    1    3    3    0    0 -0.25145577689E+02  0.34621906726E+02  0.72558154667E+01  0.43400729957E+02  0.00000000000E+00 0. -1.
         11    1    4    4    0    0  0.78774460759E+01 -0.16618852834E+02 -0.76150148186E+01  0.19905498666E+02  0.51100000000E-03 0. -1.
        -11    1    4    4    0    0  0.17343664278E+02 -0.19393261631E+02 -0.85942956419E+00  0.26031517565E+02  0.51100000000E-03 0.  1.
        -12    1    4    4    0    0 -0.75532665315E-01  0.13902077379E+01  0.12186289161E+01  0.18502538131E+01  0.00000000000E+00 0.  1.
</event>
<event>
 8    1  0.5542925E-011  0.9118800E+02  0.7816164E-02  0.1184000E+00
        -11   -1    0    0    0    0  0.00000000000E+00  0.00000000000E+00  0.45593999997E+02  0.45594000000E+02  0.51100000000E-03 0.  1.
         11   -1    0    0    0    0 -0.00000000000E+00 -0.00000000000E+00 -0.45593999997E+02  0.45594000000E+02  0.51100000000E-03 0. -1.
         23    2    1    2    0    0  0.35527136788E-14 -0.71054273576E-14  0.00000000000E+00  0.91188000000E+02  0.91188000000E+02 0.  0.
    9900012    2    3    3    0    0  0.20447599045E+02 -0.35772323176E+02 -0.13633061483E+02  0.47787265242E+02  0.19999973544E+02 0.  0.
         12    1    3    3    0    0 -0.20447599045E+02  0.35772323176E+02  0.13633061483E+02  0.43400734758E+02  0.00000000000E+00 0. -1.
         11    1    4    4    0    0  0.85339728299E+01 -0.80756884456E+01  0.11430283303E+01  0.11804742698E+02  0.51100000000E-03 0. -1.
        -11    1    4    4    0    0 -0.82062481132E+00 -0.72151859431E-02  0.12907400563E+01  0.15295382617E+01  0.51100000000E-03 0.  1.
        -12    1    4    4    0    0  0.12734251027E+02 -0.27689419545E+02 -0.16066829869E+02  0.34452984283E+02  0.00000000000E+00 0.  1.
</event>
<event>
 8    1  0.5542925E-011  0.9118800E+02  0.7816164E-02  0.1184000E+00
        -11   -1    0    0    0    0  0.00000000000E+00  0.00000000000E+00  0.45593999997E+02  0.45594000000E+02  0.51100000000E-03 0. -1.
         11   -1    0    0    0    0 -0.00000000000E+00 -0.00000000000E+00 -0.45593999997E+02  0.45594000000E+02  0.51100000000E-03 0.  1.
         23    2    1    2    0    0  0.00000000000E+00  0.88817841970E-15 -0.71054273576E-14  0.91188000000E+02  0.91188000000E+02 0.  0.
    9900012    2    3    3    0    0  0.19799990589E+02  0.71771543079E+01 -0.37948263830E+02  0.47787286884E+02  0.20000072220E+02 0.  0.
         12    1    3    3    0    0 -0.19799990589E+02 -0.71771543079E+01  0.37948263830E+02  0.43400713116E+02  0.00000000000E+00 0. -1.
         11    1    4    4    0    0  0.29145970328E+01  0.15037705520E+01 -0.23253742370E+02  0.23483882478E+02  0.51100000000E-03 0. -1.
        -11    1    4    4    0    0  0.46335731967E+01  0.35992315285E+01 -0.87337235781E+01  0.10521520611E+02  0.51100000000E-03 0.  1.
        -12    1    4    4    0    0  0.12251820359E+02  0.20741522274E+01 -0.59607978812E+01  0.13781883796E+02  0.00000000000E+00 0.  1.
</event>
<event>
 8    1  0.5542925E-011  0.9118800E+02  0.7816164E-02  0.1184000E+00
        -11   -1    0    0    0    0  0.00000000000E+00  0.00000000000E+00  0.45593999997E+02  0.45594000000E+02  0.51100000000E-03 0.  1.
         11   -1    0    0    0    0 -0.00000000000E+00 -0.00000000000E+00 -0.45593999997E+02  0.45594000000E+02  0.51100000000E-03 0. -1.
         23    2    1    2    0    0 -0.35527136788E-14 -0.35527136788E-14 -0.35527136788E-14  0.91188000000E+02  0.91188000000E+02 0.  0.
    9900012    2    3    3    0    0  0.30642645561E+02  0.15246732221E+02  0.26686852975E+02  0.47787277747E+02  0.20000030558E+02 0.  0.
         12    1    3    3    0    0 -0.30642645561E+02 -0.15246732221E+02 -0.26686852975E+02  0.43400722253E+02  0.00000000000E+00 0. -1.
         11    1    4    4    0    0  0.82744914982E+01  0.36033710052E+01  0.16562321792E+02  0.18861654104E+02  0.51100000000E-03 0. -1.
        -11    1    4    4    0    0  0.98380684378E+01  0.77247323937E+01  0.96331876406E+01  0.15787887304E+02  0.51100000000E-03 0.  1.
        -12    1    4    4    0    0  0.12530085625E+02  0.39186288223E+01  0.49134354274E+00  0.13137736339E+02  0.00000000000E+00 0.  1.
</event>
<event>
 8    1  0.5542925E-011  0.9118800E+02  0.7816164E-02  0.1184000E+00
        -11   -1    0    0    0    0  0.00000000000E+00  0.00000000000E+00  0.45593999997E+02  0.45594000000E+02  0.51100000000E-03 0. -1.
         11   -1    0    0    0    0 -0.00000000000E+00 -0.00000000000E+00 -0.45593999997E+02  0.45594000000E+02  0.51100000000E-03 0.  1.
         23    2    1    2    0    0  0.35527136788E-14  0.00000000000E+00  0.35527136788E-14  0.91188000000E+02  0.91188000000E+02 0.  0.
    9900012    2    3    3    0    0 -0.16462504484E+02  0.30819861758E+02 -0.25743841328E+02  0.47787270755E+02  0.19999998679E+02 0.  0.
         12    1    3    3    0    0  0.16462504484E+02 -0.30819861758E+02  0.25743841328E+02  0.43400729245E+02  0.00000000000E+00 0. -1.
         11    1    4    4    0    0 -0.14556290881E+01  0.58092950435E+01 -0.12331282823E+02  0.13708657895E+02  0.51100000000E-03 0.  1.
        -11    1    4    4    0    0 -0.11515141265E+02  0.94197792248E+01 -0.35234338434E+01  0.15288731318E+02  0.51100000000E-03 0. -1.
         12    1    4    4    0    0 -0.34917341306E+01  0.15590787490E+02 -0.98891246618E+01  0.18789881542E+02  0.00000000000E+00 0. -1.
</event>
<event>
 8    1  0.5707861E-011  0.9118800E+02  0.7816164E-02  0.1184000E+00
        -11   -1    0    0    0    0  0.00000000000E+00  0.00000000000E+00  0.45593999997E+02  0.45594000000E+02  0.51100000000E-03 0. -1.
         11   -1    0    0    0    0 -0.00000000000E+00 -0.00000000000E+00 -0.45593999997E+02  0.45594000000E+02  0.51100000000E-03 0.  1.
         23    2    1    2    0    0 -0.35527136788E-14  0.25049406993E-14 -0.35527136788E-14  0.91188000000E+02  0.91188000000E+02 0.  0.
    9900012    2    3    3    0    0 -0.31192817048E+02 -0.30057387675E-01  0.30176655246E+02  0.47787271196E+02  0.20000000691E+02 0.  0.
        -12    1    3    3    0    0  0.31192817048E+02  0.30057387675E-01 -0.30176655246E+02  0.43400728804E+02  0.00000000000E+00 0.  1.
         11    1    4    4    0    0 -0.13604943757E+02 -0.47824165027E+01  0.13548890664E+02  0.19787330308E+02  0.51100000000E-03 0. -1.
        -11    1    4    4    0    0 -0.50196659405E+01 -0.37882448974E+01  0.13100721269E+01  0.64237165874E+01  0.51100000000E-03 0.  1.
         12    1    4    4    0    0 -0.12568207351E+02  0.85406040124E+01  0.15317692456E+02  0.21576224301E+02  0.00000000000E+00 0. -1.
</event>
<event>
 8    1  0.5542925E-011  0.9118800E+02  0.7816164E-02  0.1184000E+00
        -11   -1    0    0    0    0  0.00000000000E+00  0.00000000000E+00  0.45593999997E+02  0.45594000000E+02  0.51100000000E-03 0. -1.
         11   -1    0    0    0    0 -0.00000000000E+00 -0.00000000000E+00 -0.45593999997E+02  0.45594000000E+02  0.51100000000E-03 0.  1.
         23    2    1    2    0    0 -0.35527136788E-14 -0.35527136788E-14  0.00000000000E+00  0.91188000000E+02  0.91188000000E+02 0.  0.
    9900012    2    3    3    0    0 -0.19699205069E+02 -0.16610758589E+02  0.34923457844E+02  0.47787263958E+02  0.19999967690E+02 0.  0.
        -12    1    3    3    0    0  0.19699205069E+02  0.16610758589E+02 -0.34923457844E+02  0.43400736042E+02  0.00000000000E+00 0.  1.
         11    1    4    4    0    0 -0.68701701677E+01 -0.10848153952E+02  0.22014079322E+02  0.25485316771E+02  0.51100000000E-03 0. -1.
        -11    1    4    4    0    0  0.36408496915E+00 -0.49481051431E+01  0.32673668338E+01  0.59407060741E+01  0.51100000000E-03 0.  1.
        -12    1    4    4    0    0 -0.13193119871E+02 -0.81449949368E+00  0.96420116880E+01  0.16361241112E+02  0.00000000000E+00 0.  1.
</event>
<event>
 8    1  0.5542925E-011  0.9118800E+02  0.7816164E-02  0.1184000E+00
        -11   -1    0    0    0    0  0.00000000000E+00  0.00000000000E+00  0.45593999997E+02  0.45594000000E+02  0.51100000000E-03 0. -1.
         11   -1    0    0    0    0 -0.00000000000E+00 -0.00000000000E+00 -0.45593999997E+02  0.45594000000E+02  0.51100000000E-03 0.  1.
         23    2    1    2    0    0  0.22204460493E-15  0.00000000000E+00  0.00000000000E+00  0.91188000000E+02  0.91188000000E+02 0.  0.
    9900012    2    3    3    0    0  0.11783446121E+01 -0.20495082798E+02  0.38238545324E+02  0.47787271165E+02  0.20000000549E+02 0.  0.
        -12    1    3    3    0    0 -0.11783446121E+01  0.20495082798E+02 -0.38238545324E+02  0.43400728835E+02  0.00000000000E+00 0.  1.
         11    1    4    4    0    0  0.48533170036E+01 -0.14226410618E+02  0.16707941047E+02  0.22474446363E+02  0.51100000000E-03 0. -1.
        -11    1    4    4    0    0 -0.32453904336E+01 -0.94190707941E+01  0.17909234424E+02  0.20493709562E+02  0.51100000000E-03 0.  1.
        -12    1    4    4    0    0 -0.42958195794E+00  0.31503986143E+01  0.36213698521E+01  0.48191152397E+01  0.00000000000E+00 0.  1.
</event>
<event>
 8    1  0.6126383E-011  0.9118800E+02  0.7816164E-02  0.1184000E+00
        -11   -1    0    0    0    0  0.00000000000E+00  0.00000000000E+00  0.45593999997E+02  0.45594000000E+02  0.51100000000E-03 0. -1.
         11   -1    0    0    0    0 -0.00000000000E+00 -0.00000000000E+00 -0.45593999997E+02  0.45594000000E+02  0.51100000000E-03 0.  1.
         23    2    1    2    0    0  0.44408920985E-15  0.00000000000E+00 -0.71054273576E-14  0.91188000000E+02  0.91188000000E+02 0.  0.
    9900012    2    3    3    0    0  0.23626000096E+01 -0.19386474771E+02  0.38758301773E+02  0.47787271444E+02  0.20000001822E+02 0.  0.
        -12    1    3    3    0    0 -0.23626000096E+01  0.19386474771E+02 -0.38758301773E+02  0.43400728556E+02  0.00000000000E+00 0.  1.
         11    1    4    4    0    0 -0.64054504166E+00 -0.93782280157E+01  0.50666100347E+01  0.10678576505E+02  0.51100000000E-03 0. -1.
        -11    1    4    4    0    0  0.16113465846E+01  0.12710114052E+00 -0.27073213950E+00  0.16388681058E+01  0.51100000000E-03 0.  1.
         12    1    4    4    0    0  0.13917984667E+01 -0.10135347896E+02  0.33962423878E+02  0.35469826833E+02  0.00000000000E+00 0. -1.
</event>
<event>
 8    1  0.5542925E-011  0.9118800E+02  0.7816164E-02  0.1184000E+00
        -11   -1    0    0    0    0  0.00000000000E+00  0.00000000000E+00  0.45593999997E+02  0.45594000000E+02  0.51100000000E-03 0. -1.
         11   -1    0    0    0    0 -0.00000000000E+00 -0.00000000000E+00 -0.45593999997E+02  0.45594000000E+02  0.51100000000E-03 0.  1.
         23    2    1    2    0    0  0.00000000000E+00  0.00000000000E+00  0.17763568394E-14  0.91188000000E+02  0.91188000000E+02 0.  0.
    9900012    2    3    3    0    0 -0.12110041684E+02 -0.39879173722E+02 -0.12108745905E+02  0.47787270355E+02  0.19999996857E+02 0.  0.
         12    1    3    3    0    0  0.12110041684E+02  0.39879173722E+02  0.12108745905E+02  0.43400729645E+02  0.00000000000E+00 0. -1.
         11    1    4    4    0    0  0.58716845279E+00  0.59127258068E-01  0.22739502716E+01  0.23492792349E+01  0.51100000000E-03 0. -1.
        -11    1    4    4    0    0 -0.15345002524E+01 -0.17942953614E+02 -0.29385167028E+01  0.18246620401E+02  0.51100000000E-03 0.  1.
        -12    1    4    4    0    0 -0.11162709884E+02 -0.21995347366E+02 -0.11444179474E+02  0.27191370719E+02  0.00000000000E+00 0.  1.
</event>
<event>
 8    1  0.5542925E-011  0.9118800E+02  0.7816164E-02  0.1184000E+00
        -11   -1    0    0    0    0  0.00000000000E+00  0.00000000000E+00  0.45593999997E+02  0.45594000000E+02  0.51100000000E-03 0. -1.
         11   -1    0    0    0    0 -0.00000000000E+00 -0.00000000000E+00 -0.45593999997E+02  0.45594000000E+02  0.51100000000E-03 0.  1.
         23    2    1    2    0    0  0.00000000000E+00  0.71054273576E-14  0.00000000000E+00  0.91188000000E+02  0.91188000000E+02 0.  0.
    9900012    2    3    3    0    0 -0.10279024169E+02  0.35071989283E+02  0.23407751025E+02  0.47787244498E+02  0.19999878962E+02 0.  0.
        -12    1    3    3    0    0  0.10279024169E+02 -0.35071989283E+02 -0.23407751025E+02  0.43400755502E+02  0.00000000000E+00 0.  1.
         11    1    4    4    0    0 -0.44161338819E+01  0.78590980387E+01  0.10261709455E+02  0.13659075431E+02  0.51100000000E-03 0. -1.
        -11    1    4    4    0    0 -0.62413669492E+01  0.16405026692E+02  0.15081867260E+02  0.23141786501E+02  0.51100000000E-03 0.  1.
        -12    1    4    4    0    0  0.37847666224E+00  0.10807864552E+02 -0.19358256897E+01  0.10986382565E+02  0.00000000000E+00 0.  1.
</event>
<event>
 8    1  0.5542925E-011  0.9118800E+02  0.7816164E-02  0.1184000E+00
        -11   -1    0    0    0    0  0.00000000000E+00  0.00000000000E+00  0.45593999997E+02  0.45594000000E+02  0.51100000000E-03 0. -1.
         11   -1    0    0    0    0 -0.00000000000E+00 -0.00000000000E+00 -0.45593999997E+02  0.45594000000E+02  0.51100000000E-03 0.  1.
         23    2    1    2    0    0  0.00000000000E+00  0.00000000000E+00  0.00000000000E+00  0.91188000000E+02  0.91188000000E+02 0.  0.
    9900012    2    3    3    0    0  0.18707899653E+02 -0.14962969567E+02  0.36190430333E+02  0.47787271718E+02  0.20000003071E+02 0.  0.
        -12    1    3    3    0    0 -0.18707899653E+02  0.14962969567E+02 -0.36190430333E+02  0.43400728282E+02  0.00000000000E+00 0.  1.
         11    1    4    4    0    0  0.10035383558E+02 -0.10829200496E+02  0.26382023881E+02  0.30232295494E+02  0.51100000000E-03 0. -1.
        -11    1    4    4    0    0 -0.32747527764E+00 -0.54332124484E+01  0.41527759797E+01  0.68463556850E+01  0.51100000000E-03 0.  1.
         12    1    4    4    0    0  0.89999913726E+01  0.12994433770E+01  0.56556304725E+01  0.10708620539E+02  0.00000000000E+00 0. -1.
</event>
<event>
 8    1  0.5542925E-011  0.9118800E+02  0.7816164E-02  0.1184000E+00
        -11   -1    0    0    0    0  0.00000000000E+00  0.00000000000E+00  0.45593999997E+02  0.45594000000E+02  0.51100000000E-03 0. -1.
         11   -1    0    0    0    0 -0.00000000000E+00 -0.00000000000E+00 -0.45593999997E+02  0.45594000000E+02  0.51100000000E-03 0.  1.
         23    2    1    2    0    0  0.00000000000E+00  0.00000000000E+00  0.00000000000E+00  0.91188000000E+02  0.91188000000E+02 0.  0.
    9900012    2    3    3    0    0 -0.14277273385E+02  0.18525433448E+02 -0.36559412366E+02  0.47787275901E+02  0.20000022142E+02 0.  0.
         12    1    3    3    0    0  0.14277273385E+02 -0.18525433448E+02  0.36559412366E+02  0.43400724099E+02  0.00000000000E+00 0. -1.
         11    1    4    4    0    0 -0.84178539966E+01  0.54180584864E+01 -0.88166265434E+01  0.13339734913E+02  0.51100000000E-03 0. -1.
        -11    1    4    4    0    0 -0.18484682166E+01 -0.30892712797E+01 -0.65521502933E+01  0.74760354142E+01  0.51100000000E-03 0.  1.
        -12    1    4    4    0    0 -0.40109511720E+01  0.16196646242E+02 -0.21190635530E+02  0.26971505574E+02  0.00000000000E+00 0.  1.
</event>
<event>
 8    1  0.5542925E-011  0.9118800E+02  0.7816164E-02  0.1184000E+00
        -11   -1    0    0    0    0  0.00000000000E+00  0.00000000000E+00  0.45593999997E+02  0.45594000000E+02  0.51100000000E-03 0. -1.
         11   -1    0    0    0    0 -0.00000000000E+00 -0.00000000000E+00 -0.45593999997E+02  0.45594000000E+02  0.51100000000E-03 0.  1.
         23    2    1    2    0    0 -0.88817841970E-15  0.00000000000E+00  0.00000000000E+00  0.91188000000E+02  0.91188000000E+02 0.  0.
    9900012    2    3    3    0    0  0.78124659032E+01  0.78369309046E+01 -0.41966307046E+02  0.47787273778E+02  0.20000012465E+02 0.  0.
         12    1    3    3    0    0 -0.78124659032E+01 -0.78369309046E+01  0.41966307046E+02  0.43400726222E+02  0.00000000000E+00 0. -1.
         11    1    4    4    0    0  0.22037066523E+01  0.14512176975E+01 -0.43984907760E+01  0.51292374855E+01  0.51100000000E-03 0. -1.
        -11    1    4    4    0    0 -0.39677807688E+01  0.93705954432E+01 -0.19145917511E+02  0.21682193173E+02  0.51100000000E-03 0.  1.
        -12    1    4    4    0    0  0.95765400197E+01 -0.29848822361E+01 -0.18421898759E+02  0.20975843120E+02  0.00000000000E+00 0.  1.
</event>
<event>
 8    1  0.5542925E-011  0.9118800E+02  0.7816164E-02  0.1184000E+00
        -11   -1    0    0    0    0  0.00000000000E+00  0.00000000000E+00  0.45593999997E+02  0.45594000000E+02  0.51100000000E-03 0. -1.
         11   -1    0    0    0    0 -0.00000000000E+00 -0.00000000000E+00 -0.45593999997E+02  0.45594000000E+02  0.51100000000E-03 0.  1.
         23    2    1    2    0    0  0.00000000000E+00  0.00000000000E+00  0.00000000000E+00  0.91188000000E+02  0.91188000000E+02 0.  0.
    9900012    2    3    3    0    0  0.65969498397E+01 -0.32452681292E+02  0.28052230650E+02  0.47787263662E+02  0.19999966341E+02 0.  0.
        -12    1    3    3    0    0 -0.65969498397E+01  0.32452681292E+02 -0.28052230650E+02  0.43400736338E+02  0.00000000000E+00 0.  1.
         11    1    4    4    0    0  0.12156930427E+01 -0.14251747781E+02  0.15840628828E+02  0.21342814864E+02  0.51100000000E-03 0. -1.
        -11    1    4    4    0    0  0.24720833260E+01  0.40906239791E+00  0.61762036234E+01  0.66651346179E+01  0.51100000000E-03 0.  1.
        -12    1    4    4    0    0  0.29091734711E+01 -0.18609995909E+02  0.60353981982E+01  0.19779314180E+02  0.00000000000E+00 0.  1.
</event>
<event>
 8    1  0.5542925E-011  0.9118800E+02  0.7816164E-02  0.1184000E+00
        -11   -1    0    0    0    0  0.00000000000E+00  0.00000000000E+00  0.45593999997E+02  0.45594000000E+02  0.51100000000E-03 0. -1.
         11   -1    0    0    0    0 -0.00000000000E+00 -0.00000000000E+00 -0.45593999997E+02  0.45594000000E+02  0.51100000000E-03 0.  1.
         23    2    1    2    0    0  0.00000000000E+00  0.00000000000E+00  0.00000000000E+00  0.91188000000E+02  0.91188000000E+02 0.  0.
    9900012    2    3    3    0    0 -0.32684128597E+02 -0.20910281291E+02  0.19445588422E+02  0.47787273798E+02  0.20000012555E+02 0.  0.
        -12    1    3    3    0    0  0.32684128597E+02  0.20910281291E+02 -0.19445588422E+02  0.43400726202E+02  0.00000000000E+00 0.  1.
         11    1    4    4    0    0 -0.13242357036E+01  0.10749985731E+01 -0.12854845683E+01  0.21358120159E+01  0.51100000000E-03 0. -1.
        -11    1    4    4    0    0  0.12100550317E+01 -0.66137839737E+00  0.20525933312E+01  0.24728109933E+01  0.51100000000E-03 0.  1.
         12    1    4    4    0    0 -0.32569947925E+02 -0.21323901467E+02  0.18678479659E+02  0.43178650789E+02  0.00000000000E+00 0. -1.
</event>
<event>
 8    1  0.5542925E-011  0.9118800E+02  0.7816164E-02  0.1184000E+00
        -11   -1    0    0    0    0  0.00000000000E+00  0.00000000000E+00  0.45593999997E+02  0.45594000000E+02  0.51100000000E-03 0. -1.
         11   -1    0    0    0    0 -0.00000000000E+00 -0.00000000000E+00 -0.45593999997E+02  0.45594000000E+02  0.51100000000E-03 0.  1.
         23    2    1    2    0    0  0.88817841970E-15  0.88817841970E-15  0.00000000000E+00  0.91188000000E+02  0.91188000000E+02 0.  0.
    9900012    2    3    3    0    0 -0.73533101264E+01 -0.36178072049E+01 -0.42619994122E+02  0.47787267313E+02  0.19999982987E+02 0.  0.
         12    1    3    3    0    0  0.73533101264E+01  0.36178072049E+01  0.42619994122E+02  0.43400732687E+02  0.00000000000E+00 0. -1.
         11    1    4    4    0    0  0.14150995638E+01 -0.51170012093E+01 -0.28603980717E+02  0.29092506273E+02  0.51100000000E-03 0. -1.
        -11    1    4    4    0    0 -0.61227303781E+01 -0.79946527331E+00 -0.13875260629E+02  0.15187160030E+02  0.51100000000E-03 0.  1.
         12    1    4    4    0    0 -0.26456793121E+01  0.22986592777E+01 -0.14075277634E+00  0.35076010094E+01  0.00000000000E+00 0. -1.
</event>
<event>
 8    1  0.5542925E-011  0.9118800E+02  0.7816164E-02  0.1184000E+00
        -11   -1    0    0    0    0  0.00000000000E+00  0.00000000000E+00  0.45593999997E+02  0.45594000000E+02  0.51100000000E-03 0. -1.
         11   -1    0    0    0    0 -0.00000000000E+00 -0.00000000000E+00 -0.45593999997E+02  0.45594000000E+02  0.51100000000E-03 0.  1.
         23    2    1    2    0    0  0.00000000000E+00  0.00000000000E+00  0.00000000000E+00  0.91188000000E+02  0.91188000000E+02 0.  0.
    9900012    2    3    3    0    0 -0.23637970327E+02  0.11010122792E+02 -0.34693617456E+02  0.47787268011E+02  0.19999986167E+02 0.  0.
         12    1    3    3    0    0  0.23637970327E+02 -0.11010122792E+02  0.34693617456E+02  0.43400731989E+02  0.00000000000E+00 0. -1.
         11    1    4    4    0    0 -0.14844558764E+02  0.57542360519E+01 -0.11492348670E+02  0.19635331310E+02  0.51100000000E-03 0. -1.
        -11    1    4    4    0    0 -0.10111440075E+02  0.39400970593E+01 -0.98006715151E+01  0.14622542447E+02  0.51100000000E-03 0.  1.
         12    1    4    4    0    0  0.13180285118E+01  0.13157896808E+01 -0.13400597271E+02  0.13529394253E+02  0.00000000000E+00 0. -1.
</event>
<event>
 8    1  0.5542925E-011  0.9118800E+02  0.7816164E-02  0.1184000E+00
        -11   -1    0    0    0    0  0.00000000000E+00  0.00000000000E+00  0.45593999997E+02  0.45594000000E+02  0.51100000000E-03 0. -1.
         11   -1    0    0    0    0 -0.00000000000E+00 -0.00000000000E+00 -0.45593999997E+02  0.45594000000E+02  0.51100000000E-03 0.  1.
         23    2    1    2    0    0  0.17763568394E-14  0.00000000000E+00  0.00000000000E+00  0.91188000000E+02  0.91188000000E+02 0.  0.
    9900012    2    3    3    0    0 -0.10430783446E+02  0.60204010801E+01  0.41696243186E+02  0.47787272261E+02  0.20000005547E+02 0.  0.
        -12    1    3    3    0    0  0.10430783446E+02 -0.60204010801E+01 -0.41696243186E+02  0.43400727739E+02  0.00000000000E+00 0.  1.
         11    1    4    4    0    0  0.11075876343E+01  0.58895622316E+01  0.20536639931E+02  0.21393159504E+02  0.51100000000E-03 0. -1.
        -11    1    4    4    0    0 -0.19543738602E+01 -0.43293606743E+00  0.14669991190E+02  0.14805933020E+02  0.51100000000E-03 0.  1.
        -12    1    4    4    0    0 -0.95839972197E+01  0.56377491590E+00  0.64896120654E+01  0.11588179737E+02  0.00000000000E+00 0.  1.
</event>
<event>
 8    1  0.5542925E-011  0.9118800E+02  0.7816164E-02  0.1184000E+00
        -11   -1    0    0    0    0  0.00000000000E+00  0.00000000000E+00  0.45593999997E+02  0.45594000000E+02  0.51100000000E-03 0. -1.
         11   -1    0    0    0    0 -0.00000000000E+00 -0.00000000000E+00 -0.45593999997E+02  0.45594000000E+02  0.51100000000E-03 0.  1.
         23    2    1    2    0    0  0.00000000000E+00 -0.35527136788E-14  0.00000000000E+00  0.91188000000E+02  0.91188000000E+02 0.  0.
    9900012    2    3    3    0    0 -0.28145813733E+02  0.27525933412E+02 -0.18269083076E+02  0.47787271465E+02  0.20000001919E+02 0.  0.
         12    1    3    3    0    0  0.28145813733E+02 -0.27525933412E+02  0.18269083076E+02  0.43400728535E+02  0.00000000000E+00 0. -1.
         11    1    4    4    0    0 -0.13245199394E+02  0.14156682056E+02 -0.50882230932E+01  0.20043377169E+02  0.51100000000E-03 0. -1.
        -11    1    4    4    0    0 -0.10089811556E+02  0.13731881251E+02 -0.14886408077E+02  0.22626842591E+02  0.51100000000E-03 0.  1.
         12    1    4    4    0    0 -0.48108027829E+01 -0.36262989467E+00  0.17055480947E+01  0.51170517058E+01  0.00000000000E+00 0. -1.
</event>
<event>
 8    1  0.5542925E-011  0.9118800E+02  0.7816164E-02  0.1184000E+00
        -11   -1    0    0    0    0  0.00000000000E+00  0.00000000000E+00  0.45593999997E+02  0.45594000000E+02  0.51100000000E-03 0. -1.
         11   -1    0    0    0    0 -0.00000000000E+00 -0.00000000000E+00 -0.45593999997E+02  0.45594000000E+02  0.51100000000E-03 0.  1.
         23    2    1    2    0    0  0.17763568394E-14 -0.35527136788E-14  0.00000000000E+00  0.91188000000E+02  0.91188000000E+02 0.  0.
    9900012    2    3    3    0    0  0.10034428274E+02 -0.27444360743E+02  0.32089577126E+02  0.47787266740E+02  0.19999980373E+02 0.  0.
        -12    1    3    3    0    0 -0.10034428274E+02  0.27444360743E+02 -0.32089577126E+02  0.43400733260E+02  0.00000000000E+00 0.  1.
         11    1    4    4    0    0  0.60267596340E+01 -0.84384280523E+01  0.65515874716E+01  0.12265895741E+02  0.51100000000E-03 0. -1.
        -11    1    4    4    0    0  0.72278138237E+01 -0.41452633062E+01  0.14529892598E+02  0.16749396399E+02  0.51100000000E-03 0.  1.
         12    1    4    4    0    0 -0.32201451835E+01 -0.14860669385E+02  0.11008097057E+02  0.18771974600E+02  0.00000000000E+00 0. -1.
</event>
<event>
 8    1  0.5542925E-011  0.9118800E+02  0.7816164E-02  0.1184000E+00
        -11   -1    0    0    0    0  0.00000000000E+00  0.00000000000E+00  0.45593999997E+02  0.45594000000E+02  0.51100000000E-03 0. -1.
         11   -1    0    0    0    0 -0.00000000000E+00 -0.00000000000E+00 -0.45593999997E+02  0.45594000000E+02  0.51100000000E-03 0.  1.
         23    2    1    2    0    0  0.00000000000E+00 -0.88817841970E-15  0.00000000000E+00  0.91188000000E+02  0.91188000000E+02 0.  0.
    9900012    2    3    3    0    0  0.27892161932E+02  0.53834467883E+01  0.32812634668E+02  0.47787272006E+02  0.20000004383E+02 0.  0.
        -12    1    3    3    0    0 -0.27892161932E+02 -0.53834467883E+01 -0.32812634668E+02  0.43400727994E+02  0.00000000000E+00 0.  1.
         11    1    4    4    0    0  0.17489975552E+02  0.24325716766E+01  0.13150667423E+02  0.22017191094E+02  0.51100000000E-03 0. -1.
        -11    1    4    4    0    0  0.92689543330E+01 -0.27153071003E+01  0.16662888756E+02  0.19259757762E+02  0.51100000000E-03 0.  1.
        -12    1    4    4    0    0  0.11332320476E+01  0.56661822119E+01  0.29990784889E+01  0.65103231498E+01  0.00000000000E+00 0.  1.
</event>
<event>
 8    1  0.5542925E-011  0.9118800E+02  0.7816164E-02  0.1184000E+00
        -11   -1    0    0    0    0  0.00000000000E+00  0.00000000000E+00  0.45593999997E+02  0.45594000000E+02  0.51100000000E-03 0. -1.
         11   -1    0    0    0    0 -0.00000000000E+00 -0.00000000000E+00 -0.45593999997E+02  0.45594000000E+02  0.51100000000E-03 0.  1.
         23    2    1    2    0    0  0.35527136788E-14  0.00000000000E+00  0.00000000000E+00  0.91188000000E+02  0.91188000000E+02 0.  0.
    9900012    2    3    3    0    0 -0.28075037682E+02  0.48635472696E+01 -0.32737775387E+02  0.47787265326E+02  0.19999973928E+02 0.  0.
         12    1    3    3    0    0  0.28075037682E+02 -0.48635472696E+01  0.32737775387E+02  0.43400734674E+02  0.00000000000E+00 0. -1.
         11    1    4    4    0    0  0.67562010417E+00  0.11810073528E+01 -0.49004194174E-01  0.13614854258E+01  0.51100000000E-03 0. -1.
        -11    1    4    4    0    0 -0.67954104291E+01  0.45507641400E+01 -0.15638878943E+01  0.83266321382E+01  0.51100000000E-03 0.  1.
        -12    1    4    4    0    0 -0.21955247357E+02 -0.86822422320E+00 -0.31124883299E+02  0.38099147762E+02  0.00000000000E+00 0.  1.
</event>
<event>
 8    1  0.5542925E-011  0.9118800E+02  0.7816164E-02  0.1184000E+00
        -11   -1    0    0    0    0  0.00000000000E+00  0.00000000000E+00  0.45593999997E+02  0.45594000000E+02  0.51100000000E-03 0. -1.
         11   -1    0    0    0    0 -0.00000000000E+00 -0.00000000000E+00 -0.45593999997E+02  0.45594000000E+02  0.51100000000E-03 0.  1.
         23    2    1    2    0    0  0.00000000000E+00  0.35527136788E-14  0.00000000000E+00  0.91188000000E+02  0.91188000000E+02 0.  0.
    9900012    2    3    3    0    0 -0.23036421035E+02  0.22523877221E+02  0.29079572144E+02  0.47787271259E+02  0.20000000977E+02 0.  0.
        -12    1    3    3    0    0  0.23036421035E+02 -0.22523877221E+02 -0.29079572144E+02  0.43400728741E+02  0.00000000000E+00 0.  1.
         11    1    4    4    0    0 -0.17923333031E+02  0.22890909092E+02  0.20908623962E+02  0.35810754561E+02  0.51100000000E-03 0. -1.
        -11    1    4    4    0    0 -0.54101977713E+01  0.21356593621E+01  0.38530232850E+01  0.69768954078E+01  0.51100000000E-03 0.  1.
        -12    1    4    4    0    0  0.29710976730E+00 -0.25026912330E+01  0.43179248976E+01  0.49996212900E+01  0.00000000000E+00 0.  1.
</event>
<event>
 8    1  0.6077444E-011  0.9118800E+02  0.7816164E-02  0.1184000E+00
        -11   -1    0    0    0    0  0.00000000000E+00  0.00000000000E+00  0.45593999997E+02  0.45594000000E+02  0.51100000000E-03 0. -1.
         11   -1    0    0    0    0 -0.00000000000E+00 -0.00000000000E+00 -0.45593999997E+02  0.45594000000E+02  0.51100000000E-03 0.  1.
         23    2    1    2    0    0  0.71054273576E-14  0.00000000000E+00  0.35527136788E-14  0.91188000000E+02  0.91188000000E+02 0.  0.
    9900012    2    3    3    0    0  0.36005080072E+02  0.43574786982E+01  0.23838419605E+02  0.47787266586E+02  0.19999979674E+02 0.  0.
        -12    1    3    3    0    0 -0.36005080072E+02 -0.43574786982E+01 -0.23838419605E+02  0.43400733414E+02  0.00000000000E+00 0.  1.
         11    1    4    4    0    0  0.58954797644E+01 -0.39759308016E+01  0.37733254321E+01  0.80500119546E+01  0.51100000000E-03 0. -1.
        -11    1    4    4    0    0  0.26549138108E+01  0.43538640201E+01  0.79966497119E+01  0.94842556969E+01  0.51100000000E-03 0.  1.
         12    1    4    4    0    0  0.27454686497E+02  0.39795454796E+01  0.12068444461E+02  0.30252998935E+02  0.00000000000E+00 0. -1.
</event>
<event>
 8    1  0.5542925E-011  0.9118800E+02  0.7816164E-02  0.1184000E+00
        -11   -1    0    0    0    0  0.00000000000E+00  0.00000000000E+00  0.45593999997E+02  0.45594000000E+02  0.51100000000E-03 0. -1.
         11   -1    0    0    0    0 -0.00000000000E+00 -0.00000000000E+00 -0.45593999997E+02  0.45594000000E+02  0.51100000000E-03 0.  1.
         23    2    1    2    0    0  0.00000000000E+00  0.35527136788E-14  0.00000000000E+00  0.91188000000E+02  0.91188000000E+02 0.  0.
    9900012    2    3    3    0    0 -0.17071240507E+02 -0.31840665408E+02 -0.24049265384E+02  0.47787281210E+02  0.20000046347E+02 0.  0.
         12    1    3    3    0    0  0.17071240507E+02  0.31840665408E+02  0.24049265384E+02  0.43400718790E+02  0.00000000000E+00 0. -1.
         11    1    4    4    0    0 -0.28301275761E+01 -0.15280450605E+02 -0.65465295890E+01  0.16862942884E+02  0.51100000000E-03 0. -1.
        -11    1    4    4    0    0 -0.23037822060E+01 -0.11968278318E+02 -0.54533315740E+01  0.13352375214E+02  0.51100000000E-03 0.  1.
         12    1    4    4    0    0 -0.11937330725E+02 -0.45919364848E+01 -0.12049404221E+02  0.17571963111E+02  0.00000000000E+00 0. -1.
</event>
<event>
 8    1  0.5542925E-011  0.9118800E+02  0.7816164E-02  0.1184000E+00
        -11   -1    0    0    0    0  0.00000000000E+00  0.00000000000E+00  0.45593999997E+02  0.45594000000E+02  0.51100000000E-03 0.  1.
         11   -1    0    0    0    0 -0.00000000000E+00 -0.00000000000E+00 -0.45593999997E+02  0.45594000000E+02  0.51100000000E-03 0. -1.
         23    2    1    2    0    0  0.35527136788E-14  0.00000000000E+00 -0.88817841970E-15  0.91188000000E+02  0.91188000000E+02 0.  0.
    9900012    2    3    3    0    0 -0.26881356076E+02 -0.34068686161E+02 -0.58352137614E+00  0.47787272144E+02  0.20000005014E+02 0.  0.
        -12    1    3    3    0    0  0.26881356076E+02  0.34068686161E+02  0.58352137614E+00  0.43400727856E+02  0.00000000000E+00 0.  1.
         11    1    4    4    0    0 -0.22875032337E+02 -0.17452146907E+02 -0.64513895713E+01  0.29486691299E+02  0.51100000000E-03 0. -1.
        -11    1    4    4    0    0 -0.19402195297E-02 -0.14429578812E+01  0.13354283826E+01  0.19660875966E+01  0.51100000000E-03 0.  1.
         12    1    4    4    0    0 -0.40043835197E+01 -0.15173581373E+02  0.45324398126E+01  0.16334493249E+02  0.00000000000E+00 0. -1.
</event>
<event>
 8    1  0.5542925E-011  0.9118800E+02  0.7816164E-02  0.1184000E+00
        -11   -1    0    0    0    0  0.00000000000E+00  0.00000000000E+00  0.45593999997E+02  0.45594000000E+02  0.51100000000E-03 0. -1.
         11   -1    0    0    0    0 -0.00000000000E+00 -0.00000000000E+00 -0.45593999997E+02  0.45594000000E+02  0.51100000000E-03 0.  1.
         23    2    1    2    0    0  0.00000000000E+00  0.00000000000E+00 -0.88817841970E-15  0.91188000000E+02  0.91188000000E+02 0.  0.
    9900012    2    3    3    0    0 -0.34204553579E+02  0.25626229402E+02  0.75477296160E+01  0.47787270268E+02  0.19999996461E+02 0.  0.
        -12    1    3    3    0    0  0.34204553579E+02 -0.25626229402E+02 -0.75477296160E+01  0.43400729732E+02  0.00000000000E+00 0.  1.
         11    1    4    4    0    0 -0.25716199555E+01  0.55648499103E+01  0.11122401711E+00  0.61313256937E+01  0.51100000000E-03 0. -1.
        -11    1    4    4    0    0 -0.18562080568E+01  0.76258406508E+01 -0.18767079582E+01  0.80697575555E+01  0.51100000000E-03 0.  1.
         12    1    4    4    0    0 -0.29776725566E+02  0.12435538841E+02  0.93132135570E+01  0.33586187019E+02  0.00000000000E+00 0. -1.
</event>
<event>
 8    1  0.5542925E-011  0.9118800E+02  0.7816164E-02  0.1184000E+00
        -11   -1    0    0    0    0  0.00000000000E+00  0.00000000000E+00  0.45593999997E+02  0.45594000000E+02  0.51100000000E-03 0. -1.
         11   -1    0    0    0    0 -0.00000000000E+00 -0.00000000000E+00 -0.45593999997E+02  0.45594000000E+02  0.51100000000E-03 0.  1.
         23    2    1    2    0    0 -0.35527136788E-14  0.35527136788E-14  0.00000000000E+00  0.91188000000E+02  0.91188000000E+02 0.  0.
    9900012    2    3    3    0    0  0.30515543070E+02 -0.30029819764E+02 -0.71158112888E+01  0.47787271732E+02  0.20000003133E+02 0.  0.
         12    1    3    3    0    0 -0.30515543070E+02  0.30029819764E+02  0.71158112888E+01  0.43400728268E+02  0.00000000000E+00 0. -1.
         11    1    4    4    0    0  0.52204751621E+01 -0.35712282655E+01  0.31194889475E+01  0.70525345655E+01  0.51100000000E-03 0. -1.
        -11    1    4    4    0    0  0.88254719890E+01 -0.75111521423E+01  0.35156651974E+01  0.12110584807E+02  0.51100000000E-03 0.  1.
        -12    1    4    4    0    0  0.16469595919E+02 -0.18947439356E+02 -0.13750965434E+02  0.28624152359E+02  0.00000000000E+00 0.  1.
</event>
<event>
 8    1  0.5542925E-011  0.9118800E+02  0.7816164E-02  0.1184000E+00
        -11   -1    0    0    0    0  0.00000000000E+00  0.00000000000E+00  0.45593999997E+02  0.45594000000E+02  0.51100000000E-03 0. -1.
         11   -1    0    0    0    0 -0.00000000000E+00 -0.00000000000E+00 -0.45593999997E+02  0.45594000000E+02  0.51100000000E-03 0.  1.
         23    2    1    2    0    0  0.00000000000E+00  0.00000000000E+00  0.00000000000E+00  0.91188000000E+02  0.91188000000E+02 0.  0.
    9900012    2    3    3    0    0  0.34216886375E+02  0.78656344015E+01  0.25513918746E+02  0.47787267662E+02  0.19999984577E+02 0.  0.
        -12    1    3    3    0    0 -0.34216886375E+02 -0.78656344015E+01 -0.25513918746E+02  0.43400732338E+02  0.00000000000E+00 0.  1.
         11    1    4    4    0    0  0.94322945885E+01  0.83370044289E+00  0.27945219510E+00  0.94731901397E+01  0.51100000000E-03 0. -1.
        -11    1    4    4    0    0 -0.58335066562E+00 -0.15571849053E+01  0.23950003504E+00  0.16800248082E+01  0.51100000000E-03 0.  1.
        -12    1    4    4    0    0  0.25367942452E+02  0.85891188639E+01  0.24994966516E+02  0.36634052714E+02  0.00000000000E+00 0.  1.
</event>
<event>
 8    1  0.5542925E-011  0.9118800E+02  0.7816164E-02  0.1184000E+00
        -11   -1    0    0    0    0  0.00000000000E+00  0.00000000000E+00  0.45593999997E+02  0.45594000000E+02  0.51100000000E-03 0. -1.
         11   -1    0    0    0    0 -0.00000000000E+00 -0.00000000000E+00 -0.45593999997E+02  0.45594000000E+02  0.51100000000E-03 0.  1.
         23    2    1    2    0    0  0.00000000000E+00  0.00000000000E+00  0.00000000000E+00  0.91188000000E+02  0.91188000000E+02 0.  0.
    9900012    2    3    3    0    0 -0.12938553361E+02  0.10906052779E+02  0.39965925800E+02  0.47787269875E+02  0.19999994669E+02 0.  0.
        -12    1    3    3    0    0  0.12938553361E+02 -0.10906052779E+02 -0.39965925800E+02  0.43400730125E+02  0.00000000000E+00 0.  1.
         11    1    4    4    0    0 -0.66024734793E+01 -0.68634631707E+00  0.36563195714E+01  0.75784167464E+01  0.51100000000E-03 0. -1.
        -11    1    4    4    0    0 -0.80469240557E+01  0.31273084229E+01  0.18569349926E+02  0.20478129838E+02  0.51100000000E-03 0.  1.
        -12    1    4    4    0    0  0.17108441737E+01  0.84650906732E+01  0.17740256303E+02  0.19730723291E+02  0.00000000000E+00 0.  1.
</event>
<event>
 8    1  0.5542925E-011  0.9118800E+02  0.7816164E-02  0.1184000E+00
        -11   -1    0    0    0    0  0.00000000000E+00  0.00000000000E+00  0.45593999997E+02  0.45594000000E+02  0.51100000000E-03 0. -1.
         11   -1    0    0    0    0 -0.00000000000E+00 -0.00000000000E+00 -0.45593999997E+02  0.45594000000E+02  0.51100000000E-03 0.  1.
         23    2    1    2    0    0  0.00000000000E+00  0.00000000000E+00  0.00000000000E+00  0.91188000000E+02  0.91188000000E+02 0.  0.
    9900012    2    3    3    0    0  0.18702221868E+02  0.13826738670E+01  0.39139984685E+02  0.47787270848E+02  0.19999999103E+02 0.  0.
        -12    1    3    3    0    0 -0.18702221868E+02 -0.13826738670E+01 -0.39139984685E+02  0.43400729152E+02  0.00000000000E+00 0.  1.
         11    1    4    4    0    0  0.47291521624E+01 -0.14989586802E+01  0.17920537095E+02  0.18594553163E+02  0.51100000000E-03 0. -1.
        -11    1    4    4    0    0 -0.27377030113E+01  0.18201379745E+01  0.30528450662E+01  0.44863998132E+01  0.51100000000E-03 0.  1.
        -12    1    4    4    0    0  0.16710772717E+02  0.10614945727E+01  0.18166602524E+02  0.24706317872E+02  0.00000000000E+00 0.  1.
</event>
<event>
 8    1  0.5542925E-011  0.9118800E+02  0.7816164E-02  0.1184000E+00
        -11   -1    0    0    0    0  0.00000000000E+00  0.00000000000E+00  0.45593999997E+02  0.45594000000E+02  0.51100000000E-03 0. -1.
         11   -1    0    0    0    0 -0.00000000000E+00 -0.00000000000E+00 -0.45593999997E+02  0.45594000000E+02  0.51100000000E-03 0.  1.
         23    2    1    2    0    0 -0.35527136788E-14  0.00000000000E+00 -0.35527136788E-14  0.91188000000E+02  0.91188000000E+02 0.  0.
    9900012    2    3    3    0    0 -0.26989912883E+02  0.14663409969E+02 -0.30661910953E+02  0.47787265298E+02  0.19999973801E+02 0.  0.
         12    1    3    3    0    0  0.26989912883E+02 -0.14663409969E+02  0.30661910953E+02  0.43400734702E+02  0.00000000000E+00 0. -1.
         11    1    4    4    0    0 -0.20385427155E+02  0.78601970978E+01 -0.95996097510E+01  0.23864216860E+02  0.51100000000E-03 0.  1.
        -11    1    4    4    0    0 -0.22849431632E+01 -0.94535721415E+00 -0.46527084496E+01  0.52690000664E+01  0.51100000000E-03 0. -1.
        -12    1    4    4    0    0 -0.43195425641E+01  0.77485700858E+01 -0.16409592753E+02  0.18654048372E+02  0.00000000000E+00 0.  1.
</event>
<event>
 8    1  0.5542925E-011  0.9118800E+02  0.7816164E-02  0.1184000E+00
        -11   -1    0    0    0    0  0.00000000000E+00  0.00000000000E+00  0.45593999997E+02  0.45594000000E+02  0.51100000000E-03 0.  1.
         11   -1    0    0    0    0 -0.00000000000E+00 -0.00000000000E+00 -0.45593999997E+02  0.45594000000E+02  0.51100000000E-03 0. -1.
         23    2    1    2    0    0  0.00000000000E+00 -0.71054273576E-14  0.00000000000E+00  0.91188000000E+02  0.91188000000E+02 0.  0.
    9900012    2    3    3    0    0  0.14136655689E+02  0.39156064041E+02 -0.12271219215E+02  0.47787248782E+02  0.19999898495E+02 0.  0.
        -12    1    3    3    0    0 -0.14136655689E+02 -0.39156064041E+02  0.12271219215E+02  0.43400751218E+02  0.00000000000E+00 0.  1.
         11    1    4    4    0    0  0.68443329796E+01  0.17884872670E+02  0.40782050677E+01  0.19579206347E+02  0.51100000000E-03 0. -1.
        -11    1    4    4    0    0  0.41297457604E-01  0.29729523510E+01 -0.68035296356E+00  0.30500871426E+01  0.51100000000E-03 0.  1.
        -12    1    4    4    0    0  0.72510252523E+01  0.18298239020E+02 -0.15669071320E+02  0.25157955292E+02  0.00000000000E+00 0.  1.
</event>
<event>
 8    1  0.5542925E-011  0.9118800E+02  0.7816164E-02  0.1184000E+00
        -11   -1    0    0    0    0  0.00000000000E+00  0.00000000000E+00  0.45593999997E+02  0.45594000000E+02  0.51100000000E-03 0. -1.
         11   -1    0    0    0    0 -0.00000000000E+00 -0.00000000000E+00 -0.45593999997E+02  0.45594000000E+02  0.51100000000E-03 0.  1.
         23    2    1    2    0    0  0.17763568394E-14 -0.17763568394E-14  0.00000000000E+00  0.91188000000E+02  0.91188000000E+02 0.  0.
    9900012    2    3    3    0    0 -0.10803143374E+02  0.12138836118E+02 -0.40243800804E+02  0.47787277054E+02  0.20000027399E+02 0.  0.
         12    1    3    3    0    0  0.10803143374E+02 -0.12138836118E+02  0.40243800804E+02  0.43400722946E+02  0.00000000000E+00 0. -1.
         11    1    4    4    0    0 -0.45569105749E+01  0.60819635919E+00 -0.45041449675E+01  0.64360437341E+01  0.51100000000E-03 0. -1.
        -11    1    4    4    0    0 -0.63532746209E+01  0.14667059122E+02 -0.21619881409E+02  0.26886911204E+02  0.51100000000E-03 0.  1.
         12    1    4    4    0    0  0.10704182146E+00 -0.31364193626E+01 -0.14119774428E+02  0.14464322115E+02  0.00000000000E+00 0. -1.
</event>
<event>
 8    1  0.5542925E-011  0.9118800E+02  0.7816164E-02  0.1184000E+00
        -11   -1    0    0    0    0  0.00000000000E+00  0.00000000000E+00  0.45593999997E+02  0.45594000000E+02  0.51100000000E-03 0.  1.
         11   -1    0    0    0    0 -0.00000000000E+00 -0.00000000000E+00 -0.45593999997E+02  0.45594000000E+02  0.51100000000E-03 0. -1.
         23    2    1    2    0    0  0.00000000000E+00  0.00000000000E+00  0.00000000000E+00  0.91188000000E+02  0.91188000000E+02 0.  0.
    9900012    2    3    3    0    0 -0.22068445992E+01  0.37419393428E+02  0.21875601754E+02  0.47787272820E+02  0.20000008097E+02 0.  0.
        -12    1    3    3    0    0  0.22068445992E+01 -0.37419393428E+02 -0.21875601754E+02  0.43400727180E+02  0.00000000000E+00 0.  1.
         11    1    4    4    0    0  0.36988467498E+01  0.10722328381E+02  0.13018033790E+02  0.17266122819E+02  0.51100000000E-03 0. -1.
        -11    1    4    4    0    0 -0.23010873317E+01  0.20343625731E+02  0.10537072340E+02  0.23025811703E+02  0.51100000000E-03 0.  1.
        -12    1    4    4    0    0 -0.36046040173E+01  0.63534393158E+01 -0.16795043760E+01  0.74953382986E+01  0.00000000000E+00 0.  1.
</event>
<event>
 8    1  0.5542925E-011  0.9118800E+02  0.7816164E-02  0.1184000E+00
        -11   -1    0    0    0    0  0.00000000000E+00  0.00000000000E+00  0.45593999997E+02  0.45594000000E+02  0.51100000000E-03 0. -1.
         11   -1    0    0    0    0 -0.00000000000E+00 -0.00000000000E+00 -0.45593999997E+02  0.45594000000E+02  0.51100000000E-03 0.  1.
         23    2    1    2    0    0  0.00000000000E+00  0.17763568394E-14  0.71054273576E-14  0.91188000000E+02  0.91188000000E+02 0.  0.
    9900012    2    3    3    0    0  0.88901710280E+01  0.10721156343E+02  0.41105306885E+02  0.47787255901E+02  0.19999930957E+02 0.  0.
        -12    1    3    3    0    0 -0.88901710280E+01 -0.10721156343E+02 -0.41105306885E+02  0.43400744099E+02  0.00000000000E+00 0.  1.
         11    1    4    4    0    0  0.49526774120E+01  0.52383695543E+01  0.13765813556E+02  0.15539213373E+02  0.51100000000E-03 0. -1.
        -11    1    4    4    0    0 -0.41860377552E+01  0.73194517200E+01  0.10543267801E+02  0.13500288210E+02  0.51100000000E-03 0.  1.
        -12    1    4    4    0    0  0.81235313712E+01 -0.18366649311E+01  0.16796225528E+02  0.18747754319E+02  0.00000000000E+00 0.  1.
</event>
<event>
 8    1  0.5542925E-011  0.9118800E+02  0.7816164E-02  0.1184000E+00
        -11   -1    0    0    0    0  0.00000000000E+00  0.00000000000E+00  0.45593999997E+02  0.45594000000E+02  0.51100000000E-03 0. -1.
         11   -1    0    0    0    0 -0.00000000000E+00 -0.00000000000E+00 -0.45593999997E+02  0.45594000000E+02  0.51100000000E-03 0.  1.
         23    2    1    2    0    0  0.00000000000E+00  0.00000000000E+00 -0.17763568394E-14  0.91188000000E+02  0.91188000000E+02 0.  0.
    9900012    2    3    3    0    0  0.13590804111E+02 -0.39930739317E+02  0.10220048057E+02  0.47787270961E+02  0.19999999621E+02 0.  0.
        -12    1    3    3    0    0 -0.13590804111E+02  0.39930739317E+02 -0.10220048057E+02  0.43400729039E+02  0.00000000000E+00 0.  1.
         11    1    4    4    0    0  0.73972299048E+01 -0.45314272475E+01  0.11647500102E+01  0.87526845031E+01  0.51100000000E-03 0.  1.
        -11    1    4    4    0    0  0.89178484127E+01 -0.23088646613E+02  0.26503205901E+01  0.24892525429E+02  0.51100000000E-03 0. -1.
        -12    1    4    4    0    0 -0.27242742063E+01 -0.12310665456E+02  0.64049774572E+01  0.14142061029E+02  0.00000000000E+00 0.  1.
</event>
<event>
 8    1  0.5542925E-011  0.9118800E+02  0.7816164E-02  0.1184000E+00
        -11   -1    0    0    0    0  0.00000000000E+00  0.00000000000E+00  0.45593999997E+02  0.45594000000E+02  0.51100000000E-03 0. -1.
         11   -1    0    0    0    0 -0.00000000000E+00 -0.00000000000E+00 -0.45593999997E+02  0.45594000000E+02  0.51100000000E-03 0.  1.
         23    2    1    2    0    0 -0.17763568394E-14  0.00000000000E+00  0.00000000000E+00  0.91188000000E+02  0.91188000000E+02 0.  0.
    9900012    2    3    3    0    0 -0.10077088502E+02  0.22275246777E+02  0.35859291863E+02  0.47787272534E+02  0.20000006792E+02 0.  0.
        -12    1    3    3    0    0  0.10077088502E+02 -0.22275246777E+02 -0.35859291863E+02  0.43400727466E+02  0.00000000000E+00 0.  1.
         11    1    4    4    0    0 -0.83331621627E+01  0.10695099371E+02  0.20501297018E+02  0.24579054536E+02  0.51100000000E-03 0. -1.
        -11    1    4    4    0    0 -0.15368377146E+01  0.12712117688E+02  0.66575580109E+01  0.14432009049E+02  0.51100000000E-03 0.  1.
         12    1    4    4    0    0 -0.20708862433E+00 -0.11319702816E+01  0.87004368337E+01  0.87762089488E+01  0.00000000000E+00 0. -1.
</event>
<event>
 8    1  0.5542925E-011  0.9118800E+02  0.7816164E-02  0.1184000E+00
        -11   -1    0    0    0    0  0.00000000000E+00  0.00000000000E+00  0.45593999997E+02  0.45594000000E+02  0.51100000000E-03 0. -1.
         11   -1    0    0    0    0 -0.00000000000E+00 -0.00000000000E+00 -0.45593999997E+02  0.45594000000E+02  0.51100000000E-03 0.  1.
         23    2    1    2    0    0  0.00000000000E+00 -0.17763568394E-14  0.00000000000E+00  0.91188000000E+02  0.91188000000E+02 0.  0.
    9900012    2    3    3    0    0  0.20296883230E+02 -0.12913142182E+02 -0.36123532390E+02  0.47787282238E+02  0.20000051038E+02 0.  0.
         12    1    3    3    0    0 -0.20296883230E+02  0.12913142182E+02  0.36123532390E+02  0.43400717762E+02  0.00000000000E+00 0. -1.
         11    1    4    4    0    0  0.15353030719E+02 -0.47126374677E+01 -0.24201571572E+02  0.29045491405E+02  0.51100000000E-03 0.  1.
        -11    1    4    4    0    0  0.55524686199E+01 -0.47688451521E+00 -0.15290472432E+01  0.57788677394E+01  0.51100000000E-03 0. -1.
         12    1    4    4    0    0 -0.60861610892E+00 -0.77236201995E+01 -0.10392913575E+02  0.12962923094E+02  0.00000000000E+00 0. -1.
</event>
<event>
 8    1  0.5542925E-011  0.9118800E+02  0.7816164E-02  0.1184000E+00
        -11   -1    0    0    0    0  0.00000000000E+00  0.00000000000E+00  0.45593999997E+02  0.45594000000E+02  0.51100000000E-03 0. -1.
         11   -1    0    0    0    0 -0.00000000000E+00 -0.00000000000E+00 -0.45593999997E+02  0.45594000000E+02  0.51100000000E-03 0.  1.
         23    2    1    2    0    0  0.00000000000E+00  0.00000000000E+00  0.00000000000E+00  0.91188000000E+02  0.91188000000E+02 0.  0.
    9900012    2    3    3    0    0  0.61211427070E+01 -0.24917518489E+02  0.35003891022E+02  0.47787268412E+02  0.19999987998E+02 0.  0.
        -12    1    3    3    0    0 -0.61211427070E+01  0.24917518489E+02 -0.35003891022E+02  0.43400731588E+02  0.00000000000E+00 0.  1.
         11    1    4    4    0    0  0.47010082700E+01 -0.12551172781E+02  0.16729094497E+02  0.21435811622E+02  0.51100000000E-03 0. -1.
        -11    1    4    4    0    0 -0.17923525726E+01 -0.12105329965E+02  0.19400423712E+02  0.22937479847E+02  0.51100000000E-03 0.  1.
         12    1    4    4    0    0  0.32124870096E+01 -0.26101574326E+00 -0.11256271865E+01  0.34139769431E+01  0.00000000000E+00 0. -1.
</event>
<event>
 8    1  0.5542925E-011  0.9118800E+02  0.7816164E-02  0.1184000E+00
        -11   -1    0    0    0    0  0.00000000000E+00  0.00000000000E+00  0.45593999997E+02  0.45594000000E+02  0.51100000000E-03 0. -1.
         11   -1    0    0    0    0 -0.00000000000E+00 -0.00000000000E+00 -0.45593999997E+02  0.45594000000E+02  0.51100000000E-03 0.  1.
         23    2    1    2    0    0 -0.71054273576E-14  0.17763568394E-14  0.00000000000E+00  0.91188000000E+02  0.91188000000E+02 0.  0.
    9900012    2    3    3    0    0 -0.38346744368E+02 -0.61014910774E+01 -0.19388717326E+02  0.47787270092E+02  0.19999995659E+02 0.  0.
         12    1    3    3    0    0  0.38346744368E+02  0.61014910774E+01  0.19388717326E+02  0.43400729908E+02  0.00000000000E+00 0. -1.
         11    1    4    4    0    0 -0.23326506859E+01  0.16755888692E+01 -0.87026417360E+00  0.30010360335E+01  0.51100000000E-03 0. -1.
        -11    1    4    4    0    0 -0.29890287877E+02 -0.13010519825E+02 -0.13422865210E+02  0.35254450019E+02  0.51100000000E-03 0.  1.
        -12    1    4    4    0    0 -0.61238058051E+01  0.52334398779E+01 -0.50955879423E+01  0.95317840393E+01  0.00000000000E+00 0.  1.
</event>
<event>
 8    1  0.5542925E-011  0.9118800E+02  0.7816164E-02  0.1184000E+00
        -11   -1    0    0    0    0  0.00000000000E+00  0.00000000000E+00  0.45593999997E+02  0.45594000000E+02  0.51100000000E-03 0. -1.
         11   -1    0    0    0    0 -0.00000000000E+00 -0.00000000000E+00 -0.45593999997E+02  0.45594000000E+02  0.51100000000E-03 0.  1.
         23    2    1    2    0    0  0.00000000000E+00  0.00000000000E+00  0.00000000000E+00  0.91188000000E+02  0.91188000000E+02 0.  0.
    9900012    2    3    3    0    0  0.17349350966E+02 -0.24520360173E+02 -0.31326904716E+02  0.47787274188E+02  0.20000014332E+02 0.  0.
         12    1    3    3    0    0 -0.17349350966E+02  0.24520360173E+02  0.31326904716E+02  0.43400725812E+02  0.00000000000E+00 0. -1.
         11    1    4    4    0    0 -0.29393665967E+01 -0.30115781256E+01  0.89775695788E-01  0.42092206800E+01  0.51100000000E-03 0. -1.
        -11    1    4    4    0    0  0.39363058903E+01 -0.37785683023E+01 -0.96651294882E+01  0.11098955391E+02  0.51100000000E-03 0.  1.
        -12    1    4    4    0    0  0.16352411672E+02 -0.17730213745E+02 -0.21751550923E+02  0.32479098117E+02  0.00000000000E+00 0.  1.
</event>
<event>
 8    1  0.5542925E-011  0.9118800E+02  0.7816164E-02  0.1184000E+00
        -11   -1    0    0    0    0  0.00000000000E+00  0.00000000000E+00  0.45593999997E+02  0.45594000000E+02  0.51100000000E-03 0. -1.
         11   -1    0    0    0    0 -0.00000000000E+00 -0.00000000000E+00 -0.45593999997E+02  0.45594000000E+02  0.51100000000E-03 0.  1.
         23    2    1    2    0    0  0.00000000000E+00  0.17763568394E-14  0.00000000000E+00  0.91188000000E+02  0.91188000000E+02 0.  0.
    9900012    2    3    3    0    0 -0.20434255987E+02 -0.15524224805E+02 -0.35000883861E+02  0.47787282902E+02  0.20000054064E+02 0.  0.
         12    1    3    3    0    0  0.20434255987E+02  0.15524224805E+02  0.35000883861E+02  0.43400717098E+02  0.00000000000E+00 0. -1.
         11    1    4    4    0    0 -0.12631869716E+02 -0.46606639639E+01 -0.42304781578E+01  0.14113216034E+02  0.51100000000E-03 0. -1.
        -11    1    4    4    0    0 -0.28513901233E+01 -0.19016878492E+01 -0.83798538498E+01  0.90536618623E+01  0.51100000000E-03 0.  1.
         12    1    4    4    0    0 -0.49509961478E+01 -0.89618729921E+01 -0.22390551853E+02  0.24620405006E+02  0.00000000000E+00 0. -1.
</event>
<event>
 8    1  0.5542925E-011  0.9118800E+02  0.7816164E-02  0.1184000E+00
        -11   -1    0    0    0    0  0.00000000000E+00  0.00000000000E+00  0.45593999997E+02  0.45594000000E+02  0.51100000000E-03 0. -1.
         11   -1    0    0    0    0 -0.00000000000E+00 -0.00000000000E+00 -0.45593999997E+02  0.45594000000E+02  0.51100000000E-03 0.  1.
         23    2    1    2    0    0  0.00000000000E+00  0.00000000000E+00  0.00000000000E+00  0.91188000000E+02  0.91188000000E+02 0.  0.
    9900012    2    3    3    0    0 -0.13528802649E+02  0.30804353369E+02  0.27416896611E+02  0.47787275267E+02  0.20000019252E+02 0.  0.
        -12    1    3    3    0    0  0.13528802649E+02 -0.30804353369E+02 -0.27416896611E+02  0.43400724733E+02  0.00000000000E+00 0.  1.
         11    1    4    4    0    0 -0.63816938252E+01  0.61459647067E+00  0.28687913253E+01  0.70237958989E+01  0.51100000000E-03 0. -1.
        -11    1    4    4    0    0 -0.77858306253E+01  0.14940216901E+02  0.95540724922E+01  0.19367744862E+02  0.51100000000E-03 0.  1.
         12    1    4    4    0    0  0.63872180113E+00  0.15249539997E+02  0.14994032793E+02  0.21395734506E+02  0.00000000000E+00 0. -1.
</event>
<event>
 8    1  0.5542925E-011  0.9118800E+02  0.7816164E-02  0.1184000E+00
        -11   -1    0    0    0    0  0.00000000000E+00  0.00000000000E+00  0.45593999997E+02  0.45594000000E+02  0.51100000000E-03 0.  1.
         11   -1    0    0    0    0 -0.00000000000E+00 -0.00000000000E+00 -0.45593999997E+02  0.45594000000E+02  0.51100000000E-03 0. -1.
         23    2    1    2    0    0  0.00000000000E+00  0.35527136788E-14 -0.17763568394E-14  0.91188000000E+02  0.91188000000E+02 0.  0.
    9900012    2    3    3    0    0 -0.27746146614E+02  0.31194219395E+02 -0.11861511513E+02  0.47787269235E+02  0.19999991748E+02 0.  0.
        -12    1    3    3    0    0  0.27746146614E+02 -0.31194219395E+02  0.11861511513E+02  0.43400730765E+02  0.00000000000E+00 0.  1.
         11    1    4    4    0    0 -0.49676121955E+01  0.19240731093E+01 -0.54674650834E+00  0.53551993670E+01  0.51100000000E-03 0. -1.
        -11    1    4    4    0    0  0.44711565776E+00 -0.44772347866E+00  0.22596501397E+01  0.23465693554E+01  0.51100000000E-03 0.  1.
         12    1    4    4    0    0 -0.23225650076E+02  0.29717869765E+02 -0.13574415145E+02  0.40085500512E+02  0.00000000000E+00 0. -1.
</event>
<event>
 8    1  0.5542925E-011  0.9118800E+02  0.7816164E-02  0.1184000E+00
        -11   -1    0    0    0    0  0.00000000000E+00  0.00000000000E+00  0.45593999997E+02  0.45594000000E+02  0.51100000000E-03 0.  1.
         11   -1    0    0    0    0 -0.00000000000E+00 -0.00000000000E+00 -0.45593999997E+02  0.45594000000E+02  0.51100000000E-03 0. -1.
         23    2    1    2    0    0  0.88817841970E-15  0.00000000000E+00  0.00000000000E+00  0.91188000000E+02  0.91188000000E+02 0.  0.
    9900012    2    3    3    0    0 -0.78827682661E+01 -0.33110232563E+02 -0.26929491744E+02  0.47787273491E+02  0.20000011153E+02 0.  0.
         12    1    3    3    0    0  0.78827682661E+01  0.33110232563E+02  0.26929491744E+02  0.43400726509E+02  0.00000000000E+00 0. -1.
         11    1    4    4    0    0 -0.15010810425E+01 -0.10525386746E+02 -0.78741689830E+01  0.13230251241E+02  0.51100000000E-03 0. -1.
        -11    1    4    4    0    0 -0.10703839284E+02 -0.18937306562E+02 -0.10142658183E+02  0.24001401428E+02  0.51100000000E-03 0.  1.
         12    1    4    4    0    0  0.43221520601E+01 -0.36475392548E+01 -0.89126645787E+01  0.10555620822E+02  0.00000000000E+00 0. -1.
</event>
<event>
 8    1  0.5542925E-011  0.9118800E+02  0.7816164E-02  0.1184000E+00
        -11   -1    0    0    0    0  0.00000000000E+00  0.00000000000E+00  0.45593999997E+02  0.45594000000E+02  0.51100000000E-03 0. -1.
         11   -1    0    0    0    0 -0.00000000000E+00 -0.00000000000E+00 -0.45593999997E+02  0.45594000000E+02  0.51100000000E-03 0.  1.
         23    2    1    2    0    0  0.00000000000E+00 -0.88817841970E-15  0.00000000000E+00  0.91188000000E+02  0.91188000000E+02 0.  0.
    9900012    2    3    3    0    0  0.30084272175E+01  0.22282937035E+01 -0.43238921194E+02  0.47787306075E+02  0.20000159716E+02 0.  0.
         12    1    3    3    0    0 -0.30084272175E+01 -0.22282937035E+01  0.43238921194E+02  0.43400693925E+02  0.00000000000E+00 0. -1.
         11    1    4    4    0    0 -0.10439789986E+01 -0.27596699623E+01 -0.24663155281E+01  0.38455666676E+01  0.51100000000E-03 0.  1.
        -11    1    4    4    0    0  0.81262547557E-01 -0.44923543504E+01 -0.50019133860E+01  0.67236142805E+01  0.51100000000E-03 0. -1.
        -12    1    4    4    0    0  0.39711436686E+01  0.94803180161E+01 -0.35770692280E+02  0.37218125126E+02  0.00000000000E+00 0.  1.
</event>
<event>
 8    1  0.5542925E-011  0.9118800E+02  0.7816164E-02  0.1184000E+00
        -11   -1    0    0    0    0  0.00000000000E+00  0.00000000000E+00  0.45593999997E+02  0.45594000000E+02  0.51100000000E-03 0. -1.
         11   -1    0    0    0    0 -0.00000000000E+00 -0.00000000000E+00 -0.45593999997E+02  0.45594000000E+02  0.51100000000E-03 0.  1.
         23    2    1    2    0    0 -0.35527136788E-14 -0.35527136788E-14 -0.35527136788E-14  0.91188000000E+02  0.91188000000E+02 0.  0.
    9900012    2    3    3    0    0  0.23196195923E+02  0.19242754811E+02  0.31229397164E+02  0.47787281513E+02  0.20000047730E+02 0.  0.
        -12    1    3    3    0    0 -0.23196195923E+02 -0.19242754811E+02 -0.31229397164E+02  0.43400718487E+02  0.00000000000E+00 0.  1.
         11    1    4    4    0    0  0.38507540314E+01  0.42895289394E+01  0.11993375443E+02  0.13306743399E+02  0.51100000000E-03 0. -1.
        -11    1    4    4    0    0  0.17998858482E+02  0.14728581842E+02  0.21606673572E+02  0.31744895225E+02  0.51100000000E-03 0.  1.
        -12    1    4    4    0    0  0.13465834094E+01  0.22464402948E+00 -0.23706518508E+01  0.27356428890E+01  0.00000000000E+00 0.  1.
</event>
<event>
 8    1  0.5542925E-011  0.9118800E+02  0.7816164E-02  0.1184000E+00
        -11   -1    0    0    0    0  0.00000000000E+00  0.00000000000E+00  0.45593999997E+02  0.45594000000E+02  0.51100000000E-03 0. -1.
         11   -1    0    0    0    0 -0.00000000000E+00 -0.00000000000E+00 -0.45593999997E+02  0.45594000000E+02  0.51100000000E-03 0.  1.
         23    2    1    2    0    0  0.00000000000E+00 -0.83266726847E-15  0.71054273576E-14  0.91188000000E+02  0.91188000000E+02 0.  0.
    9900012    2    3    3    0    0 -0.26373714653E+02  0.44128745495E+00 -0.34465282309E+02  0.47787271390E+02  0.20000001576E+02 0.  0.
         12    1    3    3    0    0  0.26373714653E+02 -0.44128745495E+00  0.34465282309E+02  0.43400728610E+02  0.00000000000E+00 0. -1.
         11    1    4    4    0    0 -0.14762253317E+02  0.11627762510E+01 -0.99280931440E+01  0.17828157654E+02  0.51100000000E-03 0. -1.
        -11    1    4    4    0    0 -0.10173545550E+02  0.47449129163E+01 -0.18859283875E+02  0.21947387456E+02  0.51100000000E-03 0.  1.
         12    1    4    4    0    0 -0.14379157864E+01 -0.54664017123E+01 -0.56779052909E+01  0.80117262797E+01  0.00000000000E+00 0. -1.
</event>
<event>
 8    1  0.5542925E-011  0.9118800E+02  0.7816164E-02  0.1184000E+00
        -11   -1    0    0    0    0  0.00000000000E+00  0.00000000000E+00  0.45593999997E+02  0.45594000000E+02  0.51100000000E-03 0. -1.
         11   -1    0    0    0    0 -0.00000000000E+00 -0.00000000000E+00 -0.45593999997E+02  0.45594000000E+02  0.51100000000E-03 0.  1.
         23    2    1    2    0    0 -0.35527136788E-14  0.00000000000E+00  0.35527136788E-14  0.91188000000E+02  0.91188000000E+02 0.  0.
    9900012    2    3    3    0    0  0.16402899045E+02 -0.33834419321E+02 -0.21674874305E+02  0.47787271850E+02  0.20000003671E+02 0.  0.
         12    1    3    3    0    0 -0.16402899045E+02  0.33834419321E+02  0.21674874305E+02  0.43400728150E+02  0.00000000000E+00 0. -1.
         11    1    4    4    0    0  0.35849250264E+01 -0.89563434035E+01  0.17514304047E+01  0.98048601892E+01  0.51100000000E-03 0. -1.
        -11    1    4    4    0    0  0.79954754525E+01 -0.97966482587E+01 -0.47754292131E+01  0.13516903094E+02  0.51100000000E-03 0.  1.
        -12    1    4    4    0    0  0.48224985660E+01 -0.15081427658E+02 -0.18650875497E+02  0.24465508567E+02  0.00000000000E+00 0.  1.
</event>
<event>
 8    1  0.5542925E-011  0.9118800E+02  0.7816164E-02  0.1184000E+00
        -11   -1    0    0    0    0  0.00000000000E+00  0.00000000000E+00  0.45593999997E+02  0.45594000000E+02  0.51100000000E-03 0. -1.
         11   -1    0    0    0    0 -0.00000000000E+00 -0.00000000000E+00 -0.45593999997E+02  0.45594000000E+02  0.51100000000E-03 0.  1.
         23    2    1    2    0    0  0.66613381478E-15  0.35527136788E-14  0.71054273576E-14  0.91188000000E+02  0.91188000000E+02 0.  0.
    9900012    2    3    3    0    0 -0.11437295879E+01  0.19373958858E+02 -0.38819670019E+02  0.47787249089E+02  0.19999899897E+02 0.  0.
         12    1    3    3    0    0  0.11437295879E+01 -0.19373958858E+02  0.38819670019E+02  0.43400750911E+02  0.00000000000E+00 0. -1.
         11    1    4    4    0    0  0.30052880671E+01  0.65724613757E+01 -0.98376087211E+01  0.12206864893E+02  0.51100000000E-03 0. -1.
        -11    1    4    4    0    0  0.41891975403E+01  0.11358880362E+02 -0.18492427357E+02  0.22103018095E+02  0.51100000000E-03 0.  1.
        -12    1    4    4    0    0 -0.83382151952E+01  0.14426171202E+01 -0.10489633942E+02  0.13477366101E+02  0.00000000000E+00 0.  1.
</event>
<event>
 8    1  0.5542925E-011  0.9118800E+02  0.7816164E-02  0.1184000E+00
        -11   -1    0    0    0    0  0.00000000000E+00  0.00000000000E+00  0.45593999997E+02  0.45594000000E+02  0.51100000000E-03 0. -1.
         11   -1    0    0    0    0 -0.00000000000E+00 -0.00000000000E+00 -0.45593999997E+02  0.45594000000E+02  0.51100000000E-03 0.  1.
         23    2    1    2    0    0  0.66613381478E-15  0.00000000000E+00  0.00000000000E+00  0.91188000000E+02  0.91188000000E+02 0.  0.
    9900012    2    3    3    0    0 -0.14942176458E+01 -0.15073786858E+02 -0.40671508960E+02  0.47787269849E+02  0.19999994548E+02 0.  0.
         12    1    3    3    0    0  0.14942176458E+01  0.15073786858E+02  0.40671508960E+02  0.43400730151E+02  0.00000000000E+00 0. -1.
         11    1    4    4    0    0  0.28022285957E+01  0.32153912539E+00 -0.11820082189E+02  0.12151963451E+02  0.51100000000E-03 0.  1.
        -11    1    4    4    0    0  0.75254937857E+00 -0.11576379808E+02 -0.26418372600E+02  0.28853237446E+02  0.51100000000E-03 0. -1.
         12    1    4    4    0    0 -0.50489956200E+01 -0.38189461748E+01 -0.24330541709E+01  0.67820689509E+01  0.00000000000E+00 0. -1.
</event>
<event>
 8    1  0.5542925E-011  0.9118800E+02  0.7816164E-02  0.1184000E+00
        -11   -1    0    0    0    0  0.00000000000E+00  0.00000000000E+00  0.45593999997E+02  0.45594000000E+02  0.51100000000E-03 0. -1.
         11   -1    0    0    0    0 -0.00000000000E+00 -0.00000000000E+00 -0.45593999997E+02  0.45594000000E+02  0.51100000000E-03 0.  1.
         23    2    1    2    0    0  0.00000000000E+00 -0.44408920985E-15  0.71054273576E-14  0.91188000000E+02  0.91188000000E+02 0.  0.
    9900012    2    3    3    0    0  0.11662305314E+02  0.17686573874E+01 -0.41767049586E+02  0.47787263309E+02  0.19999964731E+02 0.  0.
         12    1    3    3    0    0 -0.11662305314E+02 -0.17686573874E+01  0.41767049586E+02  0.43400736691E+02  0.00000000000E+00 0. -1.
         11    1    4    4    0    0 -0.20031982758E+01 -0.46347813836E+01 -0.56250009444E+01  0.75587457750E+01  0.51100000000E-03 0. -1.
        -11    1    4    4    0    0  0.16151814877E+01  0.29528445297E+01 -0.17121516227E+02  0.17449195403E+02  0.51100000000E-03 0.  1.
         12    1    4    4    0    0  0.12050322102E+02  0.34505942413E+01 -0.19020532415E+02  0.22779322131E+02  0.00000000000E+00 0. -1.
</event>
<event>
 8    1  0.5542925E-011  0.9118800E+02  0.7816164E-02  0.1184000E+00
        -11   -1    0    0    0    0  0.00000000000E+00  0.00000000000E+00  0.45593999997E+02  0.45594000000E+02  0.51100000000E-03 0. -1.
         11   -1    0    0    0    0 -0.00000000000E+00 -0.00000000000E+00 -0.45593999997E+02  0.45594000000E+02  0.51100000000E-03 0.  1.
         23    2    1    2    0    0  0.00000000000E+00  0.00000000000E+00  0.00000000000E+00  0.91188000000E+02  0.91188000000E+02 0.  0.
    9900012    2    3    3    0    0  0.23748263954E+02 -0.21302255197E+02  0.29425465045E+02  0.47787261407E+02  0.19999956058E+02 0.  0.
        -12    1    3    3    0    0 -0.23748263954E+02  0.21302255197E+02 -0.29425465045E+02  0.43400738593E+02  0.00000000000E+00 0.  1.
         11    1    4    4    0    0  0.34341717214E+01 -0.14980372052E+02  0.10480368385E+02  0.18602236531E+02  0.51100000000E-03 0. -1.
        -11    1    4    4    0    0  0.65521261771E+01 -0.35923128190E+01  0.32943277049E+01  0.81662515341E+01  0.51100000000E-03 0.  1.
         12    1    4    4    0    0  0.13761966055E+02 -0.27295703263E+01  0.15650768956E+02  0.21018773342E+02  0.00000000000E+00 0. -1.
</event>
<event>
 8    1  0.5542925E-011  0.9118800E+02  0.7816164E-02  0.1184000E+00
        -11   -1    0    0    0    0  0.00000000000E+00  0.00000000000E+00  0.45593999997E+02  0.45594000000E+02  0.51100000000E-03 0. -1.
         11   -1    0    0    0    0 -0.00000000000E+00 -0.00000000000E+00 -0.45593999997E+02  0.45594000000E+02  0.51100000000E-03 0.  1.
         23    2    1    2    0    0  0.00000000000E+00 -0.44408920985E-15  0.00000000000E+00  0.91188000000E+02  0.91188000000E+02 0.  0.
    9900012    2    3    3    0    0  0.14137302633E+02  0.34190234779E+01  0.40890959941E+02  0.47787266686E+02  0.19999980130E+02 0.  0.
        -12    1    3    3    0    0 -0.14137302633E+02 -0.34190234779E+01 -0.40890959941E+02  0.43400733314E+02  0.00000000000E+00 0.  1.
         11    1    4    4    0    0  0.12506893544E+02  0.30280660569E+01  0.25640885729E+02  0.28688788601E+02  0.51100000000E-03 0. -1.
        -11    1    4    4    0    0  0.31277300706E+01  0.53489077175E+01  0.96738766214E+01  0.11488141639E+02  0.51100000000E-03 0.  1.
        -12    1    4    4    0    0 -0.14973209819E+01 -0.49579502965E+01  0.55761975908E+01  0.76103364470E+01  0.00000000000E+00 0.  1.
</event>
<event>
 8    1  0.5542925E-011  0.9118800E+02  0.7816164E-02  0.1184000E+00
        -11   -1    0    0    0    0  0.00000000000E+00  0.00000000000E+00  0.45593999997E+02  0.45594000000E+02  0.51100000000E-03 0. -1.
         11   -1    0    0    0    0 -0.00000000000E+00 -0.00000000000E+00 -0.45593999997E+02  0.45594000000E+02  0.51100000000E-03 0.  1.
         23    2    1    2    0    0  0.17763568394E-14  0.17763568394E-14  0.00000000000E+00  0.91188000000E+02  0.91188000000E+02 0.  0.
    9900012    2    3    3    0    0  0.80610648508E+01  0.45663614296E+01 -0.42400364673E+02  0.47787270194E+02  0.19999996125E+02 0.  0.
         12    1    3    3    0    0 -0.80610648508E+01 -0.45663614296E+01  0.42400364673E+02  0.43400729806E+02  0.00000000000E+00 0. -1.
         11    1    4    4    0    0 -0.26596672520E+00  0.10121758873E+01  0.66185679948E+00  0.12382620926E+01  0.51100000000E-03 0. -1.
        -11    1    4    4    0    0  0.70309926035E+01  0.92075271216E+01 -0.24484980233E+02  0.27087407959E+02  0.51100000000E-03 0.  1.
         12    1    4    4    0    0  0.12960389725E+01 -0.56533415793E+01 -0.18577241240E+02  0.19461600143E+02  0.00000000000E+00 0. -1.
</event>
<event>
 8    1  0.5542925E-011  0.9118800E+02  0.7816164E-02  0.1184000E+00
        -11   -1    0    0    0    0  0.00000000000E+00  0.00000000000E+00  0.45593999997E+02  0.45594000000E+02  0.51100000000E-03 0. -1.
         11   -1    0    0    0    0 -0.00000000000E+00 -0.00000000000E+00 -0.45593999997E+02  0.45594000000E+02  0.51100000000E-03 0.  1.
         23    2    1    2    0    0  0.88817841970E-15  0.17763568394E-14  0.00000000000E+00  0.91188000000E+02  0.91188000000E+02 0.  0.
    9900012    2    3    3    0    0 -0.59293058784E+01 -0.12819543516E+02  0.41038101700E+02  0.47787272411E+02  0.20000006229E+02 0.  0.
        -12    1    3    3    0    0  0.59293058784E+01  0.12819543516E+02 -0.41038101700E+02  0.43400727589E+02  0.00000000000E+00 0.  1.
         11    1    4    4    0    0  0.60294591333E+01 -0.66815743667E+01  0.23606763733E+02  0.25264146684E+02  0.51100000000E-03 0. -1.
        -11    1    4    4    0    0 -0.29587135240E+00 -0.10907860633E+01  0.25826422942E+00  0.11593337597E+01  0.51100000000E-03 0.  1.
        -12    1    4    4    0    0 -0.11662893659E+02 -0.50471830855E+01  0.17173073738E+02  0.21363791967E+02  0.00000000000E+00 0.  1.
</event>
<event>
 8    1  0.5542925E-011  0.9118800E+02  0.7816164E-02  0.1184000E+00
        -11   -1    0    0    0    0  0.00000000000E+00  0.00000000000E+00  0.45593999997E+02  0.45594000000E+02  0.51100000000E-03 0.  1.
         11   -1    0    0    0    0 -0.00000000000E+00 -0.00000000000E+00 -0.45593999997E+02  0.45594000000E+02  0.51100000000E-03 0. -1.
         23    2    1    2    0    0 -0.35527136788E-14  0.00000000000E+00 -0.11102230246E-15  0.91188000000E+02  0.91188000000E+02 0.  0.
    9900012    2    3    3    0    0 -0.16403195652E+02 -0.40173025315E+02 -0.82877393931E+00  0.47787266633E+02  0.19999979884E+02 0.  0.
        -12    1    3    3    0    0  0.16403195652E+02  0.40173025315E+02  0.82877393931E+00  0.43400733367E+02  0.00000000000E+00 0.  1.
         11    1    4    4    0    0 -0.66604299289E+01 -0.28494333260E+02 -0.25322131577E+01  0.29371762945E+02  0.51100000000E-03 0. -1.
        -11    1    4    4    0    0  0.14533006919E+01 -0.32455947656E+01  0.25458367601E+01  0.43734715449E+01  0.51100000000E-03 0.  1.
         12    1    4    4    0    0 -0.11196066415E+02 -0.84330972896E+01 -0.84239754166E+00  0.14042032142E+02  0.00000000000E+00 0. -1.
</event>
<event>
 8    1  0.5542925E-011  0.9118800E+02  0.7816164E-02  0.1184000E+00
        -11   -1    0    0    0    0  0.00000000000E+00  0.00000000000E+00  0.45593999997E+02  0.45594000000E+02  0.51100000000E-03 0. -1.
         11   -1    0    0    0    0 -0.00000000000E+00 -0.00000000000E+00 -0.45593999997E+02  0.45594000000E+02  0.51100000000E-03 0.  1.
         23    2    1    2    0    0  0.00000000000E+00  0.00000000000E+00  0.00000000000E+00  0.91188000000E+02  0.91188000000E+02 0.  0.
    9900012    2    3    3    0    0  0.34303517876E+02  0.11886279618E+02 -0.23782499643E+02  0.47787282597E+02  0.20000052671E+02 0.  0.
         12    1    3    3    0    0 -0.34303517876E+02 -0.11886279618E+02  0.23782499643E+02  0.43400717403E+02  0.00000000000E+00 0. -1.
         11    1    4    4    0    0  0.11434636959E+02  0.58740191292E+01 -0.97091711470E+01  0.16109718425E+02  0.51100000000E-03 0.  1.
        -11    1    4    4    0    0  0.17431503500E+02  0.88049867873E+01 -0.40610958832E+01  0.19946869594E+02  0.51100000000E-03 0. -1.
         12    1    4    4    0    0  0.54373774178E+01 -0.27927262983E+01 -0.10012232613E+02  0.11730694577E+02  0.00000000000E+00 0. -1.
</event>
<event>
 8    1  0.6577855E-011  0.9118800E+02  0.7816164E-02  0.1184000E+00
        -11   -1    0    0    0    0  0.00000000000E+00  0.00000000000E+00  0.45593999997E+02  0.45594000000E+02  0.51100000000E-03 0. -1.
         11   -1    0    0    0    0 -0.00000000000E+00 -0.00000000000E+00 -0.45593999997E+02  0.45594000000E+02  0.51100000000E-03 0.  1.
         23    2    1    2    0    0  0.00000000000E+00  0.00000000000E+00  0.00000000000E+00  0.91188000000E+02  0.91188000000E+02 0.  0.
    9900012    2    3    3    0    0  0.37442916867E+02  0.15636066244E+02  0.15400144773E+02  0.47787273622E+02  0.20000011754E+02 0.  0.
        -12    1    3    3    0    0 -0.37442916867E+02 -0.15636066244E+02 -0.15400144773E+02  0.43400726378E+02  0.00000000000E+00 0.  1.
         11    1    4    4    0    0  0.12818502724E+01  0.51753824266E+01  0.55861160522E+00  0.53609486631E+01  0.51100000000E-03 0. -1.
        -11    1    4    4    0    0 -0.87010505503E+00 -0.64272264167E+00  0.50340547359E+00  0.11931439699E+01  0.51100000000E-03 0.  1.
         12    1    4    4    0    0  0.37031171650E+02  0.11103406459E+02  0.14338127694E+02  0.41233180989E+02  0.00000000000E+00 0. -1.
</event>
<event>
 8    1  0.5542925E-011  0.9118800E+02  0.7816164E-02  0.1184000E+00
        -11   -1    0    0    0    0  0.00000000000E+00  0.00000000000E+00  0.45593999997E+02  0.45594000000E+02  0.51100000000E-03 0. -1.
         11   -1    0    0    0    0 -0.00000000000E+00 -0.00000000000E+00 -0.45593999997E+02  0.45594000000E+02  0.51100000000E-03 0.  1.
         23    2    1    2    0    0 -0.44408920985E-15  0.00000000000E+00  0.00000000000E+00  0.91188000000E+02  0.91188000000E+02 0.  0.
    9900012    2    3    3    0    0  0.30295701412E+01 -0.17785852647E+02  0.39472884736E+02  0.47787268681E+02  0.19999989226E+02 0.  0.
        -12    1    3    3    0    0 -0.30295701412E+01  0.17785852647E+02 -0.39472884736E+02  0.43400731319E+02  0.00000000000E+00 0.  1.
         11    1    4    4    0    0  0.59252591990E+01 -0.10566374147E+02  0.11151633307E+02  0.16465597009E+02  0.51100000000E-03 0. -1.
        -11    1    4    4    0    0 -0.36498676842E+00 -0.79113679274E+01  0.97278392696E+01  0.12544074894E+02  0.51100000000E-03 0.  1.
        -12    1    4    4    0    0 -0.25307022894E+01  0.69188942784E+00  0.18593412159E+02  0.18777596778E+02  0.00000000000E+00 0.  1.
</event>
<event>
 8    1  0.5542925E-011  0.9118800E+02  0.7816164E-02  0.1184000E+00
        -11   -1    0    0    0    0  0.00000000000E+00  0.00000000000E+00  0.45593999997E+02  0.45594000000E+02  0.51100000000E-03 0. -1.
         11   -1    0    0    0    0 -0.00000000000E+00 -0.00000000000E+00 -0.45593999997E+02  0.45594000000E+02  0.51100000000E-03 0.  1.
         23    2    1    2    0    0 -0.35527136788E-14  0.00000000000E+00  0.00000000000E+00  0.91188000000E+02  0.91188000000E+02 0.  0.
    9900012    2    3    3    0    0 -0.16886789773E+02  0.36517175125E+02 -0.16277455516E+02  0.47787270675E+02  0.19999998314E+02 0.  0.
         12    1    3    3    0    0  0.16886789773E+02 -0.36517175125E+02  0.16277455516E+02  0.43400729325E+02  0.00000000000E+00 0. -1.
         11    1    4    4    0    0 -0.89285572378E+00 -0.16957737805E+01 -0.76193330645E+00  0.20623730707E+01  0.51100000000E-03 0. -1.
        -11    1    4    4    0    0 -0.97010674572E+01  0.11815139603E+02 -0.92681826100E+01  0.17877568146E+02  0.51100000000E-03 0.  1.
         12    1    4    4    0    0 -0.62928665921E+01  0.26397809302E+02 -0.62473395992E+01  0.27847329458E+02  0.00000000000E+00 0. -1.
</event>
<event>
 8    1  0.5542925E-011  0.9118800E+02  0.7816164E-02  0.1184000E+00
        -11   -1    0    0    0    0  0.00000000000E+00  0.00000000000E+00  0.45593999997E+02  0.45594000000E+02  0.51100000000E-03 0. -1.
         11   -1    0    0    0    0 -0.00000000000E+00 -0.00000000000E+00 -0.45593999997E+02  0.45594000000E+02  0.51100000000E-03 0.  1.
         23    2    1    2    0    0  0.00000000000E+00  0.00000000000E+00  0.00000000000E+00  0.91188000000E+02  0.91188000000E+02 0.  0.
    9900012    2    3    3    0    0 -0.16692070400E+02 -0.15200729304E+02  0.37066641517E+02  0.47787270755E+02  0.19999998683E+02 0.  0.
        -12    1    3    3    0    0  0.16692070400E+02  0.15200729304E+02 -0.37066641517E+02  0.43400729245E+02  0.00000000000E+00 0.  1.
         11    1    4    4    0    0 -0.61433166245E+01 -0.51784060307E+01  0.84989884213E+01  0.11695684358E+02  0.51100000000E-03 0. -1.
        -11    1    4    4    0    0 -0.69056622249E+01 -0.93435232800E+00  0.24530195252E+02  0.25500816936E+02  0.51100000000E-03 0.  1.
        -12    1    4    4    0    0 -0.36430915506E+01 -0.90879709449E+01  0.40374578441E+01  0.10590769461E+02  0.00000000000E+00 0.  1.
</event>
<event>
 8    1  0.5542925E-011  0.9118800E+02  0.7816164E-02  0.1184000E+00
        -11   -1    0    0    0    0  0.00000000000E+00  0.00000000000E+00  0.45593999997E+02  0.45594000000E+02  0.51100000000E-03 0. -1.
         11   -1    0    0    0    0 -0.00000000000E+00 -0.00000000000E+00 -0.45593999997E+02  0.45594000000E+02  0.51100000000E-03 0.  1.
         23    2    1    2    0    0  0.00000000000E+00  0.71054273576E-14  0.00000000000E+00  0.91188000000E+02  0.91188000000E+02 0.  0.
    9900012    2    3    3    0    0 -0.30188123229E+02  0.29018540334E+02  0.11411628488E+02  0.47787265767E+02  0.19999975938E+02 0.  0.
        -12    1    3    3    0    0  0.30188123229E+02 -0.29018540334E+02 -0.11411628488E+02  0.43400734233E+02  0.00000000000E+00 0.  1.
         11    1    4    4    0    0 -0.31782944194E+01  0.11780334472E+02  0.17795962467E+01  0.12330644701E+02  0.51100000000E-03 0. -1.
        -11    1    4    4    0    0 -0.15843667353E+02  0.12141725987E+02  0.17519383389E+00  0.19961813502E+02  0.51100000000E-03 0.  1.
        -12    1    4    4    0    0 -0.11166161456E+02  0.50964798754E+01  0.94568384074E+01  0.15494807564E+02  0.00000000000E+00 0.  1.
</event>
<event>
 8    1  0.5542925E-011  0.9118800E+02  0.7816164E-02  0.1184000E+00
        -11   -1    0    0    0    0  0.00000000000E+00  0.00000000000E+00  0.45593999997E+02  0.45594000000E+02  0.51100000000E-03 0. -1.
         11   -1    0    0    0    0 -0.00000000000E+00 -0.00000000000E+00 -0.45593999997E+02  0.45594000000E+02  0.51100000000E-03 0.  1.
         23    2    1    2    0    0  0.00000000000E+00  0.00000000000E+00  0.00000000000E+00  0.91188000000E+02  0.91188000000E+02 0.  0.
    9900012    2    3    3    0    0 -0.21253533281E+02  0.27856764475E+02  0.25610761963E+02  0.47787272676E+02  0.20000007440E+02 0.  0.
        -12    1    3    3    0    0  0.21253533281E+02 -0.27856764475E+02 -0.25610761963E+02  0.43400727324E+02  0.00000000000E+00 0.  1.
         11    1    4    4    0    0 -0.29749120369E+00 -0.11934359783E+01  0.70784625147E+00  0.14190972579E+01  0.51100000000E-03 0. -1.
        -11    1    4    4    0    0 -0.28548016284E+00 -0.19554409761E+00  0.57399758333E+01  0.57503964424E+01  0.51100000000E-03 0.  1.
         12    1    4    4    0    0 -0.20670561914E+02  0.29245744551E+02  0.19162939878E+02  0.40617778976E+02  0.00000000000E+00 0. -1.
</event>
<event>
 8    1  0.5542925E-011  0.9118800E+02  0.7816164E-02  0.1184000E+00
        -11   -1    0    0    0    0  0.00000000000E+00  0.00000000000E+00  0.45593999997E+02  0.45594000000E+02  0.51100000000E-03 0. -1.
         11   -1    0    0    0    0 -0.00000000000E+00 -0.00000000000E+00 -0.45593999997E+02  0.45594000000E+02  0.51100000000E-03 0.  1.
         23    2    1    2    0    0  0.00000000000E+00  0.17763568394E-14  0.00000000000E+00  0.91188000000E+02  0.91188000000E+02 0.  0.
    9900012    2    3    3    0    0  0.50126208470E+01 -0.12634006031E+02  0.41217459654E+02  0.47787268941E+02  0.19999990409E+02 0.  0.
        -12    1    3    3    0    0 -0.50126208470E+01  0.12634006031E+02 -0.41217459654E+02  0.43400731059E+02  0.00000000000E+00 0.  1.
         11    1    4    4    0    0 -0.23832819995E+01  0.42771496594E+01  0.10646647931E+02  0.11718581600E+02  0.51100000000E-03 0. -1.
        -11    1    4    4    0    0  0.14632071835E+01 -0.27102545902E+01  0.21757785752E+01  0.37710035633E+01  0.51100000000E-03 0.  1.
        -12    1    4    4    0    0  0.59326956629E+01 -0.14200901101E+02  0.28395033148E+02  0.32297683777E+02  0.00000000000E+00 0.  1.
</event>
<event>
 8    1  0.5542925E-011  0.9118800E+02  0.7816164E-02  0.1184000E+00
        -11   -1    0    0    0    0  0.00000000000E+00  0.00000000000E+00  0.45593999997E+02  0.45594000000E+02  0.51100000000E-03 0. -1.
         11   -1    0    0    0    0 -0.00000000000E+00 -0.00000000000E+00 -0.45593999997E+02  0.45594000000E+02  0.51100000000E-03 0.  1.
         23    2    1    2    0    0  0.00000000000E+00  0.17763568394E-14  0.00000000000E+00  0.91188000000E+02  0.91188000000E+02 0.  0.
    9900012    2    3    3    0    0  0.15899314760E+01 -0.15081461926E+02  0.40665035254E+02  0.47787268806E+02  0.19999989795E+02 0.  0.
        -12    1    3    3    0    0 -0.15899314760E+01  0.15081461926E+02 -0.40665035254E+02  0.43400731194E+02  0.00000000000E+00 0.  1.
         11    1    4    4    0    0 -0.29183353568E+01 -0.69348818971E+01  0.10524177997E+02  0.12937062687E+02  0.51100000000E-03 0. -1.
        -11    1    4    4    0    0  0.58209968483E+01 -0.99703872722E+01  0.30465520504E+02  0.32579757005E+02  0.51100000000E-03 0.  1.
        -12    1    4    4    0    0 -0.13127300154E+01  0.18238072437E+01 -0.32466324740E+00  0.22704491141E+01  0.00000000000E+00 0.  1.
</event>
<event>
 8    1  0.5542925E-011  0.9118800E+02  0.7816164E-02  0.1184000E+00
        -11   -1    0    0    0    0  0.00000000000E+00  0.00000000000E+00  0.45593999997E+02  0.45594000000E+02  0.51100000000E-03 0. -1.
         11   -1    0    0    0    0 -0.00000000000E+00 -0.00000000000E+00 -0.45593999997E+02  0.45594000000E+02  0.51100000000E-03 0.  1.
         23    2    1    2    0    0 -0.22204460493E-15  0.00000000000E+00  0.00000000000E+00  0.91188000000E+02  0.91188000000E+02 0.  0.
    9900012    2    3    3    0    0  0.58885404339E+00 -0.22129332115E+02  0.37330537782E+02  0.47787272586E+02  0.20000007029E+02 0.  0.
        -12    1    3    3    0    0 -0.58885404339E+00  0.22129332115E+02 -0.37330537782E+02  0.43400727414E+02  0.00000000000E+00 0.  1.
         11    1    4    4    0    0  0.28025193144E+01  0.11055697819E+00  0.12686384479E+01  0.30782756740E+01  0.51100000000E-03 0. -1.
        -11    1    4    4    0    0  0.63912924645E+00 -0.42025250196E+01 -0.40199611787E-01  0.42510374033E+01  0.51100000000E-03 0.  1.
        -12    1    4    4    0    0 -0.28527945174E+01 -0.18037364074E+02  0.36102098946E+02  0.40457959509E+02  0.00000000000E+00 0.  1.
</event>
<event>
 8    1  0.5542925E-011  0.9118800E+02  0.7816164E-02  0.1184000E+00
        -11   -1    0    0    0    0  0.00000000000E+00  0.00000000000E+00  0.45593999997E+02  0.45594000000E+02  0.51100000000E-03 0. -1.
         11   -1    0    0    0    0 -0.00000000000E+00 -0.00000000000E+00 -0.45593999997E+02  0.45594000000E+02  0.51100000000E-03 0.  1.
         23    2    1    2    0    0  0.00000000000E+00  0.00000000000E+00  0.00000000000E+00  0.91188000000E+02  0.91188000000E+02 0.  0.
    9900012    2    3    3    0    0 -0.14426798183E+02  0.28498940695E+02 -0.29381984891E+02  0.47787272326E+02  0.20000005842E+02 0.  0.
         12    1    3    3    0    0  0.14426798183E+02 -0.28498940695E+02  0.29381984891E+02  0.43400727674E+02  0.00000000000E+00 0. -1.
         11    1    4    4    0    0  0.45771379761E+00  0.14559728827E+01  0.77801352809E+00  0.17130861819E+01  0.51100000000E-03 0. -1.
        -11    1    4    4    0    0 -0.82257224745E+00  0.11813066866E+02 -0.19375709275E+02  0.22707780254E+02  0.51100000000E-03 0.  1.
         12    1    4    4    0    0 -0.14061939733E+02  0.15229900945E+02 -0.10784289143E+02  0.23366405890E+02  0.00000000000E+00 0. -1.
</event>
<event>
 8    1  0.5542925E-011  0.9118800E+02  0.7816164E-02  0.1184000E+00
        -11   -1    0    0    0    0  0.00000000000E+00  0.00000000000E+00  0.45593999997E+02  0.45594000000E+02  0.51100000000E-03 0. -1.
         11   -1    0    0    0    0 -0.00000000000E+00 -0.00000000000E+00 -0.45593999997E+02  0.45594000000E+02  0.51100000000E-03 0.  1.
         23    2    1    2    0    0  0.00000000000E+00  0.35527136788E-14  0.00000000000E+00  0.91188000000E+02  0.91188000000E+02 0.  0.
    9900012    2    3    3    0    0 -0.24904534367E+02 -0.21717908249E+02  0.28137521802E+02  0.47787268394E+02  0.19999987917E+02 0.  0.
        -12    1    3    3    0    0  0.24904534367E+02  0.21717908249E+02 -0.28137521802E+02  0.43400731606E+02  0.00000000000E+00 0.  1.
         11    1    4    4    0    0 -0.12295124568E+02 -0.79902138038E+01  0.10342127882E+02  0.17943612071E+02  0.51100000000E-03 0. -1.
        -11    1    4    4    0    0 -0.75530967014E+01 -0.95043809122E+00  0.13408870706E+02  0.15419157441E+02  0.51100000000E-03 0.  1.
         12    1    4    4    0    0 -0.50563130981E+01 -0.12777256354E+02  0.43865232147E+01  0.14424498882E+02  0.00000000000E+00 0. -1.
</event>
<event>
 8    1  0.5542925E-011  0.9118800E+02  0.7816164E-02  0.1184000E+00
        -11   -1    0    0    0    0  0.00000000000E+00  0.00000000000E+00  0.45593999997E+02  0.45594000000E+02  0.51100000000E-03 0. -1.
         11   -1    0    0    0    0 -0.00000000000E+00 -0.00000000000E+00 -0.45593999997E+02  0.45594000000E+02  0.51100000000E-03 0.  1.
         23    2    1    2    0    0  0.00000000000E+00  0.35527136788E-14  0.00000000000E+00  0.91188000000E+02  0.91188000000E+02 0.  0.
    9900012    2    3    3    0    0  0.48497169767E+01  0.23008249886E+02  0.36479082984E+02  0.47787276355E+02  0.20000024215E+02 0.  0.
        -12    1    3    3    0    0 -0.48497169767E+01 -0.23008249886E+02 -0.36479082984E+02  0.43400723645E+02  0.00000000000E+00 0.  1.
         11    1    4    4    0    0 -0.11610610303E+00  0.22091488356E+02  0.31832952311E+02  0.38747699176E+02  0.51100000000E-03 0. -1.
        -11    1    4    4    0    0  0.98991439431E+00  0.37550015272E+00  0.49056623839E+01  0.50186108196E+01  0.51100000000E-03 0.  1.
        -12    1    4    4    0    0  0.39759086854E+01  0.54126137706E+00 -0.25953171091E+00  0.40209663592E+01  0.00000000000E+00 0.  1.
</event>
<event>
 8    1  0.5542925E-011  0.9118800E+02  0.7816164E-02  0.1184000E+00
        -11   -1    0    0    0    0  0.00000000000E+00  0.00000000000E+00  0.45593999997E+02  0.45594000000E+02  0.51100000000E-03 0. -1.
         11   -1    0    0    0    0 -0.00000000000E+00 -0.00000000000E+00 -0.45593999997E+02  0.45594000000E+02  0.51100000000E-03 0.  1.
         23    2    1    2    0    0  0.71054273576E-14  0.00000000000E+00  0.00000000000E+00  0.91188000000E+02  0.91188000000E+02 0.  0.
    9900012    2    3    3    0    0 -0.39381249990E+02  0.60474463632E+01  0.17209556246E+02  0.47787270922E+02  0.19999999442E+02 0.  0.
        -12    1    3    3    0    0  0.39381249990E+02 -0.60474463632E+01 -0.17209556246E+02  0.43400729078E+02  0.00000000000E+00 0.  1.
         11    1    4    4    0    0 -0.14335287196E+02  0.37970367747E+01  0.15805010958E+02  0.21672939784E+02  0.51100000000E-03 0. -1.
        -11    1    4    4    0    0 -0.75744474680E+00 -0.60983885246E+00 -0.11716976530E+01  0.15226626749E+01  0.51100000000E-03 0.  1.
         12    1    4    4    0    0 -0.24288518048E+02  0.28602484410E+01  0.25762429415E+01  0.24591668463E+02  0.00000000000E+00 0. -1.
</event>
<event>
 8    1  0.5542925E-011  0.9118800E+02  0.7816164E-02  0.1184000E+00
        -11   -1    0    0    0    0  0.00000000000E+00  0.00000000000E+00  0.45593999997E+02  0.45594000000E+02  0.51100000000E-03 0. -1.
         11   -1    0    0    0    0 -0.00000000000E+00 -0.00000000000E+00 -0.45593999997E+02  0.45594000000E+02  0.51100000000E-03 0.  1.
         23    2    1    2    0    0 -0.35527136788E-14 -0.35527136788E-14  0.00000000000E+00  0.91188000000E+02  0.91188000000E+02 0.  0.
    9900012    2    3    3    0    0 -0.18121488076E+02 -0.20264183169E+02 -0.33831915406E+02  0.47787263259E+02  0.19999964504E+02 0.  0.
         12    1    3    3    0    0  0.18121488076E+02  0.20264183169E+02  0.33831915406E+02  0.43400736741E+02  0.00000000000E+00 0. -1.
         11    1    4    4    0    0  0.23426968757E+01 -0.24414362457E+01  0.52118570069E+00  0.34235178382E+01  0.51100000000E-03 0. -1.
        -11    1    4    4    0    0 -0.47960932638E+01 -0.11478553544E+01 -0.39838944080E+01  0.63396764448E+01  0.51100000000E-03 0.  1.
         12    1    4    4    0    0 -0.15668091688E+02 -0.16674891569E+02 -0.30369206699E+02  0.38024068976E+02  0.00000000000E+00 0. -1.
</event>
<event>
 8    1  0.5542925E-011  0.9118800E+02  0.7816164E-02  0.1184000E+00
        -11   -1    0    0    0    0  0.00000000000E+00  0.00000000000E+00  0.45593999997E+02  0.45594000000E+02  0.51100000000E-03 0. -1.
         11   -1    0    0    0    0 -0.00000000000E+00 -0.00000000000E+00 -0.45593999997E+02  0.45594000000E+02  0.51100000000E-03 0.  1.
         23    2    1    2    0    0  0.00000000000E+00  0.00000000000E+00  0.00000000000E+00  0.91188000000E+02  0.91188000000E+02 0.  0.
    9900012    2    3    3    0    0 -0.21290614809E+02  0.55491727226E+01  0.37410420551E+02  0.47787272326E+02  0.20000005841E+02 0.  0.
        -12    1    3    3    0    0  0.21290614809E+02 -0.55491727226E+01 -0.37410420551E+02  0.43400727674E+02  0.00000000000E+00 0.  1.
         11    1    4    4    0    0 -0.61753496942E+01  0.17899264294E+01  0.74437785762E+01  0.98360876481E+01  0.51100000000E-03 0. -1.
        -11    1    4    4    0    0 -0.71303551030E+01 -0.23553228911E+01  0.13643271785E+01  0.76322276386E+01  0.51100000000E-03 0.  1.
         12    1    4    4    0    0 -0.79849100113E+01  0.61145691843E+01  0.28602314797E+02  0.30318957039E+02  0.00000000000E+00 0. -1.
</event>
<event>
 8    1  0.5542925E-011  0.9118800E+02  0.7816164E-02  0.1184000E+00
        -11   -1    0    0    0    0  0.00000000000E+00  0.00000000000E+00  0.45593999997E+02  0.45594000000E+02  0.51100000000E-03 0.  1.
         11   -1    0    0    0    0 -0.00000000000E+00 -0.00000000000E+00 -0.45593999997E+02  0.45594000000E+02  0.51100000000E-03 0. -1.
         23    2    1    2    0    0  0.00000000000E+00  0.00000000000E+00  0.17763568394E-14  0.91188000000E+02  0.91188000000E+02 0.  0.
    9900012    2    3    3    0    0 -0.42483035214E+02 -0.73378747243E+01 -0.49970566458E+01  0.47787271186E+02  0.20000000645E+02 0.  0.
         12    1    3    3    0    0  0.42483035214E+02  0.73378747243E+01  0.49970566458E+01  0.43400728814E+02  0.00000000000E+00 0. -1.
         11    1    4    4    0    0 -0.49390070320E+01 -0.61393694638E+01  0.30950505325E+01  0.84655174641E+01  0.51100000000E-03 0. -1.
        -11    1    4    4    0    0 -0.13267885400E+02 -0.87613980765E-01  0.11594641112E+01  0.13318739298E+02  0.51100000000E-03 0.  1.
        -12    1    4    4    0    0 -0.24276142782E+02 -0.11108912798E+01 -0.92515712895E+01  0.26003014424E+02  0.00000000000E+00 0.  1.
</event>
<event>
 8    1  0.5542925E-011  0.9118800E+02  0.7816164E-02  0.1184000E+00
        -11   -1    0    0    0    0  0.00000000000E+00  0.00000000000E+00  0.45593999997E+02  0.45594000000E+02  0.51100000000E-03 0. -1.
         11   -1    0    0    0    0 -0.00000000000E+00 -0.00000000000E+00 -0.45593999997E+02  0.45594000000E+02  0.51100000000E-03 0.  1.
         23    2    1    2    0    0 -0.88817841970E-15 -0.35527136788E-14  0.14210854715E-13  0.91188000000E+02  0.91188000000E+02 0.  0.
    9900012    2    3    3    0    0  0.45769400037E+01  0.20498216851E+02 -0.37980226915E+02  0.47787275233E+02  0.20000019095E+02 0.  0.
         12    1    3    3    0    0 -0.45769400037E+01 -0.20498216851E+02  0.37980226915E+02  0.43400724767E+02  0.00000000000E+00 0. -1.
         11    1    4    4    0    0  0.68315503555E+01  0.44920922470E+01 -0.14173318946E+02  0.16362516408E+02  0.51100000000E-03 0. -1.
        -11    1    4    4    0    0 -0.27497674751E+00  0.14964394136E+02 -0.24808623693E+02  0.28973721092E+02  0.51100000000E-03 0.  1.
         12    1    4    4    0    0 -0.19796336043E+01  0.10417304678E+01  0.10017157245E+01  0.24510377327E+01  0.00000000000E+00 0. -1.
</event>
<event>
 8    1  0.5542925E-011  0.9118800E+02  0.7816164E-02  0.1184000E+00
        -11   -1    0    0    0    0  0.00000000000E+00  0.00000000000E+00  0.45593999997E+02  0.45594000000E+02  0.51100000000E-03 0. -1.
         11   -1    0    0    0    0 -0.00000000000E+00 -0.00000000000E+00 -0.45593999997E+02  0.45594000000E+02  0.51100000000E-03 0.  1.
         23    2    1    2    0    0  0.88817841970E-15  0.00000000000E+00  0.00000000000E+00  0.91188000000E+02  0.91188000000E+02 0.  0.
    9900012    2    3    3    0    0 -0.43136926615E+01  0.46562892651E+01  0.42934068666E+02  0.47787271592E+02  0.20000002496E+02 0.  0.
        -12    1    3    3    0    0  0.43136926615E+01 -0.46562892651E+01 -0.42934068666E+02  0.43400728408E+02  0.00000000000E+00 0.  1.
         11    1    4    4    0    0 -0.73454972515E+01  0.64932507843E+01  0.38008507600E+02  0.39252583175E+02  0.51100000000E-03 0. -1.
        -11    1    4    4    0    0 -0.15683471904E+01  0.68251163624E+00  0.97870878343E+00  0.19706359855E+01  0.51100000000E-03 0.  1.
        -12    1    4    4    0    0  0.46001517805E+01 -0.25194731555E+01  0.39468522828E+01  0.65640524318E+01  0.00000000000E+00 0.  1.
</event>
<event>
 8    1  0.5542925E-011  0.9118800E+02  0.7816164E-02  0.1184000E+00
        -11   -1    0    0    0    0  0.00000000000E+00  0.00000000000E+00  0.45593999997E+02  0.45594000000E+02  0.51100000000E-03 0. -1.
         11   -1    0    0    0    0 -0.00000000000E+00 -0.00000000000E+00 -0.45593999997E+02  0.45594000000E+02  0.51100000000E-03 0.  1.
         23    2    1    2    0    0  0.88817841970E-15 -0.88817841970E-15  0.71054273576E-14  0.91188000000E+02  0.91188000000E+02 0.  0.
    9900012    2    3    3    0    0  0.58458813495E+01 -0.52870246677E+01  0.42678989825E+02  0.47787272690E+02  0.20000007502E+02 0.  0.
        -12    1    3    3    0    0 -0.58458813495E+01  0.52870246677E+01 -0.42678989825E+02  0.43400727310E+02  0.00000000000E+00 0.  1.
         11    1    4    4    0    0  0.32303370161E+01 -0.32582135140E+01  0.20033229314E+02  0.20551917418E+02  0.51100000000E-03 0. -1.
        -11    1    4    4    0    0 -0.29507460991E+01 -0.69458164757E+01  0.13367707971E+02  0.15350794302E+02  0.51100000000E-03 0.  1.
         12    1    4    4    0    0  0.55662904325E+01  0.49170053219E+01  0.92780525399E+01  0.11884560970E+02  0.00000000000E+00 0. -1.
</event>
<event>
 8    1  0.5542925E-011  0.9118800E+02  0.7816164E-02  0.1184000E+00
        -11   -1    0    0    0    0  0.00000000000E+00  0.00000000000E+00  0.45593999997E+02  0.45594000000E+02  0.51100000000E-03 0. -1.
         11   -1    0    0    0    0 -0.00000000000E+00 -0.00000000000E+00 -0.45593999997E+02  0.45594000000E+02  0.51100000000E-03 0.  1.
         23    2    1    2    0    0  0.00000000000E+00  0.00000000000E+00  0.35527136788E-14  0.91188000000E+02  0.91188000000E+02 0.  0.
    9900012    2    3    3    0    0 -0.35584080082E+02  0.16238337608E+02 -0.18807209259E+02  0.47787291668E+02  0.20000094033E+02 0.  0.
         12    1    3    3    0    0  0.35584080082E+02 -0.16238337608E+02  0.18807209259E+02  0.43400708332E+02  0.00000000000E+00 0. -1.
         11    1    4    4    0    0 -0.70491980601E+01 -0.14799262406E+00 -0.33175043910E+01  0.77922352861E+01  0.51100000000E-03 0. -1.
        -11    1    4    4    0    0 -0.30131688377E+02  0.12408535347E+02 -0.13771155274E+02  0.35377042156E+02  0.51100000000E-03 0.  1.
         12    1    4    4    0    0  0.15968063548E+01  0.39777948852E+01 -0.17185495939E+01  0.46180142259E+01  0.00000000000E+00 0. -1.
</event>
<event>
 8    1  0.5542925E-011  0.9118800E+02  0.7816164E-02  0.1184000E+00
        -11   -1    0    0    0    0  0.00000000000E+00  0.00000000000E+00  0.45593999997E+02  0.45594000000E+02  0.51100000000E-03 0. -1.
         11   -1    0    0    0    0 -0.00000000000E+00 -0.00000000000E+00 -0.45593999997E+02  0.45594000000E+02  0.51100000000E-03 0.  1.
         23    2    1    2    0    0 -0.17763568394E-14  0.35527136788E-14  0.00000000000E+00  0.91188000000E+02  0.91188000000E+02 0.  0.
    9900012    2    3    3    0    0 -0.10267917747E+02 -0.27124700453E+02 -0.32286901009E+02  0.47787268598E+02  0.19999988844E+02 0.  0.
         12    1    3    3    0    0  0.10267917747E+02  0.27124700453E+02  0.32286901009E+02  0.43400731402E+02  0.00000000000E+00 0. -1.
         11    1    4    4    0    0  0.16969430200E+00 -0.56520035463E+01  0.34331310938E-01  0.56546546440E+01  0.51100000000E-03 0. -1.
        -11    1    4    4    0    0  0.23731681797E+01 -0.95394752079E+00 -0.51749702673E+01  0.57725436863E+01  0.51100000000E-03 0.  1.
        -12    1    4    4    0    0 -0.12810780229E+02 -0.20518749386E+02 -0.27146262052E+02  0.36360070267E+02  0.00000000000E+00 0.  1.
</event>
<event>
 8    1  0.5542925E-011  0.9118800E+02  0.7816164E-02  0.1184000E+00
        -11   -1    0    0    0    0  0.00000000000E+00  0.00000000000E+00  0.45593999997E+02  0.45594000000E+02  0.51100000000E-03 0. -1.
         11   -1    0    0    0    0 -0.00000000000E+00 -0.00000000000E+00 -0.45593999997E+02  0.45594000000E+02  0.51100000000E-03 0.  1.
         23    2    1    2    0    0 -0.35527136788E-14  0.17763568394E-14  0.00000000000E+00  0.91188000000E+02  0.91188000000E+02 0.  0.
    9900012    2    3    3    0    0  0.28865532256E+02 -0.55415000228E+01 -0.31932687939E+02  0.47787265744E+02  0.19999975833E+02 0.  0.
         12    1    3    3    0    0 -0.28865532256E+02  0.55415000228E+01  0.31932687939E+02  0.43400734256E+02  0.00000000000E+00 0. -1.
         11    1    4    4    0    0  0.17808792640E+02 -0.75468013670E+01 -0.14851741509E+02  0.24386093010E+02  0.51100000000E-03 0. -1.
        -11    1    4    4    0    0  0.10746750134E+02 -0.25653216143E+01 -0.96395394220E+01  0.14662681677E+02  0.51100000000E-03 0.  1.
        -12    1    4    4    0    0  0.30998948263E+00  0.45706229584E+01 -0.74414070078E+01  0.87384910576E+01  0.00000000000E+00 0.  1.
</event>
<event>
 8    1  0.5542925E-011  0.9118800E+02  0.7816164E-02  0.1184000E+00
        -11   -1    0    0    0    0  0.00000000000E+00  0.00000000000E+00  0.45593999997E+02  0.45594000000E+02  0.51100000000E-03 0.  1.
         11   -1    0    0    0    0 -0.00000000000E+00 -0.00000000000E+00 -0.45593999997E+02  0.45594000000E+02  0.51100000000E-03 0. -1.
         23    2    1    2    0    0  0.00000000000E+00  0.00000000000E+00  0.00000000000E+00  0.91188000000E+02  0.91188000000E+02 0.  0.
    9900012    2    3    3    0    0 -0.82752281187E+01  0.37359316102E+02 -0.20479867750E+02  0.47787275547E+02  0.20000020529E+02 0.  0.
         12    1    3    3    0    0  0.82752281187E+01 -0.37359316102E+02  0.20479867750E+02  0.43400724453E+02  0.00000000000E+00 0. -1.
         11    1    4    4    0    0 -0.55467486031E+01  0.15606835212E+02 -0.15390211738E+02  0.22609695774E+02  0.51100000000E-03 0. -1.
        -11    1    4    4    0    0 -0.78967930870E+00  0.22071773540E+02 -0.61749320224E+01  0.22932870870E+02  0.51100000000E-03 0.  1.
        -12    1    4    4    0    0 -0.19388002069E+01 -0.31929264982E+00  0.10852760107E+01  0.22447089027E+01  0.00000000000E+00 0.  1.
</event>
<event>
 8    1  0.5542925E-011  0.9118800E+02  0.7816164E-02  0.1184000E+00
        -11   -1    0    0    0    0  0.00000000000E+00  0.00000000000E+00  0.45593999997E+02  0.45594000000E+02  0.51100000000E-03 0. -1.
         11   -1    0    0    0    0 -0.00000000000E+00 -0.00000000000E+00 -0.45593999997E+02  0.45594000000E+02  0.51100000000E-03 0.  1.
         23    2    1    2    0    0  0.00000000000E+00  0.00000000000E+00  0.00000000000E+00  0.91188000000E+02  0.91188000000E+02 0.  0.
    9900012    2    3    3    0    0 -0.18662345816E+02 -0.10788473852E+02  0.37668929381E+02  0.47787279267E+02  0.20000037489E+02 0.  0.
        -12    1    3    3    0    0  0.18662345816E+02  0.10788473852E+02 -0.37668929381E+02  0.43400720733E+02  0.00000000000E+00 0.  1.
         11    1    4    4    0    0 -0.10278728148E+02 -0.11697440211E+01  0.18257464315E+02  0.20984650507E+02  0.51100000000E-03 0. -1.
        -11    1    4    4    0    0  0.71313851485E+00  0.18112122404E+01  0.80903510398E+01  0.83212280662E+01  0.51100000000E-03 0.  1.
        -12    1    4    4    0    0 -0.90967561832E+01 -0.11429942071E+02  0.11321114027E+02  0.18481400694E+02  0.00000000000E+00 0.  1.
</event>
<event>
 8    1  0.5542925E-011  0.9118800E+02  0.7816164E-02  0.1184000E+00
        -11   -1    0    0    0    0  0.00000000000E+00  0.00000000000E+00  0.45593999997E+02  0.45594000000E+02  0.51100000000E-03 0. -1.
         11   -1    0    0    0    0 -0.00000000000E+00 -0.00000000000E+00 -0.45593999997E+02  0.45594000000E+02  0.51100000000E-03 0.  1.
         23    2    1    2    0    0  0.00000000000E+00  0.17763568394E-14  0.00000000000E+00  0.91188000000E+02  0.91188000000E+02 0.  0.
    9900012    2    3    3    0    0  0.21906329888E+02  0.14707144416E+02 -0.34459194069E+02  0.47787269109E+02  0.19999991175E+02 0.  0.
         12    1    3    3    0    0 -0.21906329888E+02 -0.14707144416E+02  0.34459194069E+02  0.43400730891E+02  0.00000000000E+00 0. -1.
         11    1    4    4    0    0  0.25162587091E+01  0.67962682135E+01 -0.70486333069E+01  0.10109601935E+02  0.51100000000E-03 0. -1.
        -11    1    4    4    0    0  0.79520543736E+01  0.10243028485E+02 -0.86700787189E+01  0.15598880298E+02  0.51100000000E-03 0.  1.
         12    1    4    4    0    0  0.11438016805E+02 -0.23321522829E+01 -0.18740482043E+02  0.22078786876E+02  0.00000000000E+00 0. -1.
</event>
<event>
 8    1  0.5542925E-011  0.9118800E+02  0.7816164E-02  0.1184000E+00
        -11   -1    0    0    0    0  0.00000000000E+00  0.00000000000E+00  0.45593999997E+02  0.45594000000E+02  0.51100000000E-03 0. -1.
         11   -1    0    0    0    0 -0.00000000000E+00 -0.00000000000E+00 -0.45593999997E+02  0.45594000000E+02  0.51100000000E-03 0.  1.
         23    2    1    2    0    0  0.00000000000E+00  0.00000000000E+00  0.71054273576E-14  0.91188000000E+02  0.91188000000E+02 0.  0.
    9900012    2    3    3    0    0  0.26007111001E+02  0.38548654835E+01  0.34531052044E+02  0.47787269985E+02  0.19999995170E+02 0.  0.
        -12    1    3    3    0    0 -0.26007111001E+02 -0.38548654835E+01 -0.34531052044E+02  0.43400730015E+02  0.00000000000E+00 0.  1.
         11    1    4    4    0    0  0.21378684388E+01 -0.51699342749E+01  0.27300388766E+01  0.62250955332E+01  0.51100000000E-03 0. -1.
        -11    1    4    4    0    0  0.11213023392E+02  0.42250216347E+01  0.21266991494E+02  0.24410400014E+02  0.51100000000E-03 0.  1.
        -12    1    4    4    0    0  0.12656219170E+02  0.47997781236E+01  0.10534021674E+02  0.17151774437E+02  0.00000000000E+00 0.  1.
</event>
<event>
 8    1  0.5542925E-011  0.9118800E+02  0.7816164E-02  0.1184000E+00
        -11   -1    0    0    0    0  0.00000000000E+00  0.00000000000E+00  0.45593999997E+02  0.45594000000E+02  0.51100000000E-03 0. -1.
         11   -1    0    0    0    0 -0.00000000000E+00 -0.00000000000E+00 -0.45593999997E+02  0.45594000000E+02  0.51100000000E-03 0.  1.
         23    2    1    2    0    0  0.00000000000E+00  0.00000000000E+00 -0.35527136788E-14  0.91188000000E+02  0.91188000000E+02 0.  0.
    9900012    2    3    3    0    0 -0.10362770979E+02 -0.34694918044E+02 -0.23926961442E+02  0.47787264473E+02  0.19999970039E+02 0.  0.
         12    1    3    3    0    0  0.10362770979E+02  0.34694918044E+02  0.23926961442E+02  0.43400735527E+02  0.00000000000E+00 0. -1.
         11    1    4    4    0    0 -0.54387009717E+01 -0.10023928078E+02 -0.11524316037E+02  0.16213218766E+02  0.51100000000E-03 0.  1.
        -11    1    4    4    0    0 -0.76204500568E+01 -0.87022880481E+01 -0.69028834828E+00  0.11587820097E+02  0.51100000000E-03 0. -1.
         12    1    4    4    0    0  0.26963800499E+01 -0.15968701918E+02 -0.11712357057E+02  0.19986225610E+02  0.00000000000E+00 0. -1.
</event>
<event>
 8    1  0.5542925E-011  0.9118800E+02  0.7816164E-02  0.1184000E+00
        -11   -1    0    0    0    0  0.00000000000E+00  0.00000000000E+00  0.45593999997E+02  0.45594000000E+02  0.51100000000E-03 0. -1.
         11   -1    0    0    0    0 -0.00000000000E+00 -0.00000000000E+00 -0.45593999997E+02  0.45594000000E+02  0.51100000000E-03 0.  1.
         23    2    1    2    0    0 -0.55511151231E-15  0.00000000000E+00  0.35527136788E-14  0.91188000000E+02  0.91188000000E+02 0.  0.
    9900012    2    3    3    0    0 -0.48539052817E+00  0.37158350402E+02 -0.22419745811E+02  0.47787267163E+02  0.19999982302E+02 0.  0.
         12    1    3    3    0    0  0.48539052817E+00 -0.37158350402E+02  0.22419745811E+02  0.43400732837E+02  0.00000000000E+00 0. -1.
         11    1    4    4    0    0 -0.20254051131E+01  0.37495118278E+00 -0.41340805783E+00  0.21008952246E+01  0.51100000000E-03 0. -1.
        -11    1    4    4    0    0 -0.36616982971E+01  0.14080108446E+02 -0.16015146009E+02  0.21636598397E+02  0.51100000000E-03 0.  1.
        -12    1    4    4    0    0  0.52017128820E+01  0.22703290773E+02 -0.59911917448E+01  0.24049773541E+02  0.00000000000E+00 0.  1.
</event>
<event>
 8    1  0.5542925E-011  0.9118800E+02  0.7816164E-02  0.1184000E+00
        -11   -1    0    0    0    0  0.00000000000E+00  0.00000000000E+00  0.45593999997E+02  0.45594000000E+02  0.51100000000E-03 0. -1.
         11   -1    0    0    0    0 -0.00000000000E+00 -0.00000000000E+00 -0.45593999997E+02  0.45594000000E+02  0.51100000000E-03 0.  1.
         23    2    1    2    0    0  0.00000000000E+00  0.17763568394E-14 -0.35527136788E-14  0.91188000000E+02  0.91188000000E+02 0.  0.
    9900012    2    3    3    0    0  0.35144648601E+02  0.14177382283E+02 -0.21153818339E+02  0.47787210560E+02  0.19999724225E+02 0.  0.
         12    1    3    3    0    0 -0.35144648601E+02 -0.14177382283E+02  0.21153818339E+02  0.43400789440E+02  0.00000000000E+00 0. -1.
         11    1    4    4    0    0 -0.97834773409E+00  0.20839079894E+01  0.17938242881E+00  0.23091156563E+01  0.51100000000E-03 0. -1.
        -11    1    4    4    0    0  0.42844007483E+01  0.63660876694E+01 -0.26348016278E+01  0.81132818185E+01  0.51100000000E-03 0.  1.
        -12    1    4    4    0    0  0.31838595587E+02  0.57273866239E+01 -0.18698399140E+02  0.37364813085E+02  0.00000000000E+00 0.  1.
</event>
<event>
 8    1  0.5542925E-011  0.9118800E+02  0.7816164E-02  0.1184000E+00
        -11   -1    0    0    0    0  0.00000000000E+00  0.00000000000E+00  0.45593999997E+02  0.45594000000E+02  0.51100000000E-03 0. -1.
         11   -1    0    0    0    0 -0.00000000000E+00 -0.00000000000E+00 -0.45593999997E+02  0.45594000000E+02  0.51100000000E-03 0.  1.
         23    2    1    2    0    0  0.44408920985E-15  0.88817841970E-15  0.00000000000E+00  0.91188000000E+02  0.91188000000E+02 0.  0.
    9900012    2    3    3    0    0 -0.34941256355E+01  0.75500979221E+01  0.42595895903E+02  0.47787271430E+02  0.20000001758E+02 0.  0.
        -12    1    3    3    0    0  0.34941256355E+01 -0.75500979221E+01 -0.42595895903E+02  0.43400728570E+02  0.00000000000E+00 0.  1.
         11    1    4    4    0    0 -0.45232019995E+01  0.10432054127E+02  0.14016627884E+02  0.18048627846E+02  0.51100000000E-03 0. -1.
        -11    1    4    4    0    0  0.10726383727E+01  0.44433555022E+00  0.21598351245E+00  0.11809472040E+01  0.51100000000E-03 0.  1.
         12    1    4    4    0    0 -0.43562008759E-01 -0.33262917553E+01  0.28363284507E+02  0.28557696380E+02  0.00000000000E+00 0. -1.
</event>
<event>
 8    1  0.5542925E-011  0.9118800E+02  0.7816164E-02  0.1184000E+00
        -11   -1    0    0    0    0  0.00000000000E+00  0.00000000000E+00  0.45593999997E+02  0.45594000000E+02  0.51100000000E-03 0. -1.
         11   -1    0    0    0    0 -0.00000000000E+00 -0.00000000000E+00 -0.45593999997E+02  0.45594000000E+02  0.51100000000E-03 0.  1.
         23    2    1    2    0    0  0.00000000000E+00  0.00000000000E+00  0.71054273576E-14  0.91188000000E+02  0.91188000000E+02 0.  0.
    9900012    2    3    3    0    0  0.86229739380E+01 -0.15600597347E+02 -0.39571318684E+02  0.47787267523E+02  0.19999983944E+02 0.  0.
         12    1    3    3    0    0 -0.86229739380E+01  0.15600597347E+02  0.39571318684E+02  0.43400732477E+02  0.00000000000E+00 0. -1.
         11    1    4    4    0    0  0.79395653247E+01 -0.72065487055E+01 -0.10862718619E+02  0.15263344910E+02  0.51100000000E-03 0.  1.
        -11    1    4    4    0    0  0.16437962152E+01 -0.11369012517E+02 -0.17871427271E+02  0.21244868194E+02  0.51100000000E-03 0. -1.
         12    1    4    4    0    0 -0.96038760191E+00  0.29749638759E+01 -0.10837172794E+02  0.11279054419E+02  0.00000000000E+00 0. -1.
</event>
<event>
 8    1  0.5542925E-011  0.9118800E+02  0.7816164E-02  0.1184000E+00
        -11   -1    0    0    0    0  0.00000000000E+00  0.00000000000E+00  0.45593999997E+02  0.45594000000E+02  0.51100000000E-03 0. -1.
         11   -1    0    0    0    0 -0.00000000000E+00 -0.00000000000E+00 -0.45593999997E+02  0.45594000000E+02  0.51100000000E-03 0.  1.
         23    2    1    2    0    0  0.00000000000E+00  0.00000000000E+00  0.00000000000E+00  0.91188000000E+02  0.91188000000E+02 0.  0.
    9900012    2    3    3    0    0  0.15685643247E+01 -0.11201764193E+02 -0.41900876704E+02  0.47787269780E+02  0.19999994234E+02 0.  0.
         12    1    3    3    0    0 -0.15685643247E+01  0.11201764193E+02  0.41900876704E+02  0.43400730220E+02  0.00000000000E+00 0. -1.
         11    1    4    4    0    0 -0.73370075847E+01 -0.97861137181E+01 -0.29867543870E+02  0.32274910985E+02  0.51100000000E-03 0. -1.
        -11    1    4    4    0    0  0.52798102337E+01 -0.14294998270E+01 -0.98861417498E+01  0.11298480642E+02  0.51100000000E-03 0.  1.
         12    1    4    4    0    0  0.36257616757E+01  0.13849352190E-01 -0.21471910837E+01  0.42138781524E+01  0.00000000000E+00 0. -1.
</event>
<event>
 8    1  0.5542925E-011  0.9118800E+02  0.7816164E-02  0.1184000E+00
        -11   -1    0    0    0    0  0.00000000000E+00  0.00000000000E+00  0.45593999997E+02  0.45594000000E+02  0.51100000000E-03 0. -1.
         11   -1    0    0    0    0 -0.00000000000E+00 -0.00000000000E+00 -0.45593999997E+02  0.45594000000E+02  0.51100000000E-03 0.  1.
         23    2    1    2    0    0  0.00000000000E+00  0.00000000000E+00  0.00000000000E+00  0.91188000000E+02  0.91188000000E+02 0.  0.
    9900012    2    3    3    0    0  0.20603866540E+02  0.16296941779E+02  0.34547308737E+02  0.47787237694E+02  0.19999847941E+02 0.  0.
        -12    1    3    3    0    0 -0.20603866540E+02 -0.16296941779E+02 -0.34547308737E+02  0.43400762306E+02  0.00000000000E+00 0.  1.
         11    1    4    4    0    0  0.12136246554E+02  0.13141025603E+02  0.19080644073E+02  0.26154273319E+02  0.51100000000E-03 0. -1.
        -11    1    4    4    0    0  0.92771069189E+00  0.44536446770E+01  0.19662344271E+00  0.45534886709E+01  0.51100000000E-03 0.  1.
         12    1    4    4    0    0  0.75399092940E+01 -0.12977285008E+01  0.15270041221E+02  0.17079475704E+02  0.00000000000E+00 0. -1.
</event>
<event>
 8    1  0.5542925E-011  0.9118800E+02  0.7816164E-02  0.1184000E+00
        -11   -1    0    0    0    0  0.00000000000E+00  0.00000000000E+00  0.45593999997E+02  0.45594000000E+02  0.51100000000E-03 0. -1.
         11   -1    0    0    0    0 -0.00000000000E+00 -0.00000000000E+00 -0.45593999997E+02  0.45594000000E+02  0.51100000000E-03 0.  1.
         23    2    1    2    0    0  0.35527136788E-14 -0.88817841970E-15  0.00000000000E+00  0.91188000000E+02  0.91188000000E+02 0.  0.
    9900012    2    3    3    0    0 -0.27418722989E+02  0.41043692585E+01 -0.33391481223E+02  0.47787271485E+02  0.20000002010E+02 0.  0.
         12    1    3    3    0    0  0.27418722989E+02 -0.41043692585E+01  0.33391481223E+02  0.43400728515E+02  0.00000000000E+00 0. -1.
         11    1    4    4    0    0 -0.15476500641E+01 -0.20562279172E+01  0.73324117598E+00  0.26759926853E+01  0.51100000000E-03 0. -1.
        -11    1    4    4    0    0  0.43685604790E+00  0.15358596372E+01 -0.64650562533E+01  0.66593288439E+01  0.51100000000E-03 0.  1.
        -12    1    4    4    0    0 -0.26307928973E+02  0.46247375384E+01 -0.27659666145E+02  0.38451949956E+02  0.00000000000E+00 0.  1.
</event>
<event>
 8    1  0.5542925E-011  0.9118800E+02  0.7816164E-02  0.1184000E+00
        -11   -1    0    0    0    0  0.00000000000E+00  0.00000000000E+00  0.45593999997E+02  0.45594000000E+02  0.51100000000E-03 0. -1.
         11   -1    0    0    0    0 -0.00000000000E+00 -0.00000000000E+00 -0.45593999997E+02  0.45594000000E+02  0.51100000000E-03 0.  1.
         23    2    1    2    0    0  0.00000000000E+00  0.44408920985E-15  0.00000000000E+00  0.91188000000E+02  0.91188000000E+02 0.  0.
    9900012    2    3    3    0    0 -0.11098674343E+01 -0.29897517868E+01 -0.43283427250E+02  0.47787245445E+02  0.19999883282E+02 0.  0.
         12    1    3    3    0    0  0.11098674343E+01  0.29897517868E+01  0.43283427250E+02  0.43400754555E+02  0.00000000000E+00 0. -1.
         11    1    4    4    0    0 -0.34055691265E+01 -0.13370287332E+00 -0.39443208489E+01  0.52128154345E+01  0.51100000000E-03 0. -1.
        -11    1    4    4    0    0 -0.64405292028E+01 -0.32311995256E+01 -0.13606405851E+02  0.15396601808E+02  0.51100000000E-03 0.  1.
        -12    1    4    4    0    0  0.87362308950E+01  0.37515061211E+00 -0.25732700550E+02  0.27177828203E+02  0.00000000000E+00 0.  1.
</event>
<event>
 8    1  0.5542925E-011  0.9118800E+02  0.7816164E-02  0.1184000E+00
        -11   -1    0    0    0    0  0.00000000000E+00  0.00000000000E+00  0.45593999997E+02  0.45594000000E+02  0.51100000000E-03 0. -1.
         11   -1    0    0    0    0 -0.00000000000E+00 -0.00000000000E+00 -0.45593999997E+02  0.45594000000E+02  0.51100000000E-03 0.  1.
         23    2    1    2    0    0 -0.22204460493E-15 -0.17763568394E-14  0.00000000000E+00  0.91188000000E+02  0.91188000000E+02 0.  0.
    9900012    2    3    3    0    0  0.41852059731E+00  0.13696319099E+02 -0.41180810690E+02  0.47787268608E+02  0.19999988890E+02 0.  0.
         12    1    3    3    0    0 -0.41852059731E+00 -0.13696319099E+02  0.41180810690E+02  0.43400731392E+02  0.00000000000E+00 0. -1.
         11    1    4    4    0    0 -0.64559302635E+01  0.34899862558E+01 -0.11970547083E+02  0.14041119519E+02  0.51100000000E-03 0. -1.
        -11    1    4    4    0    0  0.54007950080E+01 -0.69616617654E+00 -0.13590198065E+02  0.14640584612E+02  0.51100000000E-03 0.  1.
        -12    1    4    4    0    0  0.14736558528E+01  0.10902499019E+02 -0.15620065542E+02  0.19105564476E+02  0.00000000000E+00 0.  1.
</event>
<event>
 8    1  0.6685999E-011  0.9118800E+02  0.7816164E-02  0.1184000E+00
        -11   -1    0    0    0    0  0.00000000000E+00  0.00000000000E+00  0.45593999997E+02  0.45594000000E+02  0.51100000000E-03 0. -1.
         11   -1    0    0    0    0 -0.00000000000E+00 -0.00000000000E+00 -0.45593999997E+02  0.45594000000E+02  0.51100000000E-03 0.  1.
         23    2    1    2    0    0  0.00000000000E+00  0.00000000000E+00  0.00000000000E+00  0.91188000000E+02  0.91188000000E+02 0.  0.
    9900012    2    3    3    0    0  0.13880995208E+02  0.16829214112E+02  0.37519579838E+02  0.47787270204E+02  0.19999996170E+02 0.  0.
        -12    1    3    3    0    0 -0.13880995208E+02 -0.16829214112E+02 -0.37519579838E+02  0.43400729796E+02  0.00000000000E+00 0.  1.
         11    1    4    4    0    0  0.43538807612E+01  0.56058444490E+01  0.43965420293E+01  0.83493324132E+01  0.51100000000E-03 0. -1.
        -11    1    4    4    0    0  0.44245938036E+01 -0.28507907828E+01  0.37270066207E+01  0.64493888878E+01  0.51100000000E-03 0.  1.
         12    1    4    4    0    0  0.51025206431E+01  0.14074160445E+02  0.29396031188E+02  0.32988548903E+02  0.00000000000E+00 0. -1.
</event>
<event>
 8    1  0.5542925E-011  0.9118800E+02  0.7816164E-02  0.1184000E+00
        -11   -1    0    0    0    0  0.00000000000E+00  0.00000000000E+00  0.45593999997E+02  0.45594000000E+02  0.51100000000E-03 0.  1.
         11   -1    0    0    0    0 -0.00000000000E+00 -0.00000000000E+00 -0.45593999997E+02  0.45594000000E+02  0.51100000000E-03 0. -1.
         23    2    1    2    0    0  0.00000000000E+00  0.00000000000E+00  0.00000000000E+00  0.91188000000E+02  0.91188000000E+02 0.  0.
    9900012    2    3    3    0    0  0.40839781589E+02 -0.53558647952E+01  0.13676632926E+02  0.47787270327E+02  0.19999996730E+02 0.  0.
         12    1    3    3    0    0 -0.40839781589E+02  0.53558647952E+01 -0.13676632926E+02  0.43400729673E+02  0.00000000000E+00 0. -1.
         11    1    4    4    0    0  0.53337574233E+01 -0.27404072478E+01 -0.18814350542E+01  0.62847910275E+01  0.51100000000E-03 0. -1.
        -11    1    4    4    0    0  0.14527950825E+02 -0.27155392086E+01 -0.94668211851E+00  0.14809851979E+02  0.51100000000E-03 0.  1.
         12    1    4    4    0    0  0.20978073341E+02  0.10008166121E+00  0.16504750099E+02  0.26692627320E+02  0.00000000000E+00 0. -1.
</event>
<event>
 8    1  0.5542925E-011  0.9118800E+02  0.7816164E-02  0.1184000E+00
        -11   -1    0    0    0    0  0.00000000000E+00  0.00000000000E+00  0.45593999997E+02  0.45594000000E+02  0.51100000000E-03 0. -1.
         11   -1    0    0    0    0 -0.00000000000E+00 -0.00000000000E+00 -0.45593999997E+02  0.45594000000E+02  0.51100000000E-03 0.  1.
         23    2    1    2    0    0  0.88817841970E-15  0.00000000000E+00  0.71054273576E-14  0.91188000000E+02  0.91188000000E+02 0.  0.
    9900012    2    3    3    0    0 -0.48563640953E+01  0.14862839117E+02 -0.40486235663E+02  0.47787268013E+02  0.19999986178E+02 0.  0.
         12    1    3    3    0    0  0.48563640953E+01 -0.14862839117E+02  0.40486235663E+02  0.43400731987E+02  0.00000000000E+00 0. -1.
         11    1    4    4    0    0  0.42480528889E+01  0.12745348724E+01 -0.40150080838E+01  0.59825314594E+01  0.51100000000E-03 0. -1.
        -11    1    4    4    0    0 -0.40524885621E+00  0.11472259047E+02 -0.20586438319E+02  0.23570710579E+02  0.51100000000E-03 0.  1.
        -12    1    4    4    0    0 -0.86991681280E+01  0.21160451973E+01 -0.15884789260E+02  0.18234025974E+02  0.00000000000E+00 0.  1.
</event>
<event>
 8    1  0.5542925E-011  0.9118800E+02  0.7816164E-02  0.1184000E+00
        -11   -1    0    0    0    0  0.00000000000E+00  0.00000000000E+00  0.45593999997E+02  0.45594000000E+02  0.51100000000E-03 0. -1.
         11   -1    0    0    0    0 -0.00000000000E+00 -0.00000000000E+00 -0.45593999997E+02  0.45594000000E+02  0.51100000000E-03 0.  1.
         23    2    1    2    0    0  0.00000000000E+00  0.13322676296E-14  0.00000000000E+00  0.91188000000E+02  0.91188000000E+02 0.  0.
    9900012    2    3    3    0    0  0.42554664099E+02  0.26406373821E+01  0.81086882192E+01  0.47787271584E+02  0.20000002461E+02 0.  0.
        -12    1    3    3    0    0 -0.42554664099E+02 -0.26406373821E+01 -0.81086882192E+01  0.43400728416E+02  0.00000000000E+00 0.  1.
         11    1    4    4    0    0  0.13582404624E+02  0.12080411123E+01  0.86434141290E+01  0.16144648859E+02  0.51100000000E-03 0. -1.
        -11    1    4    4    0    0  0.11903463438E+02  0.54720335457E+01  0.36702224220E+01  0.13605371212E+02  0.51100000000E-03 0.  1.
        -12    1    4    4    0    0  0.17068796037E+02 -0.40394372759E+01 -0.42049483318E+01  0.18037251513E+02  0.00000000000E+00 0.  1.
</event>
<event>
 8    1  0.5542925E-011  0.9118800E+02  0.7816164E-02  0.1184000E+00
        -11   -1    0    0    0    0  0.00000000000E+00  0.00000000000E+00  0.45593999997E+02  0.45594000000E+02  0.51100000000E-03 0. -1.
         11   -1    0    0    0    0 -0.00000000000E+00 -0.00000000000E+00 -0.45593999997E+02  0.45594000000E+02  0.51100000000E-03 0.  1.
         23    2    1    2    0    0  0.88817841970E-15  0.00000000000E+00  0.00000000000E+00  0.91188000000E+02  0.91188000000E+02 0.  0.
    9900012    2    3    3    0    0  0.63300442326E+01 -0.40871516349E+02  0.13155709110E+02  0.47787274305E+02  0.20000014868E+02 0.  0.
        -12    1    3    3    0    0 -0.63300442326E+01  0.40871516349E+02 -0.13155709110E+02  0.43400725695E+02  0.00000000000E+00 0.  1.
         11    1    4    4    0    0 -0.35795509585E+01 -0.33180695214E+01  0.15097290171E+01  0.51090167723E+01  0.51100000000E-03 0. -1.
        -11    1    4    4    0    0 -0.11877083492E+01 -0.22744825688E+01 -0.20047425393E+01  0.32562117542E+01  0.51100000000E-03 0.  1.
         12    1    4    4    0    0  0.11097303540E+02 -0.35278964259E+02  0.13650722632E+02  0.39422045779E+02  0.00000000000E+00 0. -1.
</event>
<event>
 8    1  0.5542925E-011  0.9118800E+02  0.7816164E-02  0.1184000E+00
        -11   -1    0    0    0    0  0.00000000000E+00  0.00000000000E+00  0.45593999997E+02  0.45594000000E+02  0.51100000000E-03 0. -1.
         11   -1    0    0    0    0 -0.00000000000E+00 -0.00000000000E+00 -0.45593999997E+02  0.45594000000E+02  0.51100000000E-03 0.  1.
         23    2    1    2    0    0  0.00000000000E+00  0.00000000000E+00  0.00000000000E+00  0.91188000000E+02  0.91188000000E+02 0.  0.
    9900012    2    3    3    0    0  0.16111836032E+02 -0.24349837830E+02  0.32111020150E+02  0.47787268696E+02  0.19999989293E+02 0.  0.
        -12    1    3    3    0    0 -0.16111836032E+02  0.24349837830E+02 -0.32111020150E+02  0.43400731304E+02  0.00000000000E+00 0.  1.
         11    1    4    4    0    0  0.53561348595E+01 -0.24110274497E+01  0.64366796148E+01  0.87139014638E+01  0.51100000000E-03 0. -1.
        -11    1    4    4    0    0 -0.38975208770E+01 -0.14866646626E+01  0.24754971275E+01  0.48506625419E+01  0.51100000000E-03 0.  1.
         12    1    4    4    0    0  0.14653222050E+02 -0.20452145717E+02  0.23198843408E+02  0.34222704690E+02  0.00000000000E+00 0. -1.
</event>
<event>
 8    1  0.5542925E-011  0.9118800E+02  0.7816164E-02  0.1184000E+00
        -11   -1    0    0    0    0  0.00000000000E+00  0.00000000000E+00  0.45593999997E+02  0.45594000000E+02  0.51100000000E-03 0. -1.
         11   -1    0    0    0    0 -0.00000000000E+00 -0.00000000000E+00 -0.45593999997E+02  0.45594000000E+02  0.51100000000E-03 0.  1.
         23    2    1    2    0    0 -0.71054273576E-14 -0.88817841970E-15  0.17763568394E-14  0.91188000000E+02  0.91188000000E+02 0.  0.
    9900012    2    3    3    0    0  0.40795218411E+02  0.66836170552E+01 -0.13217515614E+02  0.47787270730E+02  0.19999998565E+02 0.  0.
         12    1    3    3    0    0 -0.40795218411E+02 -0.66836170552E+01  0.13217515614E+02  0.43400729270E+02  0.00000000000E+00 0. -1.
         11    1    4    4    0    0  0.75075179919E+00 -0.13252288716E+01  0.17542828256E+01  0.23232236912E+01  0.51100000000E-03 0. -1.
        -11    1    4    4    0    0  0.24253388140E+02 -0.18058968521E+01 -0.78901025565E+01  0.25568375356E+02  0.51100000000E-03 0.  1.
         12    1    4    4    0    0  0.15791078472E+02  0.98147427789E+01 -0.70816958830E+01  0.19895671683E+02  0.00000000000E+00 0. -1.
</event>
<event>
 8    1  0.5542925E-011  0.9118800E+02  0.7816164E-02  0.1184000E+00
        -11   -1    0    0    0    0  0.00000000000E+00  0.00000000000E+00  0.45593999997E+02  0.45594000000E+02  0.51100000000E-03 0. -1.
         11   -1    0    0    0    0 -0.00000000000E+00 -0.00000000000E+00 -0.45593999997E+02  0.45594000000E+02  0.51100000000E-03 0.  1.
         23    2    1    2    0    0  0.00000000000E+00  0.00000000000E+00  0.35527136788E-14  0.91188000000E+02  0.91188000000E+02 0.  0.
    9900012    2    3    3    0    0  0.16324941544E+02 -0.25672634251E+02 -0.30952149004E+02  0.47787269663E+02  0.19999993702E+02 0.  0.
         12    1    3    3    0    0 -0.16324941544E+02  0.25672634251E+02  0.30952149004E+02  0.43400730337E+02  0.00000000000E+00 0. -1.
         11    1    4    4    0    0  0.20401082150E+01 -0.18222706524E+02 -0.95575722352E+01  0.20677917252E+02  0.51100000000E-03 0. -1.
        -11    1    4    4    0    0  0.67013380944E+01 -0.31093741368E+01 -0.13218489483E+02  0.15142807014E+02  0.51100000000E-03 0.  1.
         12    1    4    4    0    0  0.75834952348E+01 -0.43405535906E+01 -0.81760872856E+01  0.11966545397E+02  0.00000000000E+00 0. -1.
</event>
<event>
 8    1  0.5542925E-011  0.9118800E+02  0.7816164E-02  0.1184000E+00
        -11   -1    0    0    0    0  0.00000000000E+00  0.00000000000E+00  0.45593999997E+02  0.45594000000E+02  0.51100000000E-03 0. -1.
         11   -1    0    0    0    0 -0.00000000000E+00 -0.00000000000E+00 -0.45593999997E+02  0.45594000000E+02  0.51100000000E-03 0.  1.
         23    2    1    2    0    0  0.00000000000E+00  0.00000000000E+00 -0.71054273576E-14  0.91188000000E+02  0.91188000000E+02 0.  0.
    9900012    2    3    3    0    0 -0.61718389045E+01 -0.20758891404E+02 -0.37611170826E+02  0.47787270297E+02  0.19999996594E+02 0.  0.
         12    1    3    3    0    0  0.61718389045E+01  0.20758891404E+02  0.37611170826E+02  0.43400729703E+02  0.00000000000E+00 0. -1.
         11    1    4    4    0    0 -0.37382929234E+00 -0.35661873811E+01 -0.25461171505E+01  0.43977441470E+01  0.51100000000E-03 0. -1.
        -11    1    4    4    0    0 -0.11773437922E+02 -0.15162295954E+02 -0.25206821351E+02  0.31684268999E+02  0.51100000000E-03 0.  1.
         12    1    4    4    0    0  0.59754283101E+01 -0.20304080690E+01 -0.98582323247E+01  0.11705257152E+02  0.00000000000E+00 0. -1.
</event>
<event>
 8    1  0.6512925E-011  0.9118800E+02  0.7816164E-02  0.1184000E+00
        -11   -1    0    0    0    0  0.00000000000E+00  0.00000000000E+00  0.45593999997E+02  0.45594000000E+02  0.51100000000E-03 0. -1.
         11   -1    0    0    0    0 -0.00000000000E+00 -0.00000000000E+00 -0.45593999997E+02  0.45594000000E+02  0.51100000000E-03 0.  1.
         23    2    1    2    0    0  0.00000000000E+00 -0.44408920985E-15 -0.71054273576E-14  0.91188000000E+02  0.91188000000E+02 0.  0.
    9900012    2    3    3    0    0 -0.28912395998E+02  0.26234129523E+01  0.32261671405E+02  0.47787258304E+02  0.19999941912E+02 0.  0.
        -12    1    3    3    0    0  0.28912395998E+02 -0.26234129523E+01 -0.32261671405E+02  0.43400741696E+02  0.00000000000E+00 0.  1.
         11    1    4    4    0    0  0.19377225485E+00  0.41548178754E+01  0.28110617124E+01  0.50201720565E+01  0.51100000000E-03 0. -1.
        -11    1    4    4    0    0 -0.53250130160E+01 -0.35633796161E+01  0.28039774057E+01  0.69939779426E+01  0.51100000000E-03 0.  1.
         12    1    4    4    0    0 -0.23781155237E+02  0.20319746930E+01  0.26646632287E+02  0.35773108305E+02  0.00000000000E+00 0. -1.
</event>
<event>
 8    1  0.5542925E-011  0.9118800E+02  0.7816164E-02  0.1184000E+00
        -11   -1    0    0    0    0  0.00000000000E+00  0.00000000000E+00  0.45593999997E+02  0.45594000000E+02  0.51100000000E-03 0.  1.
         11   -1    0    0    0    0 -0.00000000000E+00 -0.00000000000E+00 -0.45593999997E+02  0.45594000000E+02  0.51100000000E-03 0. -1.
         23    2    1    2    0    0  0.00000000000E+00  0.00000000000E+00 -0.44408920985E-15  0.91188000000E+02  0.91188000000E+02 0.  0.
    9900012    2    3    3    0    0 -0.12650789021E+02 -0.41440429969E+02  0.25042102264E+01  0.47787276875E+02  0.20000026586E+02 0.  0.
         12    1    3    3    0    0  0.12650789021E+02  0.41440429969E+02 -0.25042102264E+01  0.43400723125E+02  0.00000000000E+00 0. -1.
         11    1    4    4    0    0 -0.49144985515E+01 -0.53639444969E+01 -0.19802964478E+01  0.75396134424E+01  0.51100000000E-03 0. -1.
        -11    1    4    4    0    0 -0.28464482250E+00 -0.24554903304E+02 -0.27947417353E+01  0.24715073954E+02  0.51100000000E-03 0.  1.
        -12    1    4    4    0    0 -0.74516456466E+01 -0.11521582168E+02  0.72792484095E+01  0.15532589479E+02  0.00000000000E+00 0.  1.
</event>
<event>
 8    1  0.5542925E-011  0.9118800E+02  0.7816164E-02  0.1184000E+00
        -11   -1    0    0    0    0  0.00000000000E+00  0.00000000000E+00  0.45593999997E+02  0.45594000000E+02  0.51100000000E-03 0.  1.
         11   -1    0    0    0    0 -0.00000000000E+00 -0.00000000000E+00 -0.45593999997E+02  0.45594000000E+02  0.51100000000E-03 0. -1.
         23    2    1    2    0    0 -0.71054273576E-14  0.35527136788E-14  0.00000000000E+00  0.91188000000E+02  0.91188000000E+02 0.  0.
    9900012    2    3    3    0    0 -0.37922288953E+02  0.20559769226E+02  0.47768964374E+01  0.47787275932E+02  0.20000022286E+02 0.  0.
         12    1    3    3    0    0  0.37922288953E+02 -0.20559769226E+02 -0.47768964374E+01  0.43400724068E+02  0.00000000000E+00 0. -1.
         11    1    4    4    0    0 -0.63875247254E+01 -0.77442713916E+00  0.93455958742E+00  0.65018160075E+01  0.51100000000E-03 0. -1.
        -11    1    4    4    0    0 -0.35733760571E+00  0.63543524840E+01  0.18982749007E+01  0.66414556775E+01  0.51100000000E-03 0.  1.
        -12    1    4    4    0    0 -0.31177426621E+02  0.14979843881E+02  0.19440619493E+01  0.34644004247E+02  0.00000000000E+00 0.  1.
</event>
<event>
 8    1  0.5542925E-011  0.9118800E+02  0.7816164E-02  0.1184000E+00
        -11   -1    0    0    0    0  0.00000000000E+00  0.00000000000E+00  0.45593999997E+02  0.45594000000E+02  0.51100000000E-03 0. -1.
         11   -1    0    0    0    0 -0.00000000000E+00 -0.00000000000E+00 -0.45593999997E+02  0.45594000000E+02  0.51100000000E-03 0.  1.
         23    2    1    2    0    0  0.00000000000E+00 -0.35527136788E-14  0.71054273576E-14  0.91188000000E+02  0.91188000000E+02 0.  0.
    9900012    2    3    3    0    0  0.16343537415E+02 -0.17511236266E+02  0.36192106523E+02  0.47787272064E+02  0.20000004648E+02 0.  0.
        -12    1    3    3    0    0 -0.16343537415E+02  0.17511236266E+02 -0.36192106523E+02  0.43400727936E+02  0.00000000000E+00 0.  1.
         11    1    4    4    0    0  0.11823844014E+02 -0.12798455971E+02  0.13038157130E+02  0.21762290874E+02  0.51100000000E-03 0. -1.
        -11    1    4    4    0    0  0.75437746261E+01 -0.21809276735E+01  0.13883707168E+02  0.15950620869E+02  0.51100000000E-03 0.  1.
        -12    1    4    4    0    0 -0.30240812245E+01 -0.25318526219E+01  0.92702422253E+01  0.10074360320E+02  0.00000000000E+00 0.  1.
</event>
<event>
 8    1  0.7151929E-011  0.9118800E+02  0.7816164E-02  0.1184000E+00
        -11   -1    0    0    0    0  0.00000000000E+00  0.00000000000E+00  0.45593999997E+02  0.45594000000E+02  0.51100000000E-03 0. -1.
         11   -1    0    0    0    0 -0.00000000000E+00 -0.00000000000E+00 -0.45593999997E+02  0.45594000000E+02  0.51100000000E-03 0.  1.
         23    2    1    2    0    0  0.00000000000E+00  0.00000000000E+00  0.00000000000E+00  0.91188000000E+02  0.91188000000E+02 0.  0.
    9900012    2    3    3    0    0 -0.15345907025E+02 -0.12924919520E+02  0.38484709162E+02  0.47787271362E+02  0.20000001448E+02 0.  0.
        -12    1    3    3    0    0  0.15345907025E+02  0.12924919520E+02 -0.38484709162E+02  0.43400728638E+02  0.00000000000E+00 0.  1.
         11    1    4    4    0    0 -0.48134459845E+01  0.66214496493E+00  0.19347483900E+01  0.52298135525E+01  0.51100000000E-03 0. -1.
        -11    1    4    4    0    0  0.18981988297E+01 -0.86389842006E+00  0.12342509015E+02  0.12517468127E+02  0.51100000000E-03 0.  1.
         12    1    4    4    0    0 -0.12430659870E+02 -0.12723166065E+02  0.24207451758E+02  0.30039989682E+02  0.00000000000E+00 0. -1.
</event>
<event>
 8    1  0.5542925E-011  0.9118800E+02  0.7816164E-02  0.1184000E+00
        -11   -1    0    0    0    0  0.00000000000E+00  0.00000000000E+00  0.45593999997E+02  0.45594000000E+02  0.51100000000E-03 0. -1.
         11   -1    0    0    0    0 -0.00000000000E+00 -0.00000000000E+00 -0.45593999997E+02  0.45594000000E+02  0.51100000000E-03 0.  1.
         23    2    1    2    0    0  0.00000000000E+00  0.00000000000E+00  0.00000000000E+00  0.91188000000E+02  0.91188000000E+02 0.  0.
    9900012    2    3    3    0    0  0.10307931448E+02  0.24105488926E+02 -0.34587493944E+02  0.47787276683E+02  0.20000025708E+02 0.  0.
         12    1    3    3    0    0 -0.10307931448E+02 -0.24105488926E+02  0.34587493944E+02  0.43400723317E+02  0.00000000000E+00 0. -1.
         11    1    4    4    0    0 -0.16824003960E+01  0.28178296383E+01 -0.10684562334E+02  0.11177231656E+02  0.51100000000E-03 0. -1.
        -11    1    4    4    0    0  0.94037045489E+00  0.76034037951E+01 -0.15120443859E+02  0.16950630331E+02  0.51100000000E-03 0.  1.
         12    1    4    4    0    0  0.11049961389E+02  0.13684255493E+02 -0.87824877515E+01  0.19659414696E+02  0.00000000000E+00 0. -1.
</event>
<event>
 8    1  0.5542925E-011  0.9118800E+02  0.7816164E-02  0.1184000E+00
        -11   -1    0    0    0    0  0.00000000000E+00  0.00000000000E+00  0.45593999997E+02  0.45594000000E+02  0.51100000000E-03 0.  1.
         11   -1    0    0    0    0 -0.00000000000E+00 -0.00000000000E+00 -0.45593999997E+02  0.45594000000E+02  0.51100000000E-03 0. -1.
         23    2    1    2    0    0  0.00000000000E+00  0.71054273576E-14 -0.17763568394E-14  0.91188000000E+02  0.91188000000E+02 0.  0.
    9900012    2    3    3    0    0 -0.16683710846E+02 -0.39033624207E+02  0.90362208008E+01  0.47787270597E+02  0.19999997962E+02 0.  0.
        -12    1    3    3    0    0  0.16683710846E+02  0.39033624207E+02 -0.90362208008E+01  0.43400729403E+02  0.00000000000E+00 0.  1.
         11    1    4    4    0    0 -0.11542747005E+02 -0.19338327905E+02  0.29946880651E+01  0.22719465035E+02  0.51100000000E-03 0. -1.
        -11    1    4    4    0    0 -0.54127086295E+01 -0.70502621407E+01 -0.31529110395E+01  0.94310370185E+01  0.51100000000E-03 0.  1.
        -12    1    4    4    0    0  0.27174478916E+00 -0.12645034161E+02  0.91944437752E+01  0.15636768544E+02  0.00000000000E+00 0.  1.
</event>
<event>
 8    1  0.5542925E-011  0.9118800E+02  0.7816164E-02  0.1184000E+00
        -11   -1    0    0    0    0  0.00000000000E+00  0.00000000000E+00  0.45593999997E+02  0.45594000000E+02  0.51100000000E-03 0. -1.
         11   -1    0    0    0    0 -0.00000000000E+00 -0.00000000000E+00 -0.45593999997E+02  0.45594000000E+02  0.51100000000E-03 0.  1.
         23    2    1    2    0    0  0.00000000000E+00  0.71054273576E-14  0.17763568394E-14  0.91188000000E+02  0.91188000000E+02 0.  0.
    9900012    2    3    3    0    0 -0.10261113786E+02 -0.39866113799E+02  0.13748697876E+02  0.47787260618E+02  0.19999952463E+02 0.  0.
        -12    1    3    3    0    0  0.10261113786E+02  0.39866113799E+02 -0.13748697876E+02  0.43400739382E+02  0.00000000000E+00 0.  1.
         11    1    4    4    0    0 -0.10142728267E+02 -0.23228321650E+02  0.72953456773E+01  0.26375214353E+02  0.51100000000E-03 0. -1.
        -11    1    4    4    0    0 -0.56687956247E+01 -0.92446585136E+01  0.15718105753E+01  0.10957624908E+02  0.51100000000E-03 0.  1.
        -12    1    4    4    0    0  0.55504101055E+01 -0.73931336357E+01  0.48815416235E+01  0.10454421357E+02  0.00000000000E+00 0.  1.
</event>
<event>
 8    1  0.5542925E-011  0.9118800E+02  0.7816164E-02  0.1184000E+00
        -11   -1    0    0    0    0  0.00000000000E+00  0.00000000000E+00  0.45593999997E+02  0.45594000000E+02  0.51100000000E-03 0. -1.
         11   -1    0    0    0    0 -0.00000000000E+00 -0.00000000000E+00 -0.45593999997E+02  0.45594000000E+02  0.51100000000E-03 0.  1.
         23    2    1    2    0    0  0.88817841970E-15  0.00000000000E+00 -0.71054273576E-14  0.91188000000E+02  0.91188000000E+02 0.  0.
    9900012    2    3    3    0    0  0.45845794688E+01 -0.32724745964E+02 -0.28137089744E+02  0.47787272050E+02  0.20000004584E+02 0.  0.
         12    1    3    3    0    0 -0.45845794688E+01  0.32724745964E+02  0.28137089744E+02  0.43400727950E+02  0.00000000000E+00 0. -1.
         11    1    4    4    0    0 -0.26523320257E-01  0.15329152013E+00  0.16946326782E+01  0.17017584881E+01  0.51100000000E-03 0. -1.
        -11    1    4    4    0    0  0.13099596242E+01 -0.80133283089E+00  0.69153115898E+00  0.16841449248E+01  0.51100000000E-03 0.  1.
        -12    1    4    4    0    0  0.33011431649E+01 -0.32076704653E+02 -0.30523253582E+02  0.44401368637E+02  0.00000000000E+00 0.  1.
</event>
<event>
 8    1  0.5542925E-011  0.9118800E+02  0.7816164E-02  0.1184000E+00
        -11   -1    0    0    0    0  0.00000000000E+00  0.00000000000E+00  0.45593999997E+02  0.45594000000E+02  0.51100000000E-03 0. -1.
         11   -1    0    0    0    0 -0.00000000000E+00 -0.00000000000E+00 -0.45593999997E+02  0.45594000000E+02  0.51100000000E-03 0.  1.
         23    2    1    2    0    0  0.00000000000E+00 -0.17763568394E-14  0.00000000000E+00  0.91188000000E+02  0.91188000000E+02 0.  0.
    9900012    2    3    3    0    0  0.21338054690E+02 -0.84126326968E+01 -0.36844782557E+02  0.47787274562E+02  0.20000016039E+02 0.  0.
         12    1    3    3    0    0 -0.21338054690E+02  0.84126326968E+01  0.36844782557E+02  0.43400725438E+02  0.00000000000E+00 0. -1.
         11    1    4    4    0    0  0.80647378157E+01 -0.96715834627E+01 -0.17148797221E+02  0.21275825932E+02  0.51100000000E-03 0. -1.
        -11    1    4    4    0    0  0.32120056606E+01 -0.51701834782E+00 -0.14852544011E+02  0.15204681917E+02  0.51100000000E-03 0.  1.
         12    1    4    4    0    0  0.10061311214E+02  0.17759691137E+01 -0.48434413247E+01  0.11306766713E+02  0.00000000000E+00 0. -1.
</event>
<event>
 8    1  0.5542925E-011  0.9118800E+02  0.7816164E-02  0.1184000E+00
        -11   -1    0    0    0    0  0.00000000000E+00  0.00000000000E+00  0.45593999997E+02  0.45594000000E+02  0.51100000000E-03 0.  1.
         11   -1    0    0    0    0 -0.00000000000E+00 -0.00000000000E+00 -0.45593999997E+02  0.45594000000E+02  0.51100000000E-03 0. -1.
         23    2    1    2    0    0 -0.35527136788E-14  0.00000000000E+00  0.00000000000E+00  0.91188000000E+02  0.91188000000E+02 0.  0.
    9900012    2    3    3    0    0  0.31757839990E+02 -0.24100363375E+02  0.17153283619E+02  0.47787273571E+02  0.20000011519E+02 0.  0.
        -12    1    3    3    0    0 -0.31757839990E+02  0.24100363375E+02 -0.17153283619E+02  0.43400726429E+02  0.00000000000E+00 0.  1.
         11    1    4    4    0    0  0.20815472037E+02 -0.23352449025E+02  0.61180789086E+01  0.31875564958E+02  0.51100000000E-03 0. -1.
        -11    1    4    4    0    0  0.54237454111E+01 -0.17408624931E+01  0.42362988474E+01  0.70988622109E+01  0.51100000000E-03 0.  1.
         12    1    4    4    0    0  0.55186225424E+01  0.99294814264E+00  0.67989058628E+01  0.88128464023E+01  0.00000000000E+00 0. -1.
</event>
<event>
 8    1  0.5542925E-011  0.9118800E+02  0.7816164E-02  0.1184000E+00
        -11   -1    0    0    0    0  0.00000000000E+00  0.00000000000E+00  0.45593999997E+02  0.45594000000E+02  0.51100000000E-03 0. -1.
         11   -1    0    0    0    0 -0.00000000000E+00 -0.00000000000E+00 -0.45593999997E+02  0.45594000000E+02  0.51100000000E-03 0.  1.
         23    2    1    2    0    0 -0.17763568394E-14  0.00000000000E+00  0.00000000000E+00  0.91188000000E+02  0.91188000000E+02 0.  0.
    9900012    2    3    3    0    0  0.11240070621E+02 -0.13299815973E+02 -0.39754234223E+02  0.47787269233E+02  0.19999991740E+02 0.  0.
         12    1    3    3    0    0 -0.11240070621E+02  0.13299815973E+02  0.39754234223E+02  0.43400730767E+02  0.00000000000E+00 0. -1.
         11    1    4    4    0    0 -0.19266629840E+01 -0.23856192986E+01  0.63044084957E+00  0.31306014786E+01  0.51100000000E-03 0. -1.
        -11    1    4    4    0    0  0.97479524477E+00 -0.45662912333E+01 -0.15969588196E+02  0.16638178650E+02  0.51100000000E-03 0.  1.
        -12    1    4    4    0    0  0.12191938361E+02 -0.63479054412E+01 -0.24415086877E+02  0.28018489104E+02  0.00000000000E+00 0.  1.
</event>
<event>
 8    1  0.5542925E-011  0.9118800E+02  0.7816164E-02  0.1184000E+00
        -11   -1    0    0    0    0  0.00000000000E+00  0.00000000000E+00  0.45593999997E+02  0.45594000000E+02  0.51100000000E-03 0. -1.
         11   -1    0    0    0    0 -0.00000000000E+00 -0.00000000000E+00 -0.45593999997E+02  0.45594000000E+02  0.51100000000E-03 0.  1.
         23    2    1    2    0    0  0.35527136788E-14  0.00000000000E+00  0.00000000000E+00  0.91188000000E+02  0.91188000000E+02 0.  0.
    9900012    2    3    3    0    0  0.25149673688E+02  0.64807926825E+01 -0.34772354206E+02  0.47787269851E+02  0.19999994560E+02 0.  0.
         12    1    3    3    0    0 -0.25149673688E+02 -0.64807926825E+01  0.34772354206E+02  0.43400730149E+02  0.00000000000E+00 0. -1.
         11    1    4    4    0    0  0.16341469181E+02  0.53236280961E+01 -0.11960796548E+02  0.20939085114E+02  0.51100000000E-03 0.  1.
        -11    1    4    4    0    0  0.32782417473E+00  0.22257767852E+00  0.12539619344E+01  0.13150780610E+01  0.51100000000E-03 0. -1.
        -12    1    4    4    0    0  0.84803803321E+01  0.93458690783E+00 -0.24065519593E+02  0.25533106676E+02  0.00000000000E+00 0.  1.
</event>
<event>
 8    1  0.5542925E-011  0.9118800E+02  0.7816164E-02  0.1184000E+00
        -11   -1    0    0    0    0  0.00000000000E+00  0.00000000000E+00  0.45593999997E+02  0.45594000000E+02  0.51100000000E-03 0.  1.
         11   -1    0    0    0    0 -0.00000000000E+00 -0.00000000000E+00 -0.45593999997E+02  0.45594000000E+02  0.51100000000E-03 0. -1.
         23    2    1    2    0    0  0.00000000000E+00  0.00000000000E+00  0.88817841970E-15  0.91188000000E+02  0.91188000000E+02 0.  0.
    9900012    2    3    3    0    0  0.13104847137E+02 -0.40941741520E+02  0.59716125008E+01  0.47787269903E+02  0.19999994793E+02 0.  0.
        -12    1    3    3    0    0 -0.13104847137E+02  0.40941741520E+02 -0.59716125008E+01  0.43400730097E+02  0.00000000000E+00 0.  1.
         11    1    4    4    0    0  0.14784434960E+01  0.14801144758E+01  0.58001112557E+00  0.21709323341E+01  0.51100000000E-03 0. -1.
        -11    1    4    4    0    0 -0.19786472358E+01 -0.30071630569E+01  0.39697122549E+00  0.36215550458E+01  0.51100000000E-03 0.  1.
         12    1    4    4    0    0  0.13605050877E+02 -0.39414692938E+02  0.49946301497E+01  0.41994782523E+02  0.00000000000E+00 0. -1.
</event>
<event>
 8    1  0.5542925E-011  0.9118800E+02  0.7816164E-02  0.1184000E+00
        -11   -1    0    0    0    0  0.00000000000E+00  0.00000000000E+00  0.45593999997E+02  0.45594000000E+02  0.51100000000E-03 0. -1.
         11   -1    0    0    0    0 -0.00000000000E+00 -0.00000000000E+00 -0.45593999997E+02  0.45594000000E+02  0.51100000000E-03 0.  1.
         23    2    1    2    0    0  0.00000000000E+00  0.00000000000E+00 -0.35527136788E-14  0.91188000000E+02  0.91188000000E+02 0.  0.
    9900012    2    3    3    0    0 -0.29747494232E+02  0.11571964979E+02  0.29407470168E+02  0.47787273184E+02  0.20000009753E+02 0.  0.
        -12    1    3    3    0    0  0.29747494232E+02 -0.11571964979E+02 -0.29407470168E+02  0.43400726816E+02  0.00000000000E+00 0.  1.
         11    1    4    4    0    0  0.21450900630E+00  0.11831474876E+01  0.67315863610E+01  0.68381362437E+01  0.51100000000E-03 0. -1.
        -11    1    4    4    0    0 -0.86963887360E+01  0.90079840759E+01  0.10905365642E+02  0.16604154727E+02  0.51100000000E-03 0.  1.
        -12    1    4    4    0    0 -0.21265614502E+02  0.13808334156E+01  0.11770518164E+02  0.24344982212E+02  0.00000000000E+00 0.  1.
</event>
<event>
 8    1  0.5542925E-011  0.9118800E+02  0.7816164E-02  0.1184000E+00
        -11   -1    0    0    0    0  0.00000000000E+00  0.00000000000E+00  0.45593999997E+02  0.45594000000E+02  0.51100000000E-03 0. -1.
         11   -1    0    0    0    0 -0.00000000000E+00 -0.00000000000E+00 -0.45593999997E+02  0.45594000000E+02  0.51100000000E-03 0.  1.
         23    2    1    2    0    0  0.35527136788E-14  0.00000000000E+00  0.00000000000E+00  0.91188000000E+02  0.91188000000E+02 0.  0.
    9900012    2    3    3    0    0 -0.31742060396E+02 -0.17251036162E+02 -0.24051329045E+02  0.47787273328E+02  0.20000010410E+02 0.  0.
         12    1    3    3    0    0  0.31742060396E+02  0.17251036162E+02  0.24051329045E+02  0.43400726672E+02  0.00000000000E+00 0. -1.
         11    1    4    4    0    0 -0.10085496081E+02 -0.34671640918E+01 -0.47107475814E+01  0.11658885070E+02  0.51100000000E-03 0. -1.
        -11    1    4    4    0    0 -0.16926741223E+02 -0.54008874214E+01 -0.43145523458E+01  0.18283859428E+02  0.51100000000E-03 0.  1.
         12    1    4    4    0    0 -0.47298230921E+01 -0.83829846484E+01 -0.15026029118E+02  0.17844528830E+02  0.00000000000E+00 0. -1.
</event>
<event>
 8    1  0.5542925E-011  0.9118800E+02  0.7816164E-02  0.1184000E+00
        -11   -1    0    0    0    0  0.00000000000E+00  0.00000000000E+00  0.45593999997E+02  0.45594000000E+02  0.51100000000E-03 0. -1.
         11   -1    0    0    0    0 -0.00000000000E+00 -0.00000000000E+00 -0.45593999997E+02  0.45594000000E+02  0.51100000000E-03 0.  1.
         23    2    1    2    0    0  0.88817841970E-15  0.00000000000E+00 -0.71054273576E-14  0.91188000000E+02  0.91188000000E+02 0.  0.
    9900012    2    3    3    0    0 -0.67449443856E+01 -0.31982678796E+01  0.42753944080E+02  0.47787275045E+02  0.20000018240E+02 0.  0.
        -12    1    3    3    0    0  0.67449443856E+01  0.31982678796E+01 -0.42753944080E+02  0.43400724955E+02  0.00000000000E+00 0.  1.
         11    1    4    4    0    0 -0.86829346912E+00 -0.23899944389E+01  0.62746866539E+01  0.67703544835E+01  0.51100000000E-03 0. -1.
        -11    1    4    4    0    0 -0.12269146477E+01 -0.77635097512E+01  0.75367060472E+01  0.10889414195E+02  0.51100000000E-03 0.  1.
         12    1    4    4    0    0 -0.46497362688E+01  0.69552363105E+01  0.28942551379E+02  0.30127506366E+02  0.00000000000E+00 0. -1.
</event>
<event>
 8    1  0.5542925E-011  0.9118800E+02  0.7816164E-02  0.1184000E+00
        -11   -1    0    0    0    0  0.00000000000E+00  0.00000000000E+00  0.45593999997E+02  0.45594000000E+02  0.51100000000E-03 0. -1.
         11   -1    0    0    0    0 -0.00000000000E+00 -0.00000000000E+00 -0.45593999997E+02  0.45594000000E+02  0.51100000000E-03 0.  1.
         23    2    1    2    0    0  0.00000000000E+00  0.00000000000E+00 -0.35527136788E-14  0.91188000000E+02  0.91188000000E+02 0.  0.
    9900012    2    3    3    0    0 -0.27780206392E+02  0.22133994754E+02 -0.24939318445E+02  0.47787271948E+02  0.20000004121E+02 0.  0.
         12    1    3    3    0    0  0.27780206392E+02 -0.22133994754E+02  0.24939318445E+02  0.43400728052E+02  0.00000000000E+00 0. -1.
         11    1    4    4    0    0 -0.14428031564E+01  0.47014150216E+01 -0.29608229833E+01  0.57403359791E+01  0.51100000000E-03 0. -1.
        -11    1    4    4    0    0 -0.27547030882E+02  0.11734852753E+02 -0.17339594799E+02  0.34600682474E+02  0.51100000000E-03 0.  1.
        -12    1    4    4    0    0  0.12096276468E+01  0.56977269791E+01 -0.46389006618E+01  0.74462534957E+01  0.00000000000E+00 0.  1.
</event>
<event>
 8    1  0.5542925E-011  0.9118800E+02  0.7816164E-02  0.1184000E+00
        -11   -1    0    0    0    0  0.00000000000E+00  0.00000000000E+00  0.45593999997E+02  0.45594000000E+02  0.51100000000E-03 0. -1.
         11   -1    0    0    0    0 -0.00000000000E+00 -0.00000000000E+00 -0.45593999997E+02  0.45594000000E+02  0.51100000000E-03 0.  1.
         23    2    1    2    0    0  0.00000000000E+00  0.55511151231E-16  0.00000000000E+00  0.91188000000E+02  0.91188000000E+02 0.  0.
    9900012    2    3    3    0    0  0.41136924737E+02  0.45433079465E+00  0.13826438587E+02  0.47787269623E+02  0.19999993517E+02 0.  0.
        -12    1    3    3    0    0 -0.41136924737E+02 -0.45433079465E+00 -0.13826438587E+02  0.43400730377E+02  0.00000000000E+00 0.  1.
         11    1    4    4    0    0  0.11017232112E+02 -0.12873294208E+00  0.23005762338E+01  0.11255604241E+02  0.51100000000E-03 0.  1.
        -11    1    4    4    0    0  0.31648338812E+02 -0.17623939807E+01  0.95491697951E+01  0.33104531807E+02  0.51100000000E-03 0. -1.
         12    1    4    4    0    0 -0.15286461866E+01  0.23454577174E+01  0.19766925585E+01  0.34271335747E+01  0.00000000000E+00 0. -1.
</event>
<event>
 8    1  0.5542925E-011  0.9118800E+02  0.7816164E-02  0.1184000E+00
        -11   -1    0    0    0    0  0.00000000000E+00  0.00000000000E+00  0.45593999997E+02  0.45594000000E+02  0.51100000000E-03 0.  1.
         11   -1    0    0    0    0 -0.00000000000E+00 -0.00000000000E+00 -0.45593999997E+02  0.45594000000E+02  0.51100000000E-03 0. -1.
         23    2    1    2    0    0  0.00000000000E+00 -0.71054273576E-14  0.17763568394E-14  0.91188000000E+02  0.91188000000E+02 0.  0.
    9900012    2    3    3    0    0  0.18659539039E+02  0.38296935517E+02 -0.82939522462E+01  0.47787270617E+02  0.19999998050E+02 0.  0.
         12    1    3    3    0    0 -0.18659539039E+02 -0.38296935517E+02  0.82939522462E+01  0.43400729383E+02  0.00000000000E+00 0. -1.
         11    1    4    4    0    0  0.66740824563E+01  0.66156912051E+01 -0.37720599907E+01  0.10126163320E+02  0.51100000000E-03 0. -1.
        -11    1    4    4    0    0 -0.20656444651E+01  0.91888322940E+01 -0.58848027145E+01  0.11105513461E+02  0.51100000000E-03 0.  1.
        -12    1    4    4    0    0  0.14051101048E+02  0.22492412018E+02  0.13629104591E+01  0.26555593835E+02  0.00000000000E+00 0.  1.
</event>
<event>
 8    1  0.5804839E-011  0.9118800E+02  0.7816164E-02  0.1184000E+00
        -11   -1    0    0    0    0  0.00000000000E+00  0.00000000000E+00  0.45593999997E+02  0.45594000000E+02  0.51100000000E-03 0. -1.
         11   -1    0    0    0    0 -0.00000000000E+00 -0.00000000000E+00 -0.45593999997E+02  0.45594000000E+02  0.51100000000E-03 0.  1.
         23    2    1    2    0    0 -0.17763568394E-14  0.00000000000E+00 -0.71054273576E-14  0.91188000000E+02  0.91188000000E+02 0.  0.
    9900012    2    3    3    0    0  0.12695633335E+02  0.18208499983E+02  0.37294699249E+02  0.47787272247E+02  0.20000005484E+02 0.  0.
        -12    1    3    3    0    0 -0.12695633335E+02 -0.18208499983E+02 -0.37294699249E+02  0.43400727753E+02  0.00000000000E+00 0.  1.
         11    1    4    4    0    0 -0.78486044195E+00  0.62714554804E-01  0.43325312928E+01  0.44034948272E+01  0.51100000000E-03 0. -1.
        -11    1    4    4    0    0 -0.16895652074E+01 -0.10948841459E+01 -0.33737967936E+00  0.20413787478E+01  0.51100000000E-03 0.  1.
         12    1    4    4    0    0  0.15170058984E+02  0.19240669574E+02  0.33299547636E+02  0.41342398672E+02  0.00000000000E+00 0. -1.
</event>
<event>
 8    1  0.5542925E-011  0.9118800E+02  0.7816164E-02  0.1184000E+00
        -11   -1    0    0    0    0  0.00000000000E+00  0.00000000000E+00  0.45593999997E+02  0.45594000000E+02  0.51100000000E-03 0. -1.
         11   -1    0    0    0    0 -0.00000000000E+00 -0.00000000000E+00 -0.45593999997E+02  0.45594000000E+02  0.51100000000E-03 0.  1.
         23    2    1    2    0    0 -0.11379786002E-14  0.00000000000E+00  0.00000000000E+00  0.91188000000E+02  0.91188000000E+02 0.  0.
    9900012    2    3    3    0    0  0.12616667836E+00 -0.39384530708E+02 -0.18233656145E+02  0.47787269666E+02  0.19999993715E+02 0.  0.
         12    1    3    3    0    0 -0.12616667836E+00  0.39384530708E+02  0.18233656145E+02  0.43400730334E+02  0.00000000000E+00 0. -1.
         11    1    4    4    0    0 -0.40487481118E+01 -0.10772400993E+02 -0.72468594532E+01  0.13599777815E+02  0.51100000000E-03 0. -1.
        -11    1    4    4    0    0 -0.33496366211E+01 -0.56054599521E+01  0.18518796358E+01  0.67875404392E+01  0.51100000000E-03 0.  1.
        -12    1    4    4    0    0  0.75245514112E+01 -0.23006669763E+02 -0.12838676327E+02  0.27399951411E+02  0.00000000000E+00 0.  1.
</event>
<event>
 8    1  0.5542925E-011  0.9118800E+02  0.7816164E-02  0.1184000E+00
        -11   -1    0    0    0    0  0.00000000000E+00  0.00000000000E+00  0.45593999997E+02  0.45594000000E+02  0.51100000000E-03 0. -1.
         11   -1    0    0    0    0 -0.00000000000E+00 -0.00000000000E+00 -0.45593999997E+02  0.45594000000E+02  0.51100000000E-03 0.  1.
         23    2    1    2    0    0 -0.35527136788E-14  0.16653345369E-15 -0.71054273576E-14  0.91188000000E+02  0.91188000000E+02 0.  0.
    9900012    2    3    3    0    0 -0.26037573220E+02  0.20212355148E+00 -0.34722139509E+02  0.47787273679E+02  0.20000012011E+02 0.  0.
         12    1    3    3    0    0  0.26037573220E+02 -0.20212355148E+00  0.34722139509E+02  0.43400726321E+02  0.00000000000E+00 0. -1.
         11    1    4    4    0    0 -0.17944971836E+02 -0.11895687641E+01 -0.25335211308E+02  0.31069438687E+02  0.51100000000E-03 0.  1.
        -11    1    4    4    0    0 -0.40551857120E+01  0.38558093282E+01 -0.10464515436E+02  0.11866670986E+02  0.51100000000E-03 0. -1.
         12    1    4    4    0    0 -0.40374156716E+01 -0.24641170126E+01  0.10775872347E+01  0.48511640052E+01  0.00000000000E+00 0. -1.
</event>
<event>
 8    1  0.5542925E-011  0.9118800E+02  0.7816164E-02  0.1184000E+00
        -11   -1    0    0    0    0  0.00000000000E+00  0.00000000000E+00  0.45593999997E+02  0.45594000000E+02  0.51100000000E-03 0. -1.
         11   -1    0    0    0    0 -0.00000000000E+00 -0.00000000000E+00 -0.45593999997E+02  0.45594000000E+02  0.51100000000E-03 0.  1.
         23    2    1    2    0    0  0.00000000000E+00 -0.19984014443E-14  0.71054273576E-14  0.91188000000E+02  0.91188000000E+02 0.  0.
    9900012    2    3    3    0    0  0.20290072943E+02  0.19131158832E+01 -0.38318093853E+02  0.47787269719E+02  0.19999993955E+02 0.  0.
         12    1    3    3    0    0 -0.20290072943E+02 -0.19131158832E+01  0.38318093853E+02  0.43400730281E+02  0.00000000000E+00 0. -1.
         11    1    4    4    0    0  0.10961888904E+01  0.45174529728E+01 -0.13195471716E+01  0.48322061674E+01  0.51100000000E-03 0. -1.
        -11    1    4    4    0    0  0.53781450832E+01  0.37571480157E+01 -0.12552266591E+02  0.14163333032E+02  0.51100000000E-03 0.  1.
         12    1    4    4    0    0  0.13815738969E+02 -0.63614851053E+01 -0.24446280091E+02  0.28791730519E+02  0.00000000000E+00 0. -1.
</event>
<event>
 8    1  0.5542925E-011  0.9118800E+02  0.7816164E-02  0.1184000E+00
        -11   -1    0    0    0    0  0.00000000000E+00  0.00000000000E+00  0.45593999997E+02  0.45594000000E+02  0.51100000000E-03 0. -1.
         11   -1    0    0    0    0 -0.00000000000E+00 -0.00000000000E+00 -0.45593999997E+02  0.45594000000E+02  0.51100000000E-03 0.  1.
         23    2    1    2    0    0  0.00000000000E+00  0.00000000000E+00  0.00000000000E+00  0.91188000000E+02  0.91188000000E+02 0.  0.
    9900012    2    3    3    0    0 -0.33657168495E+02  0.90390813740E+01 -0.25867228598E+02  0.47787268456E+02  0.19999988200E+02 0.  0.
         12    1    3    3    0    0  0.33657168495E+02 -0.90390813740E+01  0.25867228598E+02  0.43400731544E+02  0.00000000000E+00 0. -1.
         11    1    4    4    0    0 -0.11097940744E+02 -0.14652598099E+01 -0.15400366734E+02  0.19038975047E+02  0.51100000000E-03 0. -1.
        -11    1    4    4    0    0 -0.51496073267E+01  0.73375248460E+01 -0.47956447158E+01  0.10166412100E+02  0.51100000000E-03 0.  1.
        -12    1    4    4    0    0 -0.17409620424E+02  0.31668163379E+01 -0.56712171486E+01  0.18581881309E+02  0.00000000000E+00 0.  1.
</event>
<event>
 8    1  0.5542925E-011  0.9118800E+02  0.7816164E-02  0.1184000E+00
        -11   -1    0    0    0    0  0.00000000000E+00  0.00000000000E+00  0.45593999997E+02  0.45594000000E+02  0.51100000000E-03 0. -1.
         11   -1    0    0    0    0 -0.00000000000E+00 -0.00000000000E+00 -0.45593999997E+02  0.45594000000E+02  0.51100000000E-03 0.  1.
         23    2    1    2    0    0  0.35527136788E-14  0.00000000000E+00  0.00000000000E+00  0.91188000000E+02  0.91188000000E+02 0.  0.
    9900012    2    3    3    0    0  0.29582522927E+02  0.25201745887E+02 -0.19322773555E+02  0.47787271477E+02  0.20000001973E+02 0.  0.
         12    1    3    3    0    0 -0.29582522927E+02 -0.25201745887E+02  0.19322773555E+02  0.43400728523E+02  0.00000000000E+00 0. -1.
         11    1    4    4    0    0  0.27896354513E+02  0.15920247343E+02 -0.11560972553E+02  0.34136739112E+02  0.51100000000E-03 0. -1.
        -11    1    4    4    0    0  0.17194020119E+01  0.13280092058E+01 -0.46080719420E+01  0.50945342293E+01  0.51100000000E-03 0.  1.
         12    1    4    4    0    0 -0.33233598133E-01  0.79534893372E+01 -0.31537290602E+01  0.85559981355E+01  0.00000000000E+00 0. -1.
</event>
<event>
 8    1  0.5542925E-011  0.9118800E+02  0.7816164E-02  0.1184000E+00
        -11   -1    0    0    0    0  0.00000000000E+00  0.00000000000E+00  0.45593999997E+02  0.45594000000E+02  0.51100000000E-03 0. -1.
         11   -1    0    0    0    0 -0.00000000000E+00 -0.00000000000E+00 -0.45593999997E+02  0.45594000000E+02  0.51100000000E-03 0.  1.
         23    2    1    2    0    0  0.00000000000E+00  0.17763568394E-14  0.00000000000E+00  0.91188000000E+02  0.91188000000E+02 0.  0.
    9900012    2    3    3    0    0 -0.31092770410E+02 -0.86294204688E+01 -0.29024078199E+02  0.47787258247E+02  0.19999941653E+02 0.  0.
         12    1    3    3    0    0  0.31092770410E+02  0.86294204688E+01  0.29024078199E+02  0.43400741753E+02  0.00000000000E+00 0. -1.
         11    1    4    4    0    0 -0.12021592606E+02 -0.21794831935E+01 -0.22699225373E+01  0.12426640107E+02  0.51100000000E-03 0.  1.
        -11    1    4    4    0    0 -0.17975493260E+02 -0.25267282564E+01 -0.17341487026E+02  0.25104379820E+02  0.51100000000E-03 0. -1.
         12    1    4    4    0    0 -0.10956845438E+01 -0.39232090189E+01 -0.94126686359E+01  0.10256238320E+02  0.00000000000E+00 0. -1.
</event>
<event>
 8    1  0.5542925E-011  0.9118800E+02  0.7816164E-02  0.1184000E+00
        -11   -1    0    0    0    0  0.00000000000E+00  0.00000000000E+00  0.45593999997E+02  0.45594000000E+02  0.51100000000E-03 0. -1.
         11   -1    0    0    0    0 -0.00000000000E+00 -0.00000000000E+00 -0.45593999997E+02  0.45594000000E+02  0.51100000000E-03 0.  1.
         23    2    1    2    0    0  0.00000000000E+00 -0.17763568394E-14  0.00000000000E+00  0.91188000000E+02  0.91188000000E+02 0.  0.
    9900012    2    3    3    0    0  0.34112981134E+02 -0.11692777749E+02 -0.24149672286E+02  0.47787271839E+02  0.20000003623E+02 0.  0.
         12    1    3    3    0    0 -0.34112981134E+02  0.11692777749E+02  0.24149672286E+02  0.43400728161E+02  0.00000000000E+00 0. -1.
         11    1    4    4    0    0  0.15598191543E+00  0.31504104726E+00  0.12668806264E+00  0.37367277896E+00  0.51100000000E-03 0. -1.
        -11    1    4    4    0    0  0.69979543483E+01 -0.11844812098E+02 -0.87044260288E+01  0.16279986838E+02  0.51100000000E-03 0.  1.
        -12    1    4    4    0    0  0.26959044871E+02 -0.16300669841E+00 -0.15571934320E+02  0.31133612222E+02  0.00000000000E+00 0.  1.
</event>
<event>
 8    1  0.5542925E-011  0.9118800E+02  0.7816164E-02  0.1184000E+00
        -11   -1    0    0    0    0  0.00000000000E+00  0.00000000000E+00  0.45593999997E+02  0.45594000000E+02  0.51100000000E-03 0. -1.
         11   -1    0    0    0    0 -0.00000000000E+00 -0.00000000000E+00 -0.45593999997E+02  0.45594000000E+02  0.51100000000E-03 0.  1.
         23    2    1    2    0    0  0.00000000000E+00  0.00000000000E+00  0.00000000000E+00  0.91188000000E+02  0.91188000000E+02 0.  0.
    9900012    2    3    3    0    0 -0.95408699145E+01 -0.41444592388E+02 -0.86568551170E+01  0.47787267547E+02  0.19999984053E+02 0.  0.
         12    1    3    3    0    0  0.95408699145E+01  0.41444592388E+02  0.86568551170E+01  0.43400732453E+02  0.00000000000E+00 0. -1.
         11    1    4    4    0    0 -0.84486830871E+01 -0.10565558478E+02  0.42046711035E+01  0.14166528552E+02  0.51100000000E-03 0. -1.
        -11    1    4    4    0    0  0.10280428000E+01 -0.60395942048E+01 -0.22513584518E+01  0.65270349545E+01  0.51100000000E-03 0.  1.
         12    1    4    4    0    0 -0.21202296274E+01 -0.24839439705E+02 -0.10610167769E+02  0.27093704040E+02  0.00000000000E+00 0. -1.
</event>
<event>
 8    1  0.5542925E-011  0.9118800E+02  0.7816164E-02  0.1184000E+00
        -11   -1    0    0    0    0  0.00000000000E+00  0.00000000000E+00  0.45593999997E+02  0.45594000000E+02  0.51100000000E-03 0. -1.
         11   -1    0    0    0    0 -0.00000000000E+00 -0.00000000000E+00 -0.45593999997E+02  0.45594000000E+02  0.51100000000E-03 0.  1.
         23    2    1    2    0    0  0.00000000000E+00  0.00000000000E+00 -0.71054273576E-14  0.91188000000E+02  0.91188000000E+02 0.  0.
    9900012    2    3    3    0    0  0.22413841350E+02 -0.17128905242E+02  0.32982473520E+02  0.47787271454E+02  0.20000001867E+02 0.  0.
        -12    1    3    3    0    0 -0.22413841350E+02  0.17128905242E+02 -0.32982473520E+02  0.43400728546E+02  0.00000000000E+00 0.  1.
         11    1    4    4    0    0  0.31620150865E+00 -0.43825697661E+01  0.65010843769E+01  0.78467190268E+01  0.51100000000E-03 0. -1.
        -11    1    4    4    0    0  0.16648161248E+02 -0.13674358598E+02  0.12504208210E+02  0.24909929330E+02  0.51100000000E-03 0.  1.
         12    1    4    4    0    0  0.54494785935E+01  0.92802312223E+00  0.13977180933E+02  0.15030623097E+02  0.00000000000E+00 0. -1.
</event>
<event>
 8    1  0.5542925E-011  0.9118800E+02  0.7816164E-02  0.1184000E+00
        -11   -1    0    0    0    0  0.00000000000E+00  0.00000000000E+00  0.45593999997E+02  0.45594000000E+02  0.51100000000E-03 0. -1.
         11   -1    0    0    0    0 -0.00000000000E+00 -0.00000000000E+00 -0.45593999997E+02  0.45594000000E+02  0.51100000000E-03 0.  1.
         23    2    1    2    0    0 -0.17763568394E-14  0.71054273576E-14  0.00000000000E+00  0.91188000000E+02  0.91188000000E+02 0.  0.
    9900012    2    3    3    0    0  0.10736394343E+02 -0.37090357105E+02  0.19815591054E+02  0.47787281083E+02  0.20000045770E+02 0.  0.
        -12    1    3    3    0    0 -0.10736394343E+02  0.37090357105E+02 -0.19815591054E+02  0.43400718917E+02  0.00000000000E+00 0.  1.
         11    1    4    4    0    0 -0.12223923326E+00 -0.17219577506E+01  0.20014449225E+01  0.26430783121E+01  0.51100000000E-03 0. -1.
        -11    1    4    4    0    0  0.77367525773E+01 -0.26993230152E+01  0.95630858852E+00  0.82497400904E+01  0.51100000000E-03 0.  1.
        -12    1    4    4    0    0  0.31218809990E+01 -0.32669076339E+02  0.16857837543E+02  0.36894462680E+02  0.00000000000E+00 0.  1.
</event>
<event>
 8    1  0.5542925E-011  0.9118800E+02  0.7816164E-02  0.1184000E+00
        -11   -1    0    0    0    0  0.00000000000E+00  0.00000000000E+00  0.45593999997E+02  0.45594000000E+02  0.51100000000E-03 0. -1.
         11   -1    0    0    0    0 -0.00000000000E+00 -0.00000000000E+00 -0.45593999997E+02  0.45594000000E+02  0.51100000000E-03 0.  1.
         23    2    1    2    0    0 -0.35527136788E-14  0.00000000000E+00  0.00000000000E+00  0.91188000000E+02  0.91188000000E+02 0.  0.
    9900012    2    3    3    0    0 -0.25305645201E+02 -0.17266789580E+02  0.30742563301E+02  0.47787275355E+02  0.20000019652E+02 0.  0.
        -12    1    3    3    0    0  0.25305645201E+02  0.17266789580E+02 -0.30742563301E+02  0.43400724645E+02  0.00000000000E+00 0.  1.
         11    1    4    4    0    0 -0.15531543029E+02 -0.12148967630E+02  0.62670615593E+01  0.20690633248E+02  0.51100000000E-03 0.  1.
        -11    1    4    4    0    0 -0.13713017607E+01 -0.19572517533E+01  0.31141349410E+01  0.39254476989E+01  0.51100000000E-03 0. -1.
        -12    1    4    4    0    0 -0.84028004109E+01 -0.31605701968E+01  0.21361366800E+02  0.23171194408E+02  0.00000000000E+00 0.  1.
</event>
<event>
 8    1  0.5542925E-011  0.9118800E+02  0.7816164E-02  0.1184000E+00
        -11   -1    0    0    0    0  0.00000000000E+00  0.00000000000E+00  0.45593999997E+02  0.45594000000E+02  0.51100000000E-03 0. -1.
         11   -1    0    0    0    0 -0.00000000000E+00 -0.00000000000E+00 -0.45593999997E+02  0.45594000000E+02  0.51100000000E-03 0.  1.
         23    2    1    2    0    0  0.00000000000E+00  0.00000000000E+00 -0.35527136788E-14  0.91188000000E+02  0.91188000000E+02 0.  0.
    9900012    2    3    3    0    0 -0.12550749215E+02 -0.33043517494E+02  0.25183882702E+02  0.47787270718E+02  0.19999998512E+02 0.  0.
        -12    1    3    3    0    0  0.12550749215E+02  0.33043517494E+02 -0.25183882702E+02  0.43400729282E+02  0.00000000000E+00 0.  1.
         11    1    4    4    0    0 -0.38720443862E+01 -0.24833791790E+02  0.23475575985E+02  0.34392042837E+02  0.51100000000E-03 0. -1.
        -11    1    4    4    0    0 -0.28308406480E+01 -0.21018401487E+01  0.32554222352E+01  0.47988712189E+01  0.51100000000E-03 0.  1.
        -12    1    4    4    0    0 -0.58478641811E+01 -0.61078855549E+01 -0.15471155183E+01  0.85963566619E+01  0.00000000000E+00 0.  1.
</event>
<event>
 8    1  0.5542925E-011  0.9118800E+02  0.7816164E-02  0.1184000E+00
        -11   -1    0    0    0    0  0.00000000000E+00  0.00000000000E+00  0.45593999997E+02  0.45594000000E+02  0.51100000000E-03 0.  1.
         11   -1    0    0    0    0 -0.00000000000E+00 -0.00000000000E+00 -0.45593999997E+02  0.45594000000E+02  0.51100000000E-03 0. -1.
         23    2    1    2    0    0  0.88817841970E-15  0.00000000000E+00  0.00000000000E+00  0.91188000000E+02  0.91188000000E+02 0.  0.
    9900012    2    3    3    0    0  0.76328480301E+01  0.41561962993E+02  0.98977922400E+01  0.47787269267E+02  0.19999991897E+02 0.  0.
         12    1    3    3    0    0 -0.76328480301E+01 -0.41561962993E+02 -0.98977922400E+01  0.43400730733E+02  0.00000000000E+00 0. -1.
         11    1    4    4    0    0 -0.13199205578E+01 -0.90977355466E+00  0.25935999807E+01  0.30490390815E+01  0.51100000000E-03 0. -1.
        -11    1    4    4    0    0 -0.10285000254E+01  0.91150200010E+00  0.47521943470E+00  0.14541258441E+01  0.51100000000E-03 0.  1.
        -12    1    4    4    0    0  0.99812686132E+01  0.41560234548E+02  0.68289728246E+01  0.43284104342E+02  0.00000000000E+00 0.  1.
</event>
<event>
 8    1  0.5542925E-011  0.9118800E+02  0.7816164E-02  0.1184000E+00
        -11   -1    0    0    0    0  0.00000000000E+00  0.00000000000E+00  0.45593999997E+02  0.45594000000E+02  0.51100000000E-03 0. -1.
         11   -1    0    0    0    0 -0.00000000000E+00 -0.00000000000E+00 -0.45593999997E+02  0.45594000000E+02  0.51100000000E-03 0.  1.
         23    2    1    2    0    0  0.00000000000E+00  0.00000000000E+00  0.00000000000E+00  0.91188000000E+02  0.91188000000E+02 0.  0.
    9900012    2    3    3    0    0 -0.31681031922E+02  0.28560617096E+01 -0.29525896239E+02  0.47787269352E+02  0.19999992282E+02 0.  0.
         12    1    3    3    0    0  0.31681031922E+02 -0.28560617096E+01  0.29525896239E+02  0.43400730648E+02  0.00000000000E+00 0. -1.
         11    1    4    4    0    0 -0.70838551927E+01 -0.22328347674E+01  0.34303668133E+00  0.74353365704E+01  0.51100000000E-03 0. -1.
        -11    1    4    4    0    0 -0.91402880583E+01  0.97932441548E+00 -0.41969356798E+01  0.10105355583E+02  0.51100000000E-03 0.  1.
         12    1    4    4    0    0 -0.15456888671E+02  0.41095720615E+01 -0.25671997240E+02  0.30246577198E+02  0.00000000000E+00 0. -1.
</event>
<event>
 8    1  0.5542925E-011  0.9118800E+02  0.7816164E-02  0.1184000E+00
        -11   -1    0    0    0    0  0.00000000000E+00  0.00000000000E+00  0.45593999997E+02  0.45594000000E+02  0.51100000000E-03 0. -1.
         11   -1    0    0    0    0 -0.00000000000E+00 -0.00000000000E+00 -0.45593999997E+02  0.45594000000E+02  0.51100000000E-03 0.  1.
         23    2    1    2    0    0  0.35527136788E-14 -0.88817841970E-15  0.00000000000E+00  0.91188000000E+02  0.91188000000E+02 0.  0.
    9900012    2    3    3    0    0 -0.23494897703E+02  0.44412213599E+01 -0.36220000651E+02  0.47787272905E+02  0.20000008481E+02 0.  0.
         12    1    3    3    0    0  0.23494897703E+02 -0.44412213599E+01  0.36220000651E+02  0.43400727095E+02  0.00000000000E+00 0. -1.
         11    1    4    4    0    0 -0.10643213975E+01 -0.12050276124E+01  0.15934468912E+01  0.22636132267E+01  0.51100000000E-03 0. -1.
        -11    1    4    4    0    0 -0.13483875632E+02  0.78895219153E+01 -0.19221280672E+02  0.24769277120E+02  0.51100000000E-03 0.  1.
         12    1    4    4    0    0 -0.89467006736E+01 -0.22432729430E+01 -0.18592166870E+02  0.20754382558E+02  0.00000000000E+00 0. -1.
</event>
<event>
 8    1  0.5542925E-011  0.9118800E+02  0.7816164E-02  0.1184000E+00
        -11   -1    0    0    0    0  0.00000000000E+00  0.00000000000E+00  0.45593999997E+02  0.45594000000E+02  0.51100000000E-03 0. -1.
         11   -1    0    0    0    0 -0.00000000000E+00 -0.00000000000E+00 -0.45593999997E+02  0.45594000000E+02  0.51100000000E-03 0.  1.
         23    2    1    2    0    0  0.00000000000E+00  0.00000000000E+00  0.00000000000E+00  0.91188000000E+02  0.91188000000E+02 0.  0.
    9900012    2    3    3    0    0 -0.35044261060E+02 -0.82362751845E+01  0.24242263940E+02  0.47787264717E+02  0.19999971152E+02 0.  0.
        -12    1    3    3    0    0  0.35044261060E+02  0.82362751845E+01 -0.24242263940E+02  0.43400735283E+02  0.00000000000E+00 0.  1.
         11    1    4    4    0    0 -0.15940258407E+02  0.60567328682E+00  0.10022100072E+02  0.18838820779E+02  0.51100000000E-03 0. -1.
        -11    1    4    4    0    0 -0.19540236271E+02 -0.77955309189E+01  0.16277258827E+02  0.26599629528E+02  0.51100000000E-03 0.  1.
         12    1    4    4    0    0  0.43623361844E+00 -0.10464175524E+01 -0.20570949593E+01  0.23488144106E+01  0.00000000000E+00 0. -1.
</event>
<event>
 8    1  0.5542925E-011  0.9118800E+02  0.7816164E-02  0.1184000E+00
        -11   -1    0    0    0    0  0.00000000000E+00  0.00000000000E+00  0.45593999997E+02  0.45594000000E+02  0.51100000000E-03 0.  1.
         11   -1    0    0    0    0 -0.00000000000E+00 -0.00000000000E+00 -0.45593999997E+02  0.45594000000E+02  0.51100000000E-03 0. -1.
         23    2    1    2    0    0 -0.17763568394E-14 -0.71054273576E-14 -0.44408920985E-15  0.91188000000E+02  0.91188000000E+02 0.  0.
    9900012    2    3    3    0    0  0.45041063991E+01  0.43063272176E+02  0.29818175041E+01  0.47787267050E+02  0.19999981788E+02 0.  0.
        -12    1    3    3    0    0 -0.45041063991E+01 -0.43063272176E+02 -0.29818175041E+01  0.43400732950E+02  0.00000000000E+00 0.  1.
         11    1    4    4    0    0  0.27319252408E+01  0.27500108929E+02 -0.15695102548E+01  0.27680006671E+02  0.51100000000E-03 0. -1.
        -11    1    4    4    0    0  0.21795650595E+01  0.11271711670E+02  0.84816306708E+01  0.14273753778E+02  0.51100000000E-03 0.  1.
         12    1    4    4    0    0 -0.40738390122E+00  0.42914515776E+01 -0.39303029118E+01  0.58335066010E+01  0.00000000000E+00 0. -1.
</event>
<event>
 8    1  0.5542925E-011  0.9118800E+02  0.7816164E-02  0.1184000E+00
        -11   -1    0    0    0    0  0.00000000000E+00  0.00000000000E+00  0.45593999997E+02  0.45594000000E+02  0.51100000000E-03 0. -1.
         11   -1    0    0    0    0 -0.00000000000E+00 -0.00000000000E+00 -0.45593999997E+02  0.45594000000E+02  0.51100000000E-03 0.  1.
         23    2    1    2    0    0  0.00000000000E+00 -0.35527136788E-14  0.00000000000E+00  0.91188000000E+02  0.91188000000E+02 0.  0.
    9900012    2    3    3    0    0  0.12635603576E+02  0.28926264030E+02 -0.29786507778E+02  0.47787271042E+02  0.19999999990E+02 0.  0.
         12    1    3    3    0    0 -0.12635603576E+02 -0.28926264030E+02  0.29786507778E+02  0.43400728958E+02  0.00000000000E+00 0. -1.
         11    1    4    4    0    0 -0.67202580830E+00  0.15048092622E+01 -0.91423899967E+01  0.92897451373E+01  0.51100000000E-03 0.  1.
        -11    1    4    4    0    0  0.38064877913E+01  0.90810217810E+01 -0.13357741247E+02  0.16594684612E+02  0.51100000000E-03 0. -1.
         12    1    4    4    0    0  0.95011415931E+01  0.18340432987E+02 -0.72863765344E+01  0.21902841293E+02  0.00000000000E+00 0. -1.
</event>
<event>
 8    1  0.5542925E-011  0.9118800E+02  0.7816164E-02  0.1184000E+00
        -11   -1    0    0    0    0  0.00000000000E+00  0.00000000000E+00  0.45593999997E+02  0.45594000000E+02  0.51100000000E-03 0. -1.
         11   -1    0    0    0    0 -0.00000000000E+00 -0.00000000000E+00 -0.45593999997E+02  0.45594000000E+02  0.51100000000E-03 0.  1.
         23    2    1    2    0    0 -0.17763568394E-14  0.22204460493E-15  0.00000000000E+00  0.91188000000E+02  0.91188000000E+02 0.  0.
    9900012    2    3    3    0    0 -0.11934304210E+02 -0.10992533311E+01 -0.41713150391E+02  0.47787275462E+02  0.20000020140E+02 0.  0.
         12    1    3    3    0    0  0.11934304210E+02  0.10992533311E+01  0.41713150391E+02  0.43400724538E+02  0.00000000000E+00 0. -1.
         11    1    4    4    0    0  0.75528871548E+00  0.12805623402E+01 -0.80264593225E+01  0.81629866145E+01  0.51100000000E-03 0. -1.
        -11    1    4    4    0    0 -0.12094454862E+00  0.12313494773E+01 -0.22153278570E+02  0.22187802973E+02  0.51100000000E-03 0.  1.
         12    1    4    4    0    0 -0.12568648377E+02 -0.36111651486E+01 -0.11533412499E+02  0.17436485874E+02  0.00000000000E+00 0. -1.
</event>
<event>
 8    1  0.5542925E-011  0.9118800E+02  0.7816164E-02  0.1184000E+00
        -11   -1    0    0    0    0  0.00000000000E+00  0.00000000000E+00  0.45593999997E+02  0.45594000000E+02  0.51100000000E-03 0.  1.
         11   -1    0    0    0    0 -0.00000000000E+00 -0.00000000000E+00 -0.45593999997E+02  0.45594000000E+02  0.51100000000E-03 0. -1.
         23    2    1    2    0    0  0.00000000000E+00 -0.27755575616E-16  0.00000000000E+00  0.91188000000E+02  0.91188000000E+02 0.  0.
    9900012    2    3    3    0    0  0.34544701058E+02 -0.20696949333E+00  0.26272493605E+02  0.47787272727E+02  0.20000007673E+02 0.  0.
        -12    1    3    3    0    0 -0.34544701058E+02  0.20696949333E+00 -0.26272493605E+02  0.43400727273E+02  0.00000000000E+00 0.  1.
         11    1    4    4    0    0  0.55000305675E+01  0.48857034425E+01  0.82605519963E+01  0.11061516800E+02  0.51100000000E-03 0. -1.
        -11    1    4    4    0    0  0.35560575516E+01 -0.24376663789E+01 -0.14479839564E+01  0.45480128060E+01  0.51100000000E-03 0.  1.
        -12    1    4    4    0    0  0.25488612939E+02 -0.26550065569E+01  0.19459925565E+02  0.32177743121E+02  0.00000000000E+00 0.  1.
</event>
<event>
 8    1  0.5542925E-011  0.9118800E+02  0.7816164E-02  0.1184000E+00
        -11   -1    0    0    0    0  0.00000000000E+00  0.00000000000E+00  0.45593999997E+02  0.45594000000E+02  0.51100000000E-03 0. -1.
         11   -1    0    0    0    0 -0.00000000000E+00 -0.00000000000E+00 -0.45593999997E+02  0.45594000000E+02  0.51100000000E-03 0.  1.
         23    2    1    2    0    0  0.00000000000E+00  0.00000000000E+00  0.00000000000E+00  0.91188000000E+02  0.91188000000E+02 0.  0.
    9900012    2    3    3    0    0 -0.95336395980E+01 -0.20947475441E+02  0.36795866633E+02  0.47787276358E+02  0.20000024226E+02 0.  0.
        -12    1    3    3    0    0  0.95336395980E+01  0.20947475441E+02 -0.36795866633E+02  0.43400723642E+02  0.00000000000E+00 0.  1.
         11    1    4    4    0    0 -0.31783582299E+01 -0.14692319192E+02  0.15822911049E+02  0.21825002144E+02  0.51100000000E-03 0. -1.
        -11    1    4    4    0    0  0.69452237115E+00 -0.80020050377E+01  0.10602548449E+02  0.13301446531E+02  0.51100000000E-03 0.  1.
         12    1    4    4    0    0 -0.70498037393E+01  0.17468487881E+01  0.10370407136E+02  0.12660827683E+02  0.00000000000E+00 0. -1.
</event>
<event>
 8    1  0.5542925E-011  0.9118800E+02  0.7816164E-02  0.1184000E+00
        -11   -1    0    0    0    0  0.00000000000E+00  0.00000000000E+00  0.45593999997E+02  0.45594000000E+02  0.51100000000E-03 0. -1.
         11   -1    0    0    0    0 -0.00000000000E+00 -0.00000000000E+00 -0.45593999997E+02  0.45594000000E+02  0.51100000000E-03 0.  1.
         23    2    1    2    0    0  0.44408920985E-15  0.00000000000E+00  0.00000000000E+00  0.91188000000E+02  0.91188000000E+02 0.  0.
    9900012    2    3    3    0    0  0.31575376907E+01  0.24885024733E+02 -0.35417359303E+02  0.47787264520E+02  0.19999970251E+02 0.  0.
         12    1    3    3    0    0 -0.31575376907E+01 -0.24885024733E+02  0.35417359303E+02  0.43400735480E+02  0.00000000000E+00 0. -1.
         11    1    4    4    0    0  0.13870607059E+01  0.29633999169E+01  0.87541393167E+00  0.33870379806E+01  0.51100000000E-03 0. -1.
        -11    1    4    4    0    0  0.54544036351E+01  0.29232969363E+01 -0.77968448838E+01  0.99542440394E+01  0.51100000000E-03 0.  1.
        -12    1    4    4    0    0 -0.36839266503E+01  0.18998327879E+02 -0.28495928351E+02  0.34445982500E+02  0.00000000000E+00 0.  1.
</event>
<event>
 8    1  0.5542925E-011  0.9118800E+02  0.7816164E-02  0.1184000E+00
        -11   -1    0    0    0    0  0.00000000000E+00  0.00000000000E+00  0.45593999997E+02  0.45594000000E+02  0.51100000000E-03 0. -1.
         11   -1    0    0    0    0 -0.00000000000E+00 -0.00000000000E+00 -0.45593999997E+02  0.45594000000E+02  0.51100000000E-03 0.  1.
         23    2    1    2    0    0  0.00000000000E+00  0.13322676296E-14  0.00000000000E+00  0.91188000000E+02  0.91188000000E+02 0.  0.
    9900012    2    3    3    0    0  0.43175103781E+02 -0.31440089867E+01  0.31062699503E+01  0.47787270836E+02  0.19999999049E+02 0.  0.
        -12    1    3    3    0    0 -0.43175103781E+02  0.31440089867E+01 -0.31062699503E+01  0.43400729164E+02  0.00000000000E+00 0.  1.
         11    1    4    4    0    0  0.12974081308E+02 -0.59843263445E+01  0.20061348846E+01  0.14427873198E+02  0.51100000000E-03 0. -1.
        -11    1    4    4    0    0  0.11843920027E+02  0.49981465962E+00 -0.63052329555E+01  0.13426995911E+02  0.51100000000E-03 0.  1.
        -12    1    4    4    0    0  0.18357102445E+02  0.23405026982E+01  0.74053680212E+01  0.19932401727E+02  0.00000000000E+00 0.  1.
</event>
<event>
 8    1  0.5542925E-011  0.9118800E+02  0.7816164E-02  0.1184000E+00
        -11   -1    0    0    0    0  0.00000000000E+00  0.00000000000E+00  0.45593999997E+02  0.45594000000E+02  0.51100000000E-03 0. -1.
         11   -1    0    0    0    0 -0.00000000000E+00 -0.00000000000E+00 -0.45593999997E+02  0.45594000000E+02  0.51100000000E-03 0.  1.
         23    2    1    2    0    0  0.00000000000E+00  0.44408920985E-15  0.00000000000E+00  0.91188000000E+02  0.91188000000E+02 0.  0.
    9900012    2    3    3    0    0  0.29405877640E+02 -0.26390332135E+01 -0.31811210780E+02  0.47787271119E+02  0.20000000341E+02 0.  0.
         12    1    3    3    0    0 -0.29405877640E+02  0.26390332135E+01  0.31811210780E+02  0.43400728881E+02  0.00000000000E+00 0. -1.
         11    1    4    4    0    0 -0.17761112713E+00  0.18964549269E+01  0.55047737335E+00  0.19827033570E+01  0.51100000000E-03 0. -1.
        -11    1    4    4    0    0  0.12176795679E+02  0.42190901279E+01 -0.14066485483E+02  0.19077240068E+02  0.51100000000E-03 0.  1.
        -12    1    4    4    0    0  0.17406693089E+02 -0.87545782682E+01 -0.18295202670E+02  0.26727327694E+02  0.00000000000E+00 0.  1.
</event>
<event>
 8    1  0.5542925E-011  0.9118800E+02  0.7816164E-02  0.1184000E+00
        -11   -1    0    0    0    0  0.00000000000E+00  0.00000000000E+00  0.45593999997E+02  0.45594000000E+02  0.51100000000E-03 0. -1.
         11   -1    0    0    0    0 -0.00000000000E+00 -0.00000000000E+00 -0.45593999997E+02  0.45594000000E+02  0.51100000000E-03 0.  1.
         23    2    1    2    0    0 -0.31086244690E-14  0.00000000000E+00 -0.35527136788E-14  0.91188000000E+02  0.91188000000E+02 0.  0.
    9900012    2    3    3    0    0 -0.36972158200E+01 -0.39592930953E+02 -0.17388322091E+02  0.47787270382E+02  0.19999996979E+02 0.  0.
         12    1    3    3    0    0  0.36972158200E+01  0.39592930953E+02  0.17388322091E+02  0.43400729618E+02  0.00000000000E+00 0. -1.
         11    1    4    4    0    0 -0.94669448624E+01 -0.13344841184E+02 -0.92064419510E+01  0.18774088657E+02  0.51100000000E-03 0.  1.
        -11    1    4    4    0    0  0.43274159101E+00  0.14187170163E+00  0.54476148783E+00  0.71004098759E+00  0.51100000000E-03 0. -1.
        -12    1    4    4    0    0  0.53369874514E+01 -0.26389961471E+02 -0.87266416273E+01  0.28303140737E+02  0.00000000000E+00 0.  1.
</event>
<event>
 8    1  0.5542925E-011  0.9118800E+02  0.7816164E-02  0.1184000E+00
        -11   -1    0    0    0    0  0.00000000000E+00  0.00000000000E+00  0.45593999997E+02  0.45594000000E+02  0.51100000000E-03 0. -1.
         11   -1    0    0    0    0 -0.00000000000E+00 -0.00000000000E+00 -0.45593999997E+02  0.45594000000E+02  0.51100000000E-03 0.  1.
         23    2    1    2    0    0  0.00000000000E+00 -0.88817841970E-15  0.00000000000E+00  0.91188000000E+02  0.91188000000E+02 0.  0.
    9900012    2    3    3    0    0  0.10423122499E+02  0.27758068178E+01  0.42038996535E+02  0.47787264801E+02  0.19999971534E+02 0.  0.
        -12    1    3    3    0    0 -0.10423122499E+02 -0.27758068178E+01 -0.42038996535E+02  0.43400735199E+02  0.00000000000E+00 0.  1.
         11    1    4    4    0    0  0.66656324555E+01 -0.16334909812E+01  0.13798949086E+02  0.15411357661E+02  0.51100000000E-03 0. -1.
        -11    1    4    4    0    0  0.65882378407E+01  0.83807244559E+01  0.16279836336E+02  0.19459560417E+02  0.51100000000E-03 0.  1.
        -12    1    4    4    0    0 -0.28307477970E+01 -0.39714266569E+01  0.11960211114E+02  0.12916346723E+02  0.00000000000E+00 0.  1.
</event>
<event>
 8    1  0.5542925E-011  0.9118800E+02  0.7816164E-02  0.1184000E+00
        -11   -1    0    0    0    0  0.00000000000E+00  0.00000000000E+00  0.45593999997E+02  0.45594000000E+02  0.51100000000E-03 0. -1.
         11   -1    0    0    0    0 -0.00000000000E+00 -0.00000000000E+00 -0.45593999997E+02  0.45594000000E+02  0.51100000000E-03 0.  1.
         23    2    1    2    0    0  0.00000000000E+00  0.00000000000E+00 -0.35527136788E-14  0.91188000000E+02  0.91188000000E+02 0.  0.
    9900012    2    3    3    0    0  0.36870401573E+02  0.16176607542E+02  0.16202274575E+02  0.47787275984E+02  0.20000022524E+02 0.  0.
        -12    1    3    3    0    0 -0.36870401573E+02 -0.16176607542E+02 -0.16202274575E+02  0.43400724016E+02  0.00000000000E+00 0.  1.
         11    1    4    4    0    0  0.16632884118E+02  0.54677650044E+00  0.44449296162E+01  0.17225248857E+02  0.51100000000E-03 0. -1.
        -11    1    4    4    0    0  0.19450996673E+02  0.10508294772E+02  0.12387987453E+02  0.25342213084E+02  0.51100000000E-03 0.  1.
        -12    1    4    4    0    0  0.78652078109E+00  0.51215362692E+01 -0.63064249405E+00  0.52198140437E+01  0.00000000000E+00 0.  1.
</event>
<event>
 8    1  0.5542925E-011  0.9118800E+02  0.7816164E-02  0.1184000E+00
        -11   -1    0    0    0    0  0.00000000000E+00  0.00000000000E+00  0.45593999997E+02  0.45594000000E+02  0.51100000000E-03 0. -1.
         11   -1    0    0    0    0 -0.00000000000E+00 -0.00000000000E+00 -0.45593999997E+02  0.45594000000E+02  0.51100000000E-03 0.  1.
         23    2    1    2    0    0  0.71054273576E-14  0.00000000000E+00  0.17763568394E-14  0.91188000000E+02  0.91188000000E+02 0.  0.
    9900012    2    3    3    0    0 -0.34080861430E+02 -0.24666035758E+02 -0.10663221829E+02  0.47787277246E+02  0.20000028274E+02 0.  0.
         12    1    3    3    0    0  0.34080861430E+02  0.24666035758E+02  0.10663221829E+02  0.43400722754E+02  0.00000000000E+00 0. -1.
         11    1    4    4    0    0  0.54330135507E+00 -0.30463069436E+01  0.10038832239E+01  0.32531437327E+01  0.51100000000E-03 0. -1.
        -11    1    4    4    0    0 -0.10895313208E+02 -0.70607015602E+00 -0.29494796872E+00  0.10922150865E+02  0.51100000000E-03 0.  1.
        -12    1    4    4    0    0 -0.23728849577E+02 -0.20913658659E+02 -0.11372157084E+02  0.33611982647E+02  0.00000000000E+00 0.  1.
</event>
<event>
 8    1  0.5542925E-011  0.9118800E+02  0.7816164E-02  0.1184000E+00
        -11   -1    0    0    0    0  0.00000000000E+00  0.00000000000E+00  0.45593999997E+02  0.45594000000E+02  0.51100000000E-03 0. -1.
         11   -1    0    0    0    0 -0.00000000000E+00 -0.00000000000E+00 -0.45593999997E+02  0.45594000000E+02  0.51100000000E-03 0.  1.
         23    2    1    2    0    0 -0.35527136788E-14  0.00000000000E+00  0.71054273576E-14  0.91188000000E+02  0.91188000000E+02 0.  0.
    9900012    2    3    3    0    0  0.28555417795E+02 -0.22978509491E+01 -0.32602629139E+02  0.47787269232E+02  0.19999991737E+02 0.  0.
         12    1    3    3    0    0 -0.28555417795E+02  0.22978509491E+01  0.32602629139E+02  0.43400730768E+02  0.00000000000E+00 0. -1.
         11    1    4    4    0    0  0.15663662403E+01 -0.14429682895E+01  0.24819391572E+01  0.32704254959E+01  0.51100000000E-03 0. -1.
        -11    1    4    4    0    0  0.38569831459E+01 -0.30005359962E+00 -0.27097097296E+01  0.47232275226E+01  0.51100000000E-03 0.  1.
        -12    1    4    4    0    0  0.23132068408E+02 -0.55482906001E+00 -0.32374858567E+02  0.39793616214E+02  0.00000000000E+00 0.  1.
</event>
<event>
 8    1  0.5542925E-011  0.9118800E+02  0.7816164E-02  0.1184000E+00
        -11   -1    0    0    0    0  0.00000000000E+00  0.00000000000E+00  0.45593999997E+02  0.45594000000E+02  0.51100000000E-03 0. -1.
         11   -1    0    0    0    0 -0.00000000000E+00 -0.00000000000E+00 -0.45593999997E+02  0.45594000000E+02  0.51100000000E-03 0.  1.
         23    2    1    2    0    0  0.00000000000E+00  0.00000000000E+00 -0.71054273576E-14  0.91188000000E+02  0.91188000000E+02 0.  0.
    9900012    2    3    3    0    0 -0.24686330592E+02 -0.11652680276E+02  0.33740551652E+02  0.47787254597E+02  0.19999925011E+02 0.  0.
        -12    1    3    3    0    0  0.24686330592E+02  0.11652680276E+02 -0.33740551652E+02  0.43400745403E+02  0.00000000000E+00 0.  1.
         11    1    4    4    0    0 -0.92600556015E+01 -0.49347217172E+01  0.42272960927E+01  0.11312388814E+02  0.51100000000E-03 0. -1.
        -11    1    4    4    0    0 -0.71224351168E+01 -0.48093433141E+01  0.38184481494E+01  0.94042230746E+01  0.51100000000E-03 0.  1.
        -12    1    4    4    0    0 -0.83038398734E+01 -0.19086152448E+01  0.25694807410E+02  0.27070642708E+02  0.00000000000E+00 0.  1.
</event>
<event>
 8    1  0.5542925E-011  0.9118800E+02  0.7816164E-02  0.1184000E+00
        -11   -1    0    0    0    0  0.00000000000E+00  0.00000000000E+00  0.45593999997E+02  0.45594000000E+02  0.51100000000E-03 0.  1.
         11   -1    0    0    0    0 -0.00000000000E+00 -0.00000000000E+00 -0.45593999997E+02  0.45594000000E+02  0.51100000000E-03 0. -1.
         23    2    1    2    0    0  0.00000000000E+00  0.00000000000E+00  0.00000000000E+00  0.91188000000E+02  0.91188000000E+02 0.  0.
    9900012    2    3    3    0    0 -0.39388643792E+02  0.12094310273E+02 -0.13633976197E+02  0.47787275263E+02  0.20000019233E+02 0.  0.
         12    1    3    3    0    0  0.39388643792E+02 -0.12094310273E+02  0.13633976197E+02  0.43400724737E+02  0.00000000000E+00 0. -1.
         11    1    4    4    0    0 -0.26074418110E+02  0.13699120514E+02 -0.13480588715E+02  0.32392398105E+02  0.51100000000E-03 0. -1.
        -11    1    4    4    0    0  0.66256882556E+00 -0.32288816287E+00 -0.11038140581E+01  0.13272753860E+01  0.51100000000E-03 0.  1.
        -12    1    4    4    0    0 -0.13976794508E+02 -0.12819220779E+01  0.95042657612E+00  0.14067601772E+02  0.00000000000E+00 0.  1.
</event>
<event>
 8    1  0.5542925E-011  0.9118800E+02  0.7816164E-02  0.1184000E+00
        -11   -1    0    0    0    0  0.00000000000E+00  0.00000000000E+00  0.45593999997E+02  0.45594000000E+02  0.51100000000E-03 0. -1.
         11   -1    0    0    0    0 -0.00000000000E+00 -0.00000000000E+00 -0.45593999997E+02  0.45594000000E+02  0.51100000000E-03 0.  1.
         23    2    1    2    0    0 -0.17763568394E-14 -0.17763568394E-14  0.00000000000E+00  0.91188000000E+02  0.91188000000E+02 0.  0.
    9900012    2    3    3    0    0  0.99030073331E+01 -0.14206835064E+02 -0.39795975187E+02  0.47787270076E+02  0.19999995586E+02 0.  0.
         12    1    3    3    0    0 -0.99030073331E+01  0.14206835064E+02  0.39795975187E+02  0.43400729924E+02  0.00000000000E+00 0. -1.
         11    1    4    4    0    0 -0.21041757435E+01 -0.11658922632E+01 -0.14232796452E+01  0.27951002734E+01  0.51100000000E-03 0. -1.
        -11    1    4    4    0    0  0.10448691339E+01 -0.12242703400E+02 -0.17220421971E+02  0.21154632381E+02  0.51100000000E-03 0.  1.
        -12    1    4    4    0    0  0.10962313943E+02 -0.79823940129E+00 -0.21152273571E+02  0.23837537422E+02  0.00000000000E+00 0.  1.
</event>
<event>
 8    1  0.5542925E-011  0.9118800E+02  0.7816164E-02  0.1184000E+00
        -11   -1    0    0    0    0  0.00000000000E+00  0.00000000000E+00  0.45593999997E+02  0.45594000000E+02  0.51100000000E-03 0. -1.
         11   -1    0    0    0    0 -0.00000000000E+00 -0.00000000000E+00 -0.45593999997E+02  0.45594000000E+02  0.51100000000E-03 0.  1.
         23    2    1    2    0    0  0.17763568394E-14  0.00000000000E+00  0.00000000000E+00  0.91188000000E+02  0.91188000000E+02 0.  0.
    9900012    2    3    3    0    0  0.13504585257E+02 -0.17830729921E+02 -0.37192928594E+02  0.47787277772E+02  0.20000030675E+02 0.  0.
         12    1    3    3    0    0 -0.13504585257E+02  0.17830729921E+02  0.37192928594E+02  0.43400722228E+02  0.00000000000E+00 0. -1.
         11    1    4    4    0    0 -0.12582172245E+01  0.20733628408E+01 -0.48489466869E+01  0.54216444265E+01  0.51100000000E-03 0. -1.
        -11    1    4    4    0    0  0.49186832744E+01 -0.10135120295E+02 -0.23093940164E+02  0.25695217086E+02  0.51100000000E-03 0.  1.
         12    1    4    4    0    0  0.98441192076E+01 -0.97689724659E+01 -0.92500417438E+01  0.16670416260E+02  0.00000000000E+00 0. -1.
</event>
<event>
 8    1  0.5542925E-011  0.9118800E+02  0.7816164E-02  0.1184000E+00
        -11   -1    0    0    0    0  0.00000000000E+00  0.00000000000E+00  0.45593999997E+02  0.45594000000E+02  0.51100000000E-03 0. -1.
         11   -1    0    0    0    0 -0.00000000000E+00 -0.00000000000E+00 -0.45593999997E+02  0.45594000000E+02  0.51100000000E-03 0.  1.
         23    2    1    2    0    0  0.00000000000E+00 -0.88817841970E-15  0.00000000000E+00  0.91188000000E+02  0.91188000000E+02 0.  0.
    9900012    2    3    3    0    0  0.11257608167E+02  0.56416622428E+01 -0.41533856828E+02  0.47787270081E+02  0.19999995608E+02 0.  0.
         12    1    3    3    0    0 -0.11257608167E+02 -0.56416622428E+01  0.41533856828E+02  0.43400729919E+02  0.00000000000E+00 0. -1.
         11    1    4    4    0    0  0.69834187313E+01 -0.60959330121E+01 -0.16552918171E+02  0.18971758925E+02  0.51100000000E-03 0. -1.
        -11    1    4    4    0    0  0.20309241136E+01 -0.34582072516E+00 -0.31779143392E+01  0.37872661034E+01  0.51100000000E-03 0.  1.
         12    1    4    4    0    0  0.22432653222E+01  0.12083415980E+02 -0.21803024317E+02  0.25028245053E+02  0.00000000000E+00 0. -1.
</event>
<event>
 8    1  0.5542925E-011  0.9118800E+02  0.7816164E-02  0.1184000E+00
        -11   -1    0    0    0    0  0.00000000000E+00  0.00000000000E+00  0.45593999997E+02  0.45594000000E+02  0.51100000000E-03 0.  1.
         11   -1    0    0    0    0 -0.00000000000E+00 -0.00000000000E+00 -0.45593999997E+02  0.45594000000E+02  0.51100000000E-03 0. -1.
         23    2    1    2    0    0  0.00000000000E+00  0.00000000000E+00  0.00000000000E+00  0.91188000000E+02  0.91188000000E+02 0.  0.
    9900012    2    3    3    0    0  0.90698650957E+01  0.38355709629E+02  0.18171431467E+02  0.47787264574E+02  0.19999970497E+02 0.  0.
        -12    1    3    3    0    0 -0.90698650957E+01 -0.38355709629E+02 -0.18171431467E+02  0.43400735426E+02  0.00000000000E+00 0.  1.
         11    1    4    4    0    0  0.29438943896E+01  0.10957977334E+02  0.22331010826E+01  0.11564191374E+02  0.51100000000E-03 0. -1.
        -11    1    4    4    0    0  0.67385341257E+01  0.28993555408E+01  0.69945602162E+01  0.10135974427E+02  0.51100000000E-03 0.  1.
         12    1    4    4    0    0 -0.61256341955E+00  0.24498376754E+02  0.89437701681E+01  0.26087098772E+02  0.00000000000E+00 0. -1.
</event>
<event>
 8    1  0.5542925E-011  0.9118800E+02  0.7816164E-02  0.1184000E+00
        -11   -1    0    0    0    0  0.00000000000E+00  0.00000000000E+00  0.45593999997E+02  0.45594000000E+02  0.51100000000E-03 0. -1.
         11   -1    0    0    0    0 -0.00000000000E+00 -0.00000000000E+00 -0.45593999997E+02  0.45594000000E+02  0.51100000000E-03 0.  1.
         23    2    1    2    0    0  0.00000000000E+00  0.00000000000E+00  0.71054273576E-14  0.91188000000E+02  0.91188000000E+02 0.  0.
    9900012    2    3    3    0    0 -0.26069016213E+02 -0.95058920128E+01  0.33371664353E+02  0.47787267622E+02  0.19999984397E+02 0.  0.
        -12    1    3    3    0    0  0.26069016213E+02  0.95058920128E+01 -0.33371664353E+02  0.43400732378E+02  0.00000000000E+00 0.  1.
         11    1    4    4    0    0 -0.40686751650E+01  0.31328192773E+01  0.89199203073E+01  0.10292407530E+02  0.51100000000E-03 0.  1.
        -11    1    4    4    0    0 -0.11220808708E+02  0.68864221129E+00  0.86965747357E+01  0.14213064010E+02  0.51100000000E-03 0. -1.
         12    1    4    4    0    0 -0.10779532340E+02 -0.13327353501E+02  0.15755169310E+02  0.23281796082E+02  0.00000000000E+00 0. -1.
</event>
<event>
 8    1  0.5542925E-011  0.9118800E+02  0.7816164E-02  0.1184000E+00
        -11   -1    0    0    0    0  0.00000000000E+00  0.00000000000E+00  0.45593999997E+02  0.45594000000E+02  0.51100000000E-03 0. -1.
         11   -1    0    0    0    0 -0.00000000000E+00 -0.00000000000E+00 -0.45593999997E+02  0.45594000000E+02  0.51100000000E-03 0.  1.
         23    2    1    2    0    0 -0.44408920985E-15  0.00000000000E+00  0.00000000000E+00  0.91188000000E+02  0.91188000000E+02 0.  0.
    9900012    2    3    3    0    0  0.31961634328E+01  0.25860280785E+02  0.34708119649E+02  0.47787272442E+02  0.20000006372E+02 0.  0.
        -12    1    3    3    0    0 -0.31961634328E+01 -0.25860280785E+02 -0.34708119649E+02  0.43400727558E+02  0.00000000000E+00 0.  1.
         11    1    4    4    0    0  0.12587340431E+01  0.16597884626E+02  0.25578932446E+02  0.30518125283E+02  0.51100000000E-03 0. -1.
        -11    1    4    4    0    0  0.82919785875E+00  0.12022521797E+01  0.90148302835E+01  0.91323679675E+01  0.51100000000E-03 0.  1.
        -12    1    4    4    0    0  0.11082315309E+01  0.80601439799E+01  0.11435691939E+00  0.81367791913E+01  0.00000000000E+00 0.  1.
</event>
<event>
 8    1  0.5542925E-011  0.9118800E+02  0.7816164E-02  0.1184000E+00
        -11   -1    0    0    0    0  0.00000000000E+00  0.00000000000E+00  0.45593999997E+02  0.45594000000E+02  0.51100000000E-03 0. -1.
         11   -1    0    0    0    0 -0.00000000000E+00 -0.00000000000E+00 -0.45593999997E+02  0.45594000000E+02  0.51100000000E-03 0.  1.
         23    2    1    2    0    0  0.00000000000E+00  0.35527136788E-14  0.00000000000E+00  0.91188000000E+02  0.91188000000E+02 0.  0.
    9900012    2    3    3    0    0 -0.26776083759E+02  0.17667887658E+02  0.29232011728E+02  0.47787269299E+02  0.19999992040E+02 0.  0.
        -12    1    3    3    0    0  0.26776083759E+02 -0.17667887658E+02 -0.29232011728E+02  0.43400730701E+02  0.00000000000E+00 0.  1.
         11    1    4    4    0    0 -0.18226117893E+02  0.20352661523E+02  0.20400225877E+02  0.34096794874E+02  0.51100000000E-03 0. -1.
        -11    1    4    4    0    0 -0.19062325807E+01  0.16495183442E+01  0.23537778367E+01  0.34488989236E+01  0.51100000000E-03 0.  1.
        -12    1    4    4    0    0 -0.66437332853E+01 -0.43342922097E+01  0.64780080136E+01  0.10241575501E+02  0.00000000000E+00 0.  1.
</event>
<event>
 8    1  0.5542925E-011  0.9118800E+02  0.7816164E-02  0.1184000E+00
        -11   -1    0    0    0    0  0.00000000000E+00  0.00000000000E+00  0.45593999997E+02  0.45594000000E+02  0.51100000000E-03 0.  1.
         11   -1    0    0    0    0 -0.00000000000E+00 -0.00000000000E+00 -0.45593999997E+02  0.45594000000E+02  0.51100000000E-03 0. -1.
         23    2    1    2    0    0  0.00000000000E+00  0.00000000000E+00 -0.17763568394E-14  0.91188000000E+02  0.91188000000E+02 0.  0.
    9900012    2    3    3    0    0 -0.20551115825E+02 -0.35094526314E+02  0.15154169344E+02  0.47787274345E+02  0.20000015050E+02 0.  0.
        -12    1    3    3    0    0  0.20551115825E+02  0.35094526314E+02 -0.15154169344E+02  0.43400725655E+02  0.00000000000E+00 0.  1.
         11    1    4    4    0    0 -0.27623623976E+01 -0.80061980010E+01  0.48395998862E+01  0.97545671235E+01  0.51100000000E-03 0. -1.
        -11    1    4    4    0    0 -0.19701047280E+02 -0.17623617652E+02  0.10320676176E+02  0.28376742591E+02  0.51100000000E-03 0.  1.
        -12    1    4    4    0    0  0.19122938524E+01 -0.94647106605E+01 -0.61067176444E-02  0.96559646311E+01  0.00000000000E+00 0.  1.
</event>
<event>
 8    1  0.5542925E-011  0.9118800E+02  0.7816164E-02  0.1184000E+00
        -11   -1    0    0    0    0  0.00000000000E+00  0.00000000000E+00  0.45593999997E+02  0.45594000000E+02  0.51100000000E-03 0. -1.
         11   -1    0    0    0    0 -0.00000000000E+00 -0.00000000000E+00 -0.45593999997E+02  0.45594000000E+02  0.51100000000E-03 0.  1.
         23    2    1    2    0    0  0.00000000000E+00  0.88817841970E-15  0.71054273576E-14  0.91188000000E+02  0.91188000000E+02 0.  0.
    9900012    2    3    3    0    0 -0.27449938295E+02  0.54632665942E+01  0.33170423250E+02  0.47787269904E+02  0.19999994800E+02 0.  0.
        -12    1    3    3    0    0  0.27449938295E+02 -0.54632665942E+01 -0.33170423250E+02  0.43400730096E+02  0.00000000000E+00 0.  1.
         11    1    4    4    0    0 -0.14480764448E+02  0.87144561029E+01  0.16679259100E+02  0.23745146210E+02  0.51100000000E-03 0. -1.
        -11    1    4    4    0    0 -0.11389538282E+02 -0.67904512763E+01  0.10533795205E+02  0.16934953572E+02  0.51100000000E-03 0.  1.
        -12    1    4    4    0    0 -0.15796355644E+01  0.35392617677E+01  0.59573689457E+01  0.71071701211E+01  0.00000000000E+00 0.  1.
</event>
<event>
 8    1  0.5542925E-011  0.9118800E+02  0.7816164E-02  0.1184000E+00
        -11   -1    0    0    0    0  0.00000000000E+00  0.00000000000E+00  0.45593999997E+02  0.45594000000E+02  0.51100000000E-03 0.  1.
         11   -1    0    0    0    0 -0.00000000000E+00 -0.00000000000E+00 -0.45593999997E+02  0.45594000000E+02  0.51100000000E-03 0. -1.
         23    2    1    2    0    0  0.00000000000E+00 -0.35527136788E-14  0.00000000000E+00  0.91188000000E+02  0.91188000000E+02 0.  0.
    9900012    2    3    3    0    0 -0.30647681503E+02 -0.30522809968E+02  0.35638228898E+01  0.47787272547E+02  0.20000006850E+02 0.  0.
         12    1    3    3    0    0  0.30647681503E+02  0.30522809968E+02 -0.35638228898E+01  0.43400727453E+02  0.00000000000E+00 0. -1.
         11    1    4    4    0    0 -0.42182532617E+01 -0.72957615835E+01 -0.29323214331E+01  0.89230211762E+01  0.51100000000E-03 0. -1.
        -11    1    4    4    0    0 -0.19337620295E+02 -0.24388925241E+02  0.55493449171E+01  0.31615794508E+02  0.51100000000E-03 0.  1.
         12    1    4    4    0    0 -0.70918079463E+01  0.11618768561E+01  0.94679940586E+00  0.72484568627E+01  0.00000000000E+00 0. -1.
</event>
<event>
 8    1  0.5542925E-011  0.9118800E+02  0.7816164E-02  0.1184000E+00
        -11   -1    0    0    0    0  0.00000000000E+00  0.00000000000E+00  0.45593999997E+02  0.45594000000E+02  0.51100000000E-03 0. -1.
         11   -1    0    0    0    0 -0.00000000000E+00 -0.00000000000E+00 -0.45593999997E+02  0.45594000000E+02  0.51100000000E-03 0.  1.
         23    2    1    2    0    0  0.00000000000E+00  0.00000000000E+00  0.00000000000E+00  0.91188000000E+02  0.91188000000E+02 0.  0.
    9900012    2    3    3    0    0  0.88058234622E+01 -0.27602632454E+02 -0.32313715848E+02  0.47787261790E+02  0.19999957807E+02 0.  0.
         12    1    3    3    0    0 -0.88058234622E+01  0.27602632454E+02  0.32313715848E+02  0.43400738210E+02  0.00000000000E+00 0. -1.
         11    1    4    4    0    0  0.49455004081E+00 -0.12523550521E+02 -0.71548293534E+01  0.14431752517E+02  0.51100000000E-03 0. -1.
        -11    1    4    4    0    0 -0.14541013943E+01 -0.45762839593E+00  0.10098076413E+01  0.18285366683E+01  0.51100000000E-03 0.  1.
        -12    1    4    4    0    0  0.97653748157E+01 -0.14621453537E+02 -0.26168694136E+02  0.31526972605E+02  0.00000000000E+00 0.  1.
</event>
<event>
 8    1  0.5542925E-011  0.9118800E+02  0.7816164E-02  0.1184000E+00
        -11   -1    0    0    0    0  0.00000000000E+00  0.00000000000E+00  0.45593999997E+02  0.45594000000E+02  0.51100000000E-03 0. -1.
         11   -1    0    0    0    0 -0.00000000000E+00 -0.00000000000E+00 -0.45593999997E+02  0.45594000000E+02  0.51100000000E-03 0.  1.
         23    2    1    2    0    0  0.00000000000E+00  0.00000000000E+00 -0.35527136788E-14  0.91188000000E+02  0.91188000000E+02 0.  0.
    9900012    2    3    3    0    0  0.12553385749E+02 -0.31493132671E+02  0.27096456738E+02  0.47787275732E+02  0.20000021372E+02 0.  0.
        -12    1    3    3    0    0 -0.12553385749E+02  0.31493132671E+02 -0.27096456738E+02  0.43400724268E+02  0.00000000000E+00 0.  1.
         11    1    4    4    0    0  0.12101618222E+02 -0.27710619026E+02  0.22055113392E+02  0.37426669601E+02  0.51100000000E-03 0. -1.
        -11    1    4    4    0    0 -0.12639395858E+00 -0.51419782650E+01  0.64970574681E+01  0.82865959184E+01  0.51100000000E-03 0.  1.
        -12    1    4    4    0    0  0.57816148620E+00  0.13594646200E+01 -0.14557141222E+01  0.20740102128E+01  0.00000000000E+00 0.  1.
</event>
<event>
 8    1  0.6107160E-011  0.9118800E+02  0.7816164E-02  0.1184000E+00
        -11   -1    0    0    0    0  0.00000000000E+00  0.00000000000E+00  0.45593999997E+02  0.45594000000E+02  0.51100000000E-03 0. -1.
         11   -1    0    0    0    0 -0.00000000000E+00 -0.00000000000E+00 -0.45593999997E+02  0.45594000000E+02  0.51100000000E-03 0.  1.
         23    2    1    2    0    0  0.00000000000E+00 -0.35527136788E-14  0.00000000000E+00  0.91188000000E+02  0.91188000000E+02 0.  0.
    9900012    2    3    3    0    0  0.25531086882E+01  0.18179157070E+02  0.39327127524E+02  0.47787273335E+02  0.20000010444E+02 0.  0.
        -12    1    3    3    0    0 -0.25531086882E+01 -0.18179157070E+02 -0.39327127524E+02  0.43400726665E+02  0.00000000000E+00 0.  1.
         11    1    4    4    0    0  0.56162712521E+01  0.99884316024E+01  0.10249303153E+02  0.15373987252E+02  0.51100000000E-03 0. -1.
        -11    1    4    4    0    0 -0.14220974980E+01  0.47509087672E+01  0.24817059965E+01  0.55454810723E+01  0.51100000000E-03 0.  1.
         12    1    4    4    0    0 -0.16410650658E+01  0.34398167007E+01  0.26596118375E+02  0.26867805011E+02  0.00000000000E+00 0. -1.
</event>
<event>
 8    1  0.5542925E-011  0.9118800E+02  0.7816164E-02  0.1184000E+00
        -11   -1    0    0    0    0  0.00000000000E+00  0.00000000000E+00  0.45593999997E+02  0.45594000000E+02  0.51100000000E-03 0. -1.
         11   -1    0    0    0    0 -0.00000000000E+00 -0.00000000000E+00 -0.45593999997E+02  0.45594000000E+02  0.51100000000E-03 0.  1.
         23    2    1    2    0    0  0.00000000000E+00  0.00000000000E+00 -0.35527136788E-14  0.91188000000E+02  0.91188000000E+02 0.  0.
    9900012    2    3    3    0    0 -0.36759037723E+02 -0.57748466454E+01 -0.22339371365E+02  0.47787271653E+02  0.20000002775E+02 0.  0.
         12    1    3    3    0    0  0.36759037723E+02  0.57748466454E+01  0.22339371365E+02  0.43400728347E+02  0.00000000000E+00 0. -1.
         11    1    4    4    0    0 -0.51419395916E+01 -0.35483848391E+01 -0.11005471213E+00  0.62484150014E+01  0.51100000000E-03 0. -1.
        -11    1    4    4    0    0 -0.13268916293E+01  0.36212180163E+01 -0.70002388564E+00  0.39196804741E+01  0.51100000000E-03 0.  1.
        -12    1    4    4    0    0 -0.30290206502E+02 -0.58476798226E+01 -0.21529292767E+02  0.37619176178E+02  0.00000000000E+00 0.  1.
</event>
<event>
 8    1  0.5542925E-011  0.9118800E+02  0.7816164E-02  0.1184000E+00
        -11   -1    0    0    0    0  0.00000000000E+00  0.00000000000E+00  0.45593999997E+02  0.45594000000E+02  0.51100000000E-03 0. -1.
         11   -1    0    0    0    0 -0.00000000000E+00 -0.00000000000E+00 -0.45593999997E+02  0.45594000000E+02  0.51100000000E-03 0.  1.
         23    2    1    2    0    0  0.44408920985E-15  0.00000000000E+00  0.00000000000E+00  0.91188000000E+02  0.91188000000E+02 0.  0.
    9900012    2    3    3    0    0 -0.23227708305E+01 -0.22396951346E+02  0.37102625121E+02  0.47787268615E+02  0.19999988921E+02 0.  0.
        -12    1    3    3    0    0  0.23227708305E+01  0.22396951346E+02 -0.37102625121E+02  0.43400731385E+02  0.00000000000E+00 0.  1.
         11    1    4    4    0    0 -0.10329808409E+00  0.13805311347E+00  0.63877443039E+01  0.63900709471E+01  0.51100000000E-03 0.  1.
        -11    1    4    4    0    0  0.28858127559E+01 -0.13182085517E+02  0.26871889191E+02  0.30069814146E+02  0.51100000000E-03 0. -1.
        -12    1    4    4    0    0 -0.51052855023E+01 -0.93529189419E+01  0.38429916264E+01  0.11327383521E+02  0.00000000000E+00 0.  1.
</event>
<event>
 8    1  0.5542925E-011  0.9118800E+02  0.7816164E-02  0.1184000E+00
        -11   -1    0    0    0    0  0.00000000000E+00  0.00000000000E+00  0.45593999997E+02  0.45594000000E+02  0.51100000000E-03 0. -1.
         11   -1    0    0    0    0 -0.00000000000E+00 -0.00000000000E+00 -0.45593999997E+02  0.45594000000E+02  0.51100000000E-03 0.  1.
         23    2    1    2    0    0 -0.35527136788E-14  0.71054273576E-14 -0.17763568394E-14  0.91188000000E+02  0.91188000000E+02 0.  0.
    9900012    2    3    3    0    0 -0.17631097265E+02  0.37149609428E+02 -0.13880704890E+02  0.47787273742E+02  0.20000012301E+02 0.  0.
         12    1    3    3    0    0  0.17631097265E+02 -0.37149609428E+02  0.13880704890E+02  0.43400726258E+02  0.00000000000E+00 0. -1.
         11    1    4    4    0    0 -0.18387611500E+02  0.23057023277E+02 -0.11594461980E+02  0.31688517289E+02  0.51100000000E-03 0. -1.
        -11    1    4    4    0    0 -0.98695486599E+00  0.50019115039E+01 -0.42487526537E+01  0.66366480977E+01  0.51100000000E-03 0.  1.
         12    1    4    4    0    0  0.17434691010E+01  0.90906746468E+01  0.19625097435E+01  0.94621083556E+01  0.00000000000E+00 0. -1.
</event>
<event>
 8    1  0.5542925E-011  0.9118800E+02  0.7816164E-02  0.1184000E+00
        -11   -1    0    0    0    0  0.00000000000E+00  0.00000000000E+00  0.45593999997E+02  0.45594000000E+02  0.51100000000E-03 0. -1.
         11   -1    0    0    0    0 -0.00000000000E+00 -0.00000000000E+00 -0.45593999997E+02  0.45594000000E+02  0.51100000000E-03 0.  1.
         23    2    1    2    0    0  0.88817841970E-15 -0.35527136788E-14  0.35527136788E-14  0.91188000000E+02  0.91188000000E+02 0.  0.
    9900012    2    3    3    0    0  0.76945138075E+01 -0.28992558774E+02  0.31366370602E+02  0.47787271760E+02  0.20000003263E+02 0.  0.
        -12    1    3    3    0    0 -0.76945138075E+01  0.28992558774E+02 -0.31366370602E+02  0.43400728240E+02  0.00000000000E+00 0.  1.
         11    1    4    4    0    0 -0.25941951941E+01 -0.66254550422E+01  0.12547911532E+01  0.72250262505E+01  0.51100000000E-03 0.  1.
        -11    1    4    4    0    0  0.60890851559E+01 -0.21853140543E+02  0.23125388323E+02  0.32394757214E+02  0.51100000000E-03 0. -1.
        -12    1    4    4    0    0  0.41996238457E+01 -0.51396318925E+00  0.69861911262E+01  0.81674882955E+01  0.00000000000E+00 0.  1.
</event>
<event>
 8    1  0.5542925E-011  0.9118800E+02  0.7816164E-02  0.1184000E+00
        -11   -1    0    0    0    0  0.00000000000E+00  0.00000000000E+00  0.45593999997E+02  0.45594000000E+02  0.51100000000E-03 0. -1.
         11   -1    0    0    0    0 -0.00000000000E+00 -0.00000000000E+00 -0.45593999997E+02  0.45594000000E+02  0.51100000000E-03 0.  1.
         23    2    1    2    0    0  0.17763568394E-14  0.00000000000E+00  0.00000000000E+00  0.91188000000E+02  0.91188000000E+02 0.  0.
    9900012    2    3    3    0    0  0.15103837243E+02  0.88410439072E+01 -0.39715667609E+02  0.47787260255E+02  0.19999950804E+02 0.  0.
         12    1    3    3    0    0 -0.15103837243E+02 -0.88410439072E+01  0.39715667609E+02  0.43400739745E+02  0.00000000000E+00 0. -1.
         11    1    4    4    0    0  0.16334790745E+02  0.90513796366E+01 -0.30167853002E+02  0.35480307454E+02  0.51100000000E-03 0.  1.
        -11    1    4    4    0    0  0.29679667381E+01  0.17651835835E+00 -0.17714921670E+01  0.34609492987E+01  0.51100000000E-03 0. -1.
         12    1    4    4    0    0 -0.41989202400E+01 -0.38685408770E+00 -0.77763224396E+01  0.88460035017E+01  0.00000000000E+00 0. -1.
</event>
<event>
 8    1  0.5542925E-011  0.9118800E+02  0.7816164E-02  0.1184000E+00
        -11   -1    0    0    0    0  0.00000000000E+00  0.00000000000E+00  0.45593999997E+02  0.45594000000E+02  0.51100000000E-03 0.  1.
         11   -1    0    0    0    0 -0.00000000000E+00 -0.00000000000E+00 -0.45593999997E+02  0.45594000000E+02  0.51100000000E-03 0. -1.
         23    2    1    2    0    0  0.00000000000E+00  0.00000000000E+00  0.00000000000E+00  0.91188000000E+02  0.91188000000E+02 0.  0.
    9900012    2    3    3    0    0 -0.28297126146E+02 -0.32171262365E+02 -0.69214131045E+01  0.47787269250E+02  0.19999991817E+02 0.  0.
         12    1    3    3    0    0  0.28297126146E+02  0.32171262365E+02  0.69214131045E+01  0.43400730750E+02  0.00000000000E+00 0. -1.
         11    1    4    4    0    0 -0.94238415949E+01 -0.11417180650E+02 -0.19975625451E+01  0.14938241556E+02  0.51100000000E-03 0. -1.
        -11    1    4    4    0    0 -0.68372313971E+01 -0.18947397093E+02 -0.14664519468E+01  0.20196585636E+02  0.51100000000E-03 0.  1.
         12    1    4    4    0    0 -0.12036053154E+02 -0.18066846215E+01 -0.34573986126E+01  0.12652442057E+02  0.00000000000E+00 0. -1.
</event>
<event>
 8    1  0.5542925E-011  0.9118800E+02  0.7816164E-02  0.1184000E+00
        -11   -1    0    0    0    0  0.00000000000E+00  0.00000000000E+00  0.45593999997E+02  0.45594000000E+02  0.51100000000E-03 0. -1.
         11   -1    0    0    0    0 -0.00000000000E+00 -0.00000000000E+00 -0.45593999997E+02  0.45594000000E+02  0.51100000000E-03 0.  1.
         23    2    1    2    0    0  0.00000000000E+00  0.44408920985E-15  0.00000000000E+00  0.91188000000E+02  0.91188000000E+02 0.  0.
    9900012    2    3    3    0    0  0.11998727975E+02 -0.17777465511E+01 -0.41671257588E+02  0.47787267693E+02  0.19999984722E+02 0.  0.
         12    1    3    3    0    0 -0.11998727975E+02  0.17777465511E+01  0.41671257588E+02  0.43400732307E+02  0.00000000000E+00 0. -1.
         11    1    4    4    0    0 -0.12583385965E+01 -0.39041102012E+00  0.92088877145E+00  0.16074430561E+01  0.51100000000E-03 0. -1.
        -11    1    4    4    0    0  0.12294355238E+02 -0.48215905656E+01 -0.25469094474E+02  0.28689260707E+02  0.51100000000E-03 0.  1.
         12    1    4    4    0    0  0.96271133257E+00  0.34342550346E+01 -0.17123051885E+02  0.17490563931E+02  0.00000000000E+00 0. -1.
</event>
<event>
 8    1  0.5542925E-011  0.9118800E+02  0.7816164E-02  0.1184000E+00
        -11   -1    0    0    0    0  0.00000000000E+00  0.00000000000E+00  0.45593999997E+02  0.45594000000E+02  0.51100000000E-03 0. -1.
         11   -1    0    0    0    0 -0.00000000000E+00 -0.00000000000E+00 -0.45593999997E+02  0.45594000000E+02  0.51100000000E-03 0.  1.
         23    2    1    2    0    0  0.00000000000E+00  0.00000000000E+00  0.00000000000E+00  0.91188000000E+02  0.91188000000E+02 0.  0.
    9900012    2    3    3    0    0  0.13398636791E+02  0.63730115277E+01  0.40785836326E+02  0.47787272027E+02  0.20000004482E+02 0.  0.
        -12    1    3    3    0    0 -0.13398636791E+02 -0.63730115277E+01 -0.40785836326E+02  0.43400727973E+02  0.00000000000E+00 0.  1.
         11    1    4    4    0    0  0.10382722972E+02 -0.33678613510E+01  0.12903638041E+02  0.16901103555E+02  0.51100000000E-03 0. -1.
        -11    1    4    4    0    0  0.39072137408E+01  0.45670864957E+01  0.64332430976E+01  0.88040453934E+01  0.51100000000E-03 0.  1.
        -12    1    4    4    0    0 -0.89129992266E+00  0.51737863831E+01  0.21448955187E+02  0.22082123079E+02  0.00000000000E+00 0.  1.
</event>
<event>
 8    1  0.5542925E-011  0.9118800E+02  0.7816164E-02  0.1184000E+00
        -11   -1    0    0    0    0  0.00000000000E+00  0.00000000000E+00  0.45593999997E+02  0.45594000000E+02  0.51100000000E-03 0. -1.
         11   -1    0    0    0    0 -0.00000000000E+00 -0.00000000000E+00 -0.45593999997E+02  0.45594000000E+02  0.51100000000E-03 0.  1.
         23    2    1    2    0    0 -0.44408920985E-15  0.00000000000E+00 -0.71054273576E-14  0.91188000000E+02  0.91188000000E+02 0.  0.
    9900012    2    3    3    0    0  0.26945247952E+01 -0.16167097188E+02 -0.40186913849E+02  0.47787267978E+02  0.19999986017E+02 0.  0.
         12    1    3    3    0    0 -0.26945247952E+01  0.16167097188E+02  0.40186913849E+02  0.43400732022E+02  0.00000000000E+00 0. -1.
         11    1    4    4    0    0  0.43414798547E+01 -0.25980533525E+01 -0.14134531683E+01  0.52532065133E+01  0.51100000000E-03 0. -1.
        -11    1    4    4    0    0 -0.43493067422E+00 -0.10423646465E+02 -0.13623915246E+02  0.17159622292E+02  0.51100000000E-03 0.  1.
         12    1    4    4    0    0 -0.12120243853E+01 -0.31453973710E+01 -0.25149545434E+02  0.25374439172E+02  0.00000000000E+00 0. -1.
</event>
<event>
 8    1  0.5542925E-011  0.9118800E+02  0.7816164E-02  0.1184000E+00
        -11   -1    0    0    0    0  0.00000000000E+00  0.00000000000E+00  0.45593999997E+02  0.45594000000E+02  0.51100000000E-03 0. -1.
         11   -1    0    0    0    0 -0.00000000000E+00 -0.00000000000E+00 -0.45593999997E+02  0.45594000000E+02  0.51100000000E-03 0.  1.
         23    2    1    2    0    0  0.00000000000E+00  0.00000000000E+00 -0.35527136788E-14  0.91188000000E+02  0.91188000000E+02 0.  0.
    9900012    2    3    3    0    0 -0.34678053974E+02  0.22888914408E+02 -0.12536086646E+02  0.47787270760E+02  0.19999998702E+02 0.  0.
         12    1    3    3    0    0  0.34678053974E+02 -0.22888914408E+02  0.12536086646E+02  0.43400729240E+02  0.00000000000E+00 0. -1.
         11    1    4    4    0    0 -0.10834558317E+02  0.59718783281E+01 -0.10169689370E+02  0.16014792125E+02  0.51100000000E-03 0. -1.
        -11    1    4    4    0    0 -0.16753372036E+02  0.10488848077E+02 -0.72180488939E+01  0.21042614824E+02  0.51100000000E-03 0.  1.
         12    1    4    4    0    0 -0.70901236211E+01  0.64281880033E+01  0.48516516174E+01  0.10729863810E+02  0.00000000000E+00 0. -1.
</event>
<event>
 8    1  0.5542925E-011  0.9118800E+02  0.7816164E-02  0.1184000E+00
        -11   -1    0    0    0    0  0.00000000000E+00  0.00000000000E+00  0.45593999997E+02  0.45594000000E+02  0.51100000000E-03 0. -1.
         11   -1    0    0    0    0 -0.00000000000E+00 -0.00000000000E+00 -0.45593999997E+02  0.45594000000E+02  0.51100000000E-03 0.  1.
         23    2    1    2    0    0  0.00000000000E+00  0.00000000000E+00 -0.35527136788E-14  0.91188000000E+02  0.91188000000E+02 0.  0.
    9900012    2    3    3    0    0  0.14374996043E+02  0.29159922189E+02 -0.28752066330E+02  0.47787275449E+02  0.20000020082E+02 0.  0.
         12    1    3    3    0    0 -0.14374996043E+02 -0.29159922189E+02  0.28752066330E+02  0.43400724551E+02  0.00000000000E+00 0. -1.
         11    1    4    4    0    0  0.41069212912E+01 -0.13454276291E+01 -0.85519287862E+00  0.44054889760E+01  0.51100000000E-03 0. -1.
        -11    1    4    4    0    0 -0.10378333151E+01  0.65848417385E+01 -0.43215193924E+01  0.79443545257E+01  0.51100000000E-03 0.  1.
        -12    1    4    4    0    0  0.11305908067E+02  0.23920508079E+02 -0.23575354059E+02  0.35437431947E+02  0.00000000000E+00 0.  1.
</event>
<event>
 8    1  0.5542925E-011  0.9118800E+02  0.7816164E-02  0.1184000E+00
        -11   -1    0    0    0    0  0.00000000000E+00  0.00000000000E+00  0.45593999997E+02  0.45594000000E+02  0.51100000000E-03 0. -1.
         11   -1    0    0    0    0 -0.00000000000E+00 -0.00000000000E+00 -0.45593999997E+02  0.45594000000E+02  0.51100000000E-03 0.  1.
         23    2    1    2    0    0  0.00000000000E+00  0.17763568394E-14  0.00000000000E+00  0.91188000000E+02  0.91188000000E+02 0.  0.
    9900012    2    3    3    0    0 -0.40007302993E+02  0.12346502686E+02 -0.11428152901E+02  0.47787273046E+02  0.20000009128E+02 0.  0.
         12    1    3    3    0    0  0.40007302993E+02 -0.12346502686E+02  0.11428152901E+02  0.43400726954E+02  0.00000000000E+00 0. -1.
         11    1    4    4    0    0 -0.22467201764E+00 -0.80417165445E+00 -0.42221470544E-01  0.83603377864E+00  0.51100000000E-03 0. -1.
        -11    1    4    4    0    0 -0.13530388447E+02  0.12018713994E+02  0.51576987633E+00  0.18104886534E+02  0.51100000000E-03 0.  1.
        -12    1    4    4    0    0 -0.26252242529E+02  0.11319603463E+01 -0.11901701306E+02  0.28846352733E+02  0.00000000000E+00 0.  1.
</event>
<event>
 8    1  0.5542925E-011  0.9118800E+02  0.7816164E-02  0.1184000E+00
        -11   -1    0    0    0    0  0.00000000000E+00  0.00000000000E+00  0.45593999997E+02  0.45594000000E+02  0.51100000000E-03 0. -1.
         11   -1    0    0    0    0 -0.00000000000E+00 -0.00000000000E+00 -0.45593999997E+02  0.45594000000E+02  0.51100000000E-03 0.  1.
         23    2    1    2    0    0  0.71054273576E-14 -0.10658141036E-13  0.53290705182E-14  0.91188000000E+02  0.91188000000E+02 0.  0.
    9900012    2    3    3    0    0  0.28752367854E+02 -0.29980170412E+02  0.12574332367E+02  0.47787272936E+02  0.20000008626E+02 0.  0.
        -12    1    3    3    0    0 -0.28752367854E+02  0.29980170412E+02 -0.12574332367E+02  0.43400727064E+02  0.00000000000E+00 0.  1.
         11    1    4    4    0    0  0.36825906685E+01  0.11346229068E+01  0.10119173363E+01  0.39840707987E+01  0.51100000000E-03 0.  1.
        -11    1    4    4    0    0  0.24025916790E+02 -0.30189863497E+02  0.13958622233E+02  0.41030667439E+02  0.51100000000E-03 0. -1.
         12    1    4    4    0    0  0.10438603956E+01 -0.92492982194E+00 -0.23962072021E+01  0.27725346989E+01  0.00000000000E+00 0. -1.
</event>
<event>
 8    1  0.5542925E-011  0.9118800E+02  0.7816164E-02  0.1184000E+00
        -11   -1    0    0    0    0  0.00000000000E+00  0.00000000000E+00  0.45593999997E+02  0.45594000000E+02  0.51100000000E-03 0. -1.
         11   -1    0    0    0    0 -0.00000000000E+00 -0.00000000000E+00 -0.45593999997E+02  0.45594000000E+02  0.51100000000E-03 0.  1.
         23    2    1    2    0    0  0.17763568394E-14 -0.88817841970E-15  0.71054273576E-14  0.91188000000E+02  0.91188000000E+02 0.  0.
    9900012    2    3    3    0    0  0.92846104779E+01 -0.55189538616E+01  0.42035230381E+02  0.47787269169E+02  0.19999991450E+02 0.  0.
        -12    1    3    3    0    0 -0.92846104779E+01  0.55189538616E+01 -0.42035230381E+02  0.43400730831E+02  0.00000000000E+00 0.  1.
         11    1    4    4    0    0 -0.46821257621E+00 -0.65034737548E+00  0.83440159597E+00  0.11568928255E+01  0.51100000000E-03 0.  1.
        -11    1    4    4    0    0  0.69290470809E+01  0.44430667674E+01  0.32666543636E+02  0.33687618039E+02  0.51100000000E-03 0. -1.
         12    1    4    4    0    0  0.28237759731E+01 -0.93116732535E+01  0.85342851488E+01  0.12942758304E+02  0.00000000000E+00 0. -1.
</event>
<event>
 8    1  0.6457943E-011  0.9118800E+02  0.7816164E-02  0.1184000E+00
        -11   -1    0    0    0    0  0.00000000000E+00  0.00000000000E+00  0.45593999997E+02  0.45594000000E+02  0.51100000000E-03 0. -1.
         11   -1    0    0    0    0 -0.00000000000E+00 -0.00000000000E+00 -0.45593999997E+02  0.45594000000E+02  0.51100000000E-03 0.  1.
         23    2    1    2    0    0  0.00000000000E+00  0.00000000000E+00  0.00000000000E+00  0.91188000000E+02  0.91188000000E+02 0.  0.
    9900012    2    3    3    0    0  0.31107221534E+02 -0.12854630870E+02  0.27399316017E+02  0.47787270922E+02  0.19999999440E+02 0.  0.
        -12    1    3    3    0    0 -0.31107221534E+02  0.12854630870E+02 -0.27399316017E+02  0.43400729078E+02  0.00000000000E+00 0.  1.
         11    1    4    4    0    0  0.98323630006E+01 -0.10137499690E+02  0.57359209742E+01  0.15242868884E+02  0.51100000000E-03 0. -1.
        -11    1    4    4    0    0 -0.64112572469E+00 -0.89257405456E+00  0.45435114239E+01  0.46745295975E+01  0.51100000000E-03 0.  1.
         12    1    4    4    0    0  0.21915984258E+02 -0.18245571248E+01  0.17119883619E+02  0.27869872440E+02  0.00000000000E+00 0. -1.
</event>
<event>
 8    1  0.5542925E-011  0.9118800E+02  0.7816164E-02  0.1184000E+00
        -11   -1    0    0    0    0  0.00000000000E+00  0.00000000000E+00  0.45593999997E+02  0.45594000000E+02  0.51100000000E-03 0.  1.
         11   -1    0    0    0    0 -0.00000000000E+00 -0.00000000000E+00 -0.45593999997E+02  0.45594000000E+02  0.51100000000E-03 0. -1.
         23    2    1    2    0    0  0.00000000000E+00  0.00000000000E+00  0.00000000000E+00  0.91188000000E+02  0.91188000000E+02 0.  0.
    9900012    2    3    3    0    0  0.34756089134E+02  0.37895652808E+01 -0.25715301751E+02  0.47787270962E+02  0.19999999626E+02 0.  0.
         12    1    3    3    0    0 -0.34756089134E+02 -0.37895652808E+01  0.25715301751E+02  0.43400729038E+02  0.00000000000E+00 0. -1.
         11    1    4    4    0    0  0.10729525296E+02  0.59554080312E+01 -0.77384247076E+01  0.14507681245E+02  0.51100000000E-03 0. -1.
        -11    1    4    4    0    0  0.16578682902E+01  0.13809243992E+01  0.21021226300E+01  0.30123743586E+01  0.51100000000E-03 0.  1.
        -12    1    4    4    0    0  0.22368695547E+02 -0.35467671495E+01 -0.20078999673E+02  0.30267215359E+02  0.00000000000E+00 0.  1.
</event>
<event>
 8    1  0.5542925E-011  0.9118800E+02  0.7816164E-02  0.1184000E+00
        -11   -1    0    0    0    0  0.00000000000E+00  0.00000000000E+00  0.45593999997E+02  0.45594000000E+02  0.51100000000E-03 0. -1.
         11   -1    0    0    0    0 -0.00000000000E+00 -0.00000000000E+00 -0.45593999997E+02  0.45594000000E+02  0.51100000000E-03 0.  1.
         23    2    1    2    0    0  0.00000000000E+00 -0.35527136788E-14  0.00000000000E+00  0.91188000000E+02  0.91188000000E+02 0.  0.
    9900012    2    3    3    0    0  0.43326119667E+01  0.19455424165E+02  0.38553086208E+02  0.47787245259E+02  0.19999882435E+02 0.  0.
        -12    1    3    3    0    0 -0.43326119667E+01 -0.19455424165E+02 -0.38553086208E+02  0.43400754741E+02  0.00000000000E+00 0.  1.
         11    1    4    4    0    0  0.18296529254E+01  0.80369676952E+01  0.76699288882E+01  0.11259142462E+02  0.51100000000E-03 0. -1.
        -11    1    4    4    0    0  0.18518949312E+01  0.12006057884E+02  0.10301681541E+02  0.15927949761E+02  0.51100000000E-03 0.  1.
        -12    1    4    4    0    0  0.65106411013E+00 -0.58760141455E+00  0.20581475779E+02  0.20600153037E+02  0.00000000000E+00 0.  1.
</event>
<event>
 8    1  0.5542925E-011  0.9118800E+02  0.7816164E-02  0.1184000E+00
        -11   -1    0    0    0    0  0.00000000000E+00  0.00000000000E+00  0.45593999997E+02  0.45594000000E+02  0.51100000000E-03 0. -1.
         11   -1    0    0    0    0 -0.00000000000E+00 -0.00000000000E+00 -0.45593999997E+02  0.45594000000E+02  0.51100000000E-03 0.  1.
         23    2    1    2    0    0  0.35527136788E-14 -0.17763568394E-14 -0.71054273576E-14  0.91188000000E+02  0.91188000000E+02 0.  0.
    9900012    2    3    3    0    0  0.23290209085E+02  0.13240336623E+02  0.34145038053E+02  0.47787262947E+02  0.19999963082E+02 0.  0.
        -12    1    3    3    0    0 -0.23290209085E+02 -0.13240336623E+02 -0.34145038053E+02  0.43400737053E+02  0.00000000000E+00 0.  1.
         11    1    4    4    0    0  0.21786456327E+02  0.13904978166E+02  0.33076218643E+02  0.41976592728E+02  0.51100000000E-03 0. -1.
        -11    1    4    4    0    0  0.31600914964E+01  0.41015414448E+00  0.18529522921E+01  0.36861683556E+01  0.51100000000E-03 0.  1.
         12    1    4    4    0    0 -0.16563387393E+01 -0.10747956877E+01 -0.78413288232E+00  0.21245018632E+01  0.00000000000E+00 0. -1.
</event>
<event>
 8    1  0.5542925E-011  0.9118800E+02  0.7816164E-02  0.1184000E+00
        -11   -1    0    0    0    0  0.00000000000E+00  0.00000000000E+00  0.45593999997E+02  0.45594000000E+02  0.51100000000E-03 0.  1.
         11   -1    0    0    0    0 -0.00000000000E+00 -0.00000000000E+00 -0.45593999997E+02  0.45594000000E+02  0.51100000000E-03 0. -1.
         23    2    1    2    0    0  0.00000000000E+00 -0.73552275381E-15  0.17763568394E-14  0.91188000000E+02  0.91188000000E+02 0.  0.
    9900012    2    3    3    0    0  0.42777587425E+02  0.46558804772E-01 -0.73279179336E+01  0.47787279558E+02  0.20000038816E+02 0.  0.
         12    1    3    3    0    0 -0.42777587425E+02 -0.46558804772E-01  0.73279179336E+01  0.43400720442E+02  0.00000000000E+00 0. -1.
         11    1    4    4    0    0  0.10700581514E+02 -0.23293445602E+01 -0.23400989473E+01  0.11198408555E+02  0.51100000000E-03 0. -1.
        -11    1    4    4    0    0  0.12854923467E+02 -0.49621082194E+01  0.36802982607E+01  0.14262404106E+02  0.51100000000E-03 0.  1.
         12    1    4    4    0    0  0.19222082444E+02  0.73380115844E+01 -0.86681172469E+01  0.22326466897E+02  0.00000000000E+00 0. -1.
</event>
<event>
 8    1  0.5542925E-011  0.9118800E+02  0.7816164E-02  0.1184000E+00
        -11   -1    0    0    0    0  0.00000000000E+00  0.00000000000E+00  0.45593999997E+02  0.45594000000E+02  0.51100000000E-03 0. -1.
         11   -1    0    0    0    0 -0.00000000000E+00 -0.00000000000E+00 -0.45593999997E+02  0.45594000000E+02  0.51100000000E-03 0.  1.
         23    2    1    2    0    0 -0.35527136788E-14  0.00000000000E+00  0.00000000000E+00  0.91188000000E+02  0.91188000000E+02 0.  0.
    9900012    2    3    3    0    0 -0.25582244402E+02 -0.11619845720E+02  0.33077955193E+02  0.47787272323E+02  0.20000005827E+02 0.  0.
        -12    1    3    3    0    0  0.25582244402E+02  0.11619845720E+02 -0.33077955193E+02  0.43400727677E+02  0.00000000000E+00 0.  1.
         11    1    4    4    0    0 -0.11327697578E+02 -0.17986888232E+01  0.10998873810E+02  0.15891105665E+02  0.51100000000E-03 0. -1.
        -11    1    4    4    0    0 -0.11451178870E+02  0.11128296319E+01  0.89119426139E+01  0.14553027476E+02  0.51100000000E-03 0.  1.
        -12    1    4    4    0    0 -0.28033679531E+01 -0.10933986529E+02  0.13167138769E+02  0.17343139181E+02  0.00000000000E+00 0.  1.
</event>
<event>
 8    1  0.5542925E-011  0.9118800E+02  0.7816164E-02  0.1184000E+00
        -11   -1    0    0    0    0  0.00000000000E+00  0.00000000000E+00  0.45593999997E+02  0.45594000000E+02  0.51100000000E-03 0. -1.
         11   -1    0    0    0    0 -0.00000000000E+00 -0.00000000000E+00 -0.45593999997E+02  0.45594000000E+02  0.51100000000E-03 0.  1.
         23    2    1    2    0    0  0.55511151231E-16  0.00000000000E+00  0.71054273576E-14  0.91188000000E+02  0.91188000000E+02 0.  0.
    9900012    2    3    3    0    0 -0.34242413101E+00 -0.15627548557E+02  0.40488090803E+02  0.47787273910E+02  0.20000013067E+02 0.  0.
        -12    1    3    3    0    0  0.34242413101E+00  0.15627548557E+02 -0.40488090803E+02  0.43400726090E+02  0.00000000000E+00 0.  1.
         11    1    4    4    0    0 -0.93271065063E+00  0.23168355759E+01  0.78059534472E+01  0.81957663293E+01  0.51100000000E-03 0. -1.
        -11    1    4    4    0    0 -0.13572050452E+01 -0.34240816646E+01 -0.10007335800E+00  0.36846106604E+01  0.51100000000E-03 0.  1.
        -12    1    4    4    0    0  0.19474915648E+01 -0.14520302468E+02  0.32782210714E+02  0.35906896921E+02  0.00000000000E+00 0.  1.
</event>
<event>
 8    1  0.5542925E-011  0.9118800E+02  0.7816164E-02  0.1184000E+00
        -11   -1    0    0    0    0  0.00000000000E+00  0.00000000000E+00  0.45593999997E+02  0.45594000000E+02  0.51100000000E-03 0. -1.
         11   -1    0    0    0    0 -0.00000000000E+00 -0.00000000000E+00 -0.45593999997E+02  0.45594000000E+02  0.51100000000E-03 0.  1.
         23    2    1    2    0    0  0.00000000000E+00  0.00000000000E+00  0.00000000000E+00  0.91188000000E+02  0.91188000000E+02 0.  0.
    9900012    2    3    3    0    0  0.78682535601E+01 -0.29549872998E+02  0.30798086895E+02  0.47787233132E+02  0.19999827143E+02 0.  0.
        -12    1    3    3    0    0 -0.78682535601E+01  0.29549872998E+02 -0.30798086895E+02  0.43400766868E+02  0.00000000000E+00 0.  1.
         11    1    4    4    0    0  0.64565808746E+01 -0.61969680201E+01  0.50213478645E+01  0.10261763195E+02  0.51100000000E-03 0. -1.
        -11    1    4    4    0    0  0.33769479214E+01 -0.20502177579E+02  0.13521784012E+02  0.24790758477E+02  0.51100000000E-03 0.  1.
        -12    1    4    4    0    0 -0.19652752360E+01 -0.28507273990E+01  0.12254955019E+02  0.12734711460E+02  0.00000000000E+00 0.  1.
</event>
<event>
 8    1  0.5542925E-011  0.9118800E+02  0.7816164E-02  0.1184000E+00
        -11   -1    0    0    0    0  0.00000000000E+00  0.00000000000E+00  0.45593999997E+02  0.45594000000E+02  0.51100000000E-03 0. -1.
         11   -1    0    0    0    0 -0.00000000000E+00 -0.00000000000E+00 -0.45593999997E+02  0.45594000000E+02  0.51100000000E-03 0.  1.
         23    2    1    2    0    0  0.35527136788E-14  0.35527136788E-14 -0.71054273576E-14  0.91188000000E+02  0.91188000000E+02 0.  0.
    9900012    2    3    3    0    0  0.19834409998E+02  0.27705144563E+02 -0.26882043337E+02  0.47787272942E+02  0.20000008651E+02 0.  0.
         12    1    3    3    0    0 -0.19834409998E+02 -0.27705144563E+02  0.26882043337E+02  0.43400727058E+02  0.00000000000E+00 0. -1.
         11    1    4    4    0    0  0.49796230707E+01  0.11044334920E+02 -0.20886019959E+02  0.24145388995E+02  0.51100000000E-03 0. -1.
        -11    1    4    4    0    0  0.34571129053E+01  0.13084800308E+01 -0.39374091443E+00  0.37173622099E+01  0.51100000000E-03 0.  1.
        -12    1    4    4    0    0  0.11397674022E+02  0.15352329613E+02 -0.56022824636E+01  0.19924521737E+02  0.00000000000E+00 0.  1.
</event>
<event>
 8    1  0.5542925E-011  0.9118800E+02  0.7816164E-02  0.1184000E+00
        -11   -1    0    0    0    0  0.00000000000E+00  0.00000000000E+00  0.45593999997E+02  0.45594000000E+02  0.51100000000E-03 0. -1.
         11   -1    0    0    0    0 -0.00000000000E+00 -0.00000000000E+00 -0.45593999997E+02  0.45594000000E+02  0.51100000000E-03 0.  1.
         23    2    1    2    0    0  0.00000000000E+00  0.00000000000E+00  0.00000000000E+00  0.91188000000E+02  0.91188000000E+02 0.  0.
    9900012    2    3    3    0    0 -0.16984269648E+02  0.34301706259E+02  0.20458515299E+02  0.47787270559E+02  0.19999997788E+02 0.  0.
        -12    1    3    3    0    0  0.16984269648E+02 -0.34301706259E+02 -0.20458515299E+02  0.43400729441E+02  0.00000000000E+00 0.  1.
         11    1    4    4    0    0 -0.34987381018E+01  0.25201434295E+02  0.96363617386E+01  0.27206854406E+02  0.51100000000E-03 0. -1.
        -11    1    4    4    0    0 -0.31426753515E+01  0.58853986873E+01  0.39605562097E+01  0.77588872801E+01  0.51100000000E-03 0.  1.
        -12    1    4    4    0    0 -0.10342856195E+02  0.32148732763E+01  0.68615973508E+01  0.12821528874E+02  0.00000000000E+00 0.  1.
</event>
<event>
 8    1  0.5542925E-011  0.9118800E+02  0.7816164E-02  0.1184000E+00
        -11   -1    0    0    0    0  0.00000000000E+00  0.00000000000E+00  0.45593999997E+02  0.45594000000E+02  0.51100000000E-03 0. -1.
         11   -1    0    0    0    0 -0.00000000000E+00 -0.00000000000E+00 -0.45593999997E+02  0.45594000000E+02  0.51100000000E-03 0.  1.
         23    2    1    2    0    0 -0.88817841970E-15  0.00000000000E+00 -0.71054273576E-14  0.91188000000E+02  0.91188000000E+02 0.  0.
    9900012    2    3    3    0    0 -0.42180767611E+01  0.34705712477E+02 -0.25716623672E+02  0.47787269785E+02  0.19999994257E+02 0.  0.
         12    1    3    3    0    0  0.42180767611E+01 -0.34705712477E+02  0.25716623672E+02  0.43400730215E+02  0.00000000000E+00 0. -1.
         11    1    4    4    0    0 -0.61884594080E+01  0.17337937550E+02 -0.21732146326E+02  0.28481349907E+02  0.51100000000E-03 0. -1.
        -11    1    4    4    0    0 -0.39942312525E+00  0.83521747064E+01 -0.52878014717E+01  0.98933920283E+01  0.51100000000E-03 0.  1.
         12    1    4    4    0    0  0.23698057721E+01  0.90156002205E+01  0.13033241260E+01  0.94125278492E+01  0.00000000000E+00 0. -1.
</event>
<event>
 8    1  0.5542925E-011  0.9118800E+02  0.7816164E-02  0.1184000E+00
        -11   -1    0    0    0    0  0.00000000000E+00  0.00000000000E+00  0.45593999997E+02  0.45594000000E+02  0.51100000000E-03 0. -1.
         11   -1    0    0    0    0 -0.00000000000E+00 -0.00000000000E+00 -0.45593999997E+02  0.45594000000E+02  0.51100000000E-03 0.  1.
         23    2    1    2    0    0  0.00000000000E+00  0.00000000000E+00  0.00000000000E+00  0.91188000000E+02  0.91188000000E+02 0.  0.
    9900012    2    3    3    0    0 -0.10356518438E+02 -0.26527693292E+02 -0.32751294579E+02  0.47787270949E+02  0.19999999563E+02 0.  0.
         12    1    3    3    0    0  0.10356518438E+02  0.26527693292E+02  0.32751294579E+02  0.43400729051E+02  0.00000000000E+00 0. -1.
         11    1    4    4    0    0 -0.26969974588E+01 -0.63527119004E+01 -0.30948914235E+01  0.75636695437E+01  0.51100000000E-03 0. -1.
        -11    1    4    4    0    0  0.34343572835E+01 -0.11644066221E+02 -0.83582013217E+01  0.14739016850E+02  0.51100000000E-03 0.  1.
         12    1    4    4    0    0 -0.11093878263E+02 -0.85309151705E+01 -0.21298201834E+02  0.25484584555E+02  0.00000000000E+00 0. -1.
</event>
<event>
 8    1  0.5542925E-011  0.9118800E+02  0.7816164E-02  0.1184000E+00
        -11   -1    0    0    0    0  0.00000000000E+00  0.00000000000E+00  0.45593999997E+02  0.45594000000E+02  0.51100000000E-03 0. -1.
         11   -1    0    0    0    0 -0.00000000000E+00 -0.00000000000E+00 -0.45593999997E+02  0.45594000000E+02  0.51100000000E-03 0.  1.
         23    2    1    2    0    0  0.00000000000E+00  0.00000000000E+00 -0.71054273576E-14  0.91188000000E+02  0.91188000000E+02 0.  0.
    9900012    2    3    3    0    0  0.15754805486E+02 -0.51875743367E+01 -0.40106092209E+02  0.47787268950E+02  0.19999990452E+02 0.  0.
         12    1    3    3    0    0 -0.15754805486E+02  0.51875743367E+01  0.40106092209E+02  0.43400731050E+02  0.00000000000E+00 0. -1.
         11    1    4    4    0    0  0.54084207533E+01 -0.19645008299E+01 -0.22957918725E+02  0.23668044089E+02  0.51100000000E-03 0. -1.
        -11    1    4    4    0    0  0.12336695289E+02 -0.69991117379E+00 -0.16845262702E+02  0.20891309247E+02  0.51100000000E-03 0.  1.
         12    1    4    4    0    0 -0.19903105563E+01 -0.25231623330E+01 -0.30291078184E+00  0.32279156140E+01  0.00000000000E+00 0. -1.
</event>
<event>
 8    1  0.5542925E-011  0.9118800E+02  0.7816164E-02  0.1184000E+00
        -11   -1    0    0    0    0  0.00000000000E+00  0.00000000000E+00  0.45593999997E+02  0.45594000000E+02  0.51100000000E-03 0. -1.
         11   -1    0    0    0    0 -0.00000000000E+00 -0.00000000000E+00 -0.45593999997E+02  0.45594000000E+02  0.51100000000E-03 0.  1.
         23    2    1    2    0    0  0.00000000000E+00 -0.35527136788E-14  0.00000000000E+00  0.91188000000E+02  0.91188000000E+02 0.  0.
    9900012    2    3    3    0    0  0.16711682716E+02  0.17595580080E+02 -0.35982477159E+02  0.47787269130E+02  0.19999991273E+02 0.  0.
         12    1    3    3    0    0 -0.16711682716E+02 -0.17595580080E+02  0.35982477159E+02  0.43400730870E+02  0.00000000000E+00 0. -1.
         11    1    4    4    0    0 -0.92463546935E+00  0.58721722161E+01 -0.53938433555E+01  0.80268863011E+01  0.51100000000E-03 0.  1.
        -11    1    4    4    0    0  0.88359341052E+01  0.12531624275E+02 -0.13107208163E+02  0.20172115520E+02  0.51100000000E-03 0. -1.
        -12    1    4    4    0    0  0.88003840801E+01 -0.80821641190E+00 -0.17481425641E+02  0.19588267309E+02  0.00000000000E+00 0.  1.
</event>
<event>
 8    1  0.5542925E-011  0.9118800E+02  0.7816164E-02  0.1184000E+00
        -11   -1    0    0    0    0  0.00000000000E+00  0.00000000000E+00  0.45593999997E+02  0.45594000000E+02  0.51100000000E-03 0. -1.
         11   -1    0    0    0    0 -0.00000000000E+00 -0.00000000000E+00 -0.45593999997E+02  0.45594000000E+02  0.51100000000E-03 0.  1.
         23    2    1    2    0    0  0.00000000000E+00  0.00000000000E+00 -0.35527136788E-14  0.91188000000E+02  0.91188000000E+02 0.  0.
    9900012    2    3    3    0    0 -0.32635436289E+02  0.18154297286E+02  0.22112754572E+02  0.47787261222E+02  0.19999955214E+02 0.  0.
        -12    1    3    3    0    0  0.32635436289E+02 -0.18154297286E+02 -0.22112754572E+02  0.43400738778E+02  0.00000000000E+00 0.  1.
         11    1    4    4    0    0 -0.19688069321E+02  0.54023584202E+01  0.21200645964E+02  0.29432515007E+02  0.51100000000E-03 0. -1.
        -11    1    4    4    0    0 -0.55545743114E+00  0.56222031264E+00 -0.46649781645E+00  0.91773913048E+00  0.51100000000E-03 0.  1.
         12    1    4    4    0    0 -0.12391909537E+02  0.12189718554E+02  0.13786064253E+01  0.17437007085E+02  0.00000000000E+00 0. -1.
</event>
<event>
 8    1  0.5542925E-011  0.9118800E+02  0.7816164E-02  0.1184000E+00
        -11   -1    0    0    0    0  0.00000000000E+00  0.00000000000E+00  0.45593999997E+02  0.45594000000E+02  0.51100000000E-03 0. -1.
         11   -1    0    0    0    0 -0.00000000000E+00 -0.00000000000E+00 -0.45593999997E+02  0.45594000000E+02  0.51100000000E-03 0.  1.
         23    2    1    2    0    0  0.00000000000E+00  0.00000000000E+00  0.00000000000E+00  0.91188000000E+02  0.91188000000E+02 0.  0.
    9900012    2    3    3    0    0 -0.23289803632E+02 -0.25220373497E+02  0.26554490707E+02  0.47787272250E+02  0.20000005495E+02 0.  0.
        -12    1    3    3    0    0  0.23289803632E+02  0.25220373497E+02 -0.26554490707E+02  0.43400727750E+02  0.00000000000E+00 0.  1.
         11    1    4    4    0    0 -0.21820651489E+00 -0.53837995976E+01  0.13003583690E+02  0.14075727379E+02  0.51100000000E-03 0. -1.
        -11    1    4    4    0    0 -0.32077232018E+01 -0.41987903771E+01  0.63301403140E+00  0.53216572414E+01  0.51100000000E-03 0.  1.
         12    1    4    4    0    0 -0.19863873916E+02 -0.15637783522E+02  0.12917892985E+02  0.28389887629E+02  0.00000000000E+00 0. -1.
</event>
<event>
 8    1  0.5542925E-011  0.9118800E+02  0.7816164E-02  0.1184000E+00
        -11   -1    0    0    0    0  0.00000000000E+00  0.00000000000E+00  0.45593999997E+02  0.45594000000E+02  0.51100000000E-03 0. -1.
         11   -1    0    0    0    0 -0.00000000000E+00 -0.00000000000E+00 -0.45593999997E+02  0.45594000000E+02  0.51100000000E-03 0.  1.
         23    2    1    2    0    0  0.00000000000E+00  0.00000000000E+00  0.00000000000E+00  0.91188000000E+02  0.91188000000E+02 0.  0.
    9900012    2    3    3    0    0 -0.12306836754E+02  0.24081231555E+02  0.33944939833E+02  0.47787275532E+02  0.20000020459E+02 0.  0.
        -12    1    3    3    0    0  0.12306836754E+02 -0.24081231555E+02 -0.33944939833E+02  0.43400724468E+02  0.00000000000E+00 0.  1.
         11    1    4    4    0    0 -0.20427943570E+01 -0.10392946777E+01  0.79815441459E+01  0.83041067807E+01  0.51100000000E-03 0. -1.
        -11    1    4    4    0    0  0.24085028042E+01  0.33224550935E+01  0.62530002095E+01  0.74792784068E+01  0.51100000000E-03 0.  1.
         12    1    4    4    0    0 -0.12672545201E+02  0.21798071139E+02  0.19710395478E+02  0.32003890344E+02  0.00000000000E+00 0. -1.
</event>
<event>
 8    1  0.9233166E-011  0.9118800E+02  0.7816164E-02  0.1184000E+00
        -11   -1    0    0    0    0  0.00000000000E+00  0.00000000000E+00  0.45593999997E+02  0.45594000000E+02  0.51100000000E-03 0. -1.
         11   -1    0    0    0    0 -0.00000000000E+00 -0.00000000000E+00 -0.45593999997E+02  0.45594000000E+02  0.51100000000E-03 0.  1.
         23    2    1    2    0    0  0.00000000000E+00  0.00000000000E+00 -0.71054273576E-14  0.91188000000E+02  0.91188000000E+02 0.  0.
    9900012    2    3    3    0    0 -0.61651774433E+01  0.87795468691E+01  0.42053933841E+02  0.47787271807E+02  0.20000003479E+02 0.  0.
        -12    1    3    3    0    0  0.61651774433E+01 -0.87795468691E+01 -0.42053933841E+02  0.43400728193E+02  0.00000000000E+00 0.  1.
         11    1    4    4    0    0 -0.79672383228E+01  0.25334691871E-01  0.16744156022E+02  0.18543038842E+02  0.51100000000E-03 0. -1.
        -11    1    4    4    0    0 -0.12274676465E+01  0.14422224376E+01 -0.72886758415E+00  0.20292684886E+01  0.51100000000E-03 0.  1.
         12    1    4    4    0    0  0.30295285260E+01  0.73119897397E+01  0.26038645404E+02  0.27214964477E+02  0.00000000000E+00 0. -1.
</event>
<event>
 8    1  0.5542925E-011  0.9118800E+02  0.7816164E-02  0.1184000E+00
        -11   -1    0    0    0    0  0.00000000000E+00  0.00000000000E+00  0.45593999997E+02  0.45594000000E+02  0.51100000000E-03 0.  1.
         11   -1    0    0    0    0 -0.00000000000E+00 -0.00000000000E+00 -0.45593999997E+02  0.45594000000E+02  0.51100000000E-03 0. -1.
         23    2    1    2    0    0  0.17763568394E-14 -0.35527136788E-14  0.35527136788E-14  0.91188000000E+02  0.91188000000E+02 0.  0.
    9900012    2    3    3    0    0 -0.82609941347E+01 -0.31884965266E+02  0.28261781655E+02  0.47787270323E+02  0.19999996712E+02 0.  0.
        -12    1    3    3    0    0  0.82609941347E+01  0.31884965266E+02 -0.28261781655E+02  0.43400729677E+02  0.00000000000E+00 0.  1.
         11    1    4    4    0    0 -0.74642123561E+00 -0.13963675844E+02  0.99360571400E+01  0.17154201220E+02  0.51100000000E-03 0. -1.
        -11    1    4    4    0    0 -0.11542818780E+02 -0.16068124402E+02  0.12867261251E+02  0.23600586847E+02  0.51100000000E-03 0.  1.
         12    1    4    4    0    0  0.40282458809E+01 -0.18531650204E+01  0.54584632647E+01  0.70324822561E+01  0.00000000000E+00 0. -1.
</event>
<event>
 8    1  0.5542925E-011  0.9118800E+02  0.7816164E-02  0.1184000E+00
        -11   -1    0    0    0    0  0.00000000000E+00  0.00000000000E+00  0.45593999997E+02  0.45594000000E+02  0.51100000000E-03 0. -1.
         11   -1    0    0    0    0 -0.00000000000E+00 -0.00000000000E+00 -0.45593999997E+02  0.45594000000E+02  0.51100000000E-03 0.  1.
         23    2    1    2    0    0  0.17763568394E-14  0.00000000000E+00 -0.35527136788E-14  0.91188000000E+02  0.91188000000E+02 0.  0.
    9900012    2    3    3    0    0  0.92685334103E+01 -0.36485959302E+02 -0.21598433387E+02  0.47787271175E+02  0.20000000597E+02 0.  0.
         12    1    3    3    0    0 -0.92685334103E+01  0.36485959302E+02  0.21598433387E+02  0.43400728825E+02  0.00000000000E+00 0. -1.
         11    1    4    4    0    0  0.31053156902E+01  0.10369053949E+00 -0.10532540892E+01  0.32807135964E+01  0.51100000000E-03 0. -1.
        -11    1    4    4    0    0  0.47736334285E+01 -0.12174261556E+02 -0.14070971332E+02  0.19209176324E+02  0.51100000000E-03 0.  1.
         12    1    4    4    0    0  0.13895842916E+01 -0.24415388285E+02 -0.64742079660E+01  0.25297381256E+02  0.00000000000E+00 0. -1.
</event>
<event>
 8    1  0.5542925E-011  0.9118800E+02  0.7816164E-02  0.1184000E+00
        -11   -1    0    0    0    0  0.00000000000E+00  0.00000000000E+00  0.45593999997E+02  0.45594000000E+02  0.51100000000E-03 0.  1.
         11   -1    0    0    0    0 -0.00000000000E+00 -0.00000000000E+00 -0.45593999997E+02  0.45594000000E+02  0.51100000000E-03 0. -1.
         23    2    1    2    0    0  0.00000000000E+00  0.00000000000E+00  0.44408920985E-15  0.91188000000E+02  0.91188000000E+02 0.  0.
    9900012    2    3    3    0    0  0.17347039287E+02 -0.39774096782E+02  0.85126178774E+00  0.47787271971E+02  0.20000004223E+02 0.  0.
         12    1    3    3    0    0 -0.17347039287E+02  0.39774096782E+02 -0.85126178774E+00  0.43400728029E+02  0.00000000000E+00 0. -1.
         11    1    4    4    0    0  0.95179880053E+01 -0.16414477318E+02 -0.59749289432E+01  0.19892886604E+02  0.51100000000E-03 0.  1.
        -11    1    4    4    0    0 -0.24793388432E+01 -0.46092825933E+01 -0.54747506240E+00  0.52623508368E+01  0.51100000000E-03 0. -1.
        -12    1    4    4    0    0  0.10308390125E+02 -0.18750336871E+02  0.73736657933E+01  0.22632034530E+02  0.00000000000E+00 0.  1.
</event>
<event>
 8    1  0.5542925E-011  0.9118800E+02  0.7816164E-02  0.1184000E+00
        -11   -1    0    0    0    0  0.00000000000E+00  0.00000000000E+00  0.45593999997E+02  0.45594000000E+02  0.51100000000E-03 0.  1.
         11   -1    0    0    0    0 -0.00000000000E+00 -0.00000000000E+00 -0.45593999997E+02  0.45594000000E+02  0.51100000000E-03 0. -1.
         23    2    1    2    0    0 -0.71054273576E-14 -0.35527136788E-14  0.00000000000E+00  0.91188000000E+02  0.91188000000E+02 0.  0.
    9900012    2    3    3    0    0  0.36660793718E+02 -0.19619331574E+02  0.12437514487E+02  0.47787265743E+02  0.19999975828E+02 0.  0.
        -12    1    3    3    0    0 -0.36660793718E+02  0.19619331574E+02 -0.12437514487E+02  0.43400734257E+02  0.00000000000E+00 0.  1.
         11    1    4    4    0    0  0.17902273026E+02 -0.16256057489E+02  0.44605927282E+01  0.24589584632E+02  0.51100000000E-03 0. -1.
        -11    1    4    4    0    0  0.35849902350E+01 -0.14128409832E+01  0.68480195179E+01  0.78577125302E+01  0.51100000000E-03 0.  1.
        -12    1    4    4    0    0  0.15173530456E+02 -0.19504331013E+01  0.11289022414E+01  0.15339968581E+02  0.00000000000E+00 0.  1.
</event>
<event>
 8    1  0.5542925E-011  0.9118800E+02  0.7816164E-02  0.1184000E+00
        -11   -1    0    0    0    0  0.00000000000E+00  0.00000000000E+00  0.45593999997E+02  0.45594000000E+02  0.51100000000E-03 0. -1.
         11   -1    0    0    0    0 -0.00000000000E+00 -0.00000000000E+00 -0.45593999997E+02  0.45594000000E+02  0.51100000000E-03 0.  1.
         23    2    1    2    0    0  0.00000000000E+00  0.00000000000E+00  0.00000000000E+00  0.91188000000E+02  0.91188000000E+02 0.  0.
    9900012    2    3    3    0    0 -0.18328647794E+02 -0.18586193511E+02  0.34673359088E+02  0.47787219481E+02  0.19999764902E+02 0.  0.
        -12    1    3    3    0    0  0.18328647794E+02  0.18586193511E+02 -0.34673359088E+02  0.43400780519E+02  0.00000000000E+00 0.  1.
         11    1    4    4    0    0 -0.89431363592E+01 -0.69295581007E+01  0.12888653124E+02  0.17149805918E+02  0.51100000000E-03 0. -1.
        -11    1    4    4    0    0 -0.46382733663E+01 -0.79271445143E+01  0.12930384147E+01  0.92749743166E+01  0.51100000000E-03 0.  1.
        -12    1    4    4    0    0 -0.47472380688E+01 -0.37294908958E+01  0.20491667549E+02  0.21362439246E+02  0.00000000000E+00 0.  1.
</event>
<event>
 8    1  0.5542925E-011  0.9118800E+02  0.7816164E-02  0.1184000E+00
        -11   -1    0    0    0    0  0.00000000000E+00  0.00000000000E+00  0.45593999997E+02  0.45594000000E+02  0.51100000000E-03 0.  1.
         11   -1    0    0    0    0 -0.00000000000E+00 -0.00000000000E+00 -0.45593999997E+02  0.45594000000E+02  0.51100000000E-03 0. -1.
         23    2    1    2    0    0  0.00000000000E+00  0.00000000000E+00 -0.35527136788E-14  0.91188000000E+02  0.91188000000E+02 0.  0.
    9900012    2    3    3    0    0 -0.35551476466E+02  0.18079830181E+02 -0.17112442814E+02  0.47787269161E+02  0.19999991413E+02 0.  0.
         12    1    3    3    0    0  0.35551476466E+02 -0.18079830181E+02  0.17112442814E+02  0.43400730839E+02  0.00000000000E+00 0. -1.
         11    1    4    4    0    0 -0.20540778296E+02 -0.18766404562E+00 -0.72256691394E+01  0.21775423890E+02  0.51100000000E-03 0. -1.
        -11    1    4    4    0    0 -0.79709445924E+01  0.65208924031E+01 -0.32896605758E+01  0.10811099037E+02  0.51100000000E-03 0.  1.
         12    1    4    4    0    0 -0.70397535773E+01  0.11746601824E+02 -0.65971130989E+01  0.15200746234E+02  0.00000000000E+00 0. -1.
</event>
<event>
 8    1  0.5542925E-011  0.9118800E+02  0.7816164E-02  0.1184000E+00
        -11   -1    0    0    0    0  0.00000000000E+00  0.00000000000E+00  0.45593999997E+02  0.45594000000E+02  0.51100000000E-03 0.  1.
         11   -1    0    0    0    0 -0.00000000000E+00 -0.00000000000E+00 -0.45593999997E+02  0.45594000000E+02  0.51100000000E-03 0. -1.
         23    2    1    2    0    0  0.00000000000E+00 -0.71054273576E-14 -0.17763568394E-14  0.91188000000E+02  0.91188000000E+02 0.  0.
    9900012    2    3    3    0    0 -0.22676013242E+02 -0.35645539614E+02 -0.99406928201E+01  0.47787269077E+02  0.19999991030E+02 0.  0.
        -12    1    3    3    0    0  0.22676013242E+02  0.35645539614E+02  0.99406928201E+01  0.43400730923E+02  0.00000000000E+00 0.  1.
         11    1    4    4    0    0 -0.51184765215E+01 -0.27591022121E+01  0.20578610581E+01  0.61681633663E+01  0.51100000000E-03 0. -1.
        -11    1    4    4    0    0  0.12114984625E+01  0.64276175903E+00 -0.83334932585E+00  0.16047873889E+01  0.51100000000E-03 0.  1.
         12    1    4    4    0    0 -0.18769035183E+02 -0.33529199161E+02 -0.11165204552E+02  0.40014318322E+02  0.00000000000E+00 0. -1.
</event>
<event>
 8    1  0.5542925E-011  0.9118800E+02  0.7816164E-02  0.1184000E+00
        -11   -1    0    0    0    0  0.00000000000E+00  0.00000000000E+00  0.45593999997E+02  0.45594000000E+02  0.51100000000E-03 0. -1.
         11   -1    0    0    0    0 -0.00000000000E+00 -0.00000000000E+00 -0.45593999997E+02  0.45594000000E+02  0.51100000000E-03 0.  1.
         23    2    1    2    0    0  0.00000000000E+00  0.00000000000E+00  0.00000000000E+00  0.91188000000E+02  0.91188000000E+02 0.  0.
    9900012    2    3    3    0    0  0.35877804805E+01 -0.12577106111E+02 -0.41383168379E+02  0.47787281204E+02  0.20000046323E+02 0.  0.
         12    1    3    3    0    0 -0.35877804805E+01  0.12577106111E+02  0.41383168379E+02  0.43400718796E+02  0.00000000000E+00 0. -1.
         11    1    4    4    0    0 -0.20578012890E+01  0.25871108144E+01 -0.43470066370E+00  0.33341645790E+01  0.51100000000E-03 0. -1.
        -11    1    4    4    0    0  0.32367292122E+01 -0.20130534225E+01 -0.11406920256E+02  0.12026912740E+02  0.51100000000E-03 0.  1.
        -12    1    4    4    0    0  0.24088525573E+01 -0.13151163503E+02 -0.29541547459E+02  0.32426203885E+02  0.00000000000E+00 0.  1.
</event>
<event>
 8    1  0.5542925E-011  0.9118800E+02  0.7816164E-02  0.1184000E+00
        -11   -1    0    0    0    0  0.00000000000E+00  0.00000000000E+00  0.45593999997E+02  0.45594000000E+02  0.51100000000E-03 0. -1.
         11   -1    0    0    0    0 -0.00000000000E+00 -0.00000000000E+00 -0.45593999997E+02  0.45594000000E+02  0.51100000000E-03 0.  1.
         23    2    1    2    0    0  0.88817841970E-15  0.00000000000E+00  0.00000000000E+00  0.91188000000E+02  0.91188000000E+02 0.  0.
    9900012    2    3    3    0    0 -0.68045325427E+01 -0.29658401841E+02  0.30946740108E+02  0.47787272054E+02  0.20000004605E+02 0.  0.
        -12    1    3    3    0    0  0.68045325427E+01  0.29658401841E+02 -0.30946740108E+02  0.43400727946E+02  0.00000000000E+00 0.  1.
         11    1    4    4    0    0  0.10993877738E+01  0.66783408289E+00  0.15981449772E+01  0.20515173577E+01  0.51100000000E-03 0.  1.
        -11    1    4    4    0    0  0.20970807283E+01  0.77041058426E+00  0.31523363354E+01  0.38637423157E+01  0.51100000000E-03 0. -1.
         12    1    4    4    0    0 -0.10001001045E+02 -0.31096646508E+02  0.26196258796E+02  0.41872012381E+02  0.00000000000E+00 0. -1.
</event>
<event>
 8    1  0.5542925E-011  0.9118800E+02  0.7816164E-02  0.1184000E+00
        -11   -1    0    0    0    0  0.00000000000E+00  0.00000000000E+00  0.45593999997E+02  0.45594000000E+02  0.51100000000E-03 0. -1.
         11   -1    0    0    0    0 -0.00000000000E+00 -0.00000000000E+00 -0.45593999997E+02  0.45594000000E+02  0.51100000000E-03 0.  1.
         23    2    1    2    0    0  0.00000000000E+00  0.00000000000E+00  0.00000000000E+00  0.91188000000E+02  0.91188000000E+02 0.  0.
    9900012    2    3    3    0    0  0.26570346631E+02  0.19074494642E+02 -0.28527262971E+02  0.47787258087E+02  0.19999940924E+02 0.  0.
         12    1    3    3    0    0 -0.26570346631E+02 -0.19074494642E+02  0.28527262971E+02  0.43400741913E+02  0.00000000000E+00 0. -1.
         11    1    4    4    0    0 -0.47504077138E+00 -0.74833058552E+00 -0.15281173889E+01  0.17665801468E+01  0.51100000000E-03 0. -1.
        -11    1    4    4    0    0  0.60238367607E+01  0.75011766330E+01 -0.17299288285E+02  0.19794434461E+02  0.51100000000E-03 0.  1.
         12    1    4    4    0    0  0.21021550642E+02  0.12321648595E+02 -0.96998572970E+01  0.26226243480E+02  0.00000000000E+00 0. -1.
</event>
<event>
 8    1  0.5542925E-011  0.9118800E+02  0.7816164E-02  0.1184000E+00
        -11   -1    0    0    0    0  0.00000000000E+00  0.00000000000E+00  0.45593999997E+02  0.45594000000E+02  0.51100000000E-03 0. -1.
         11   -1    0    0    0    0 -0.00000000000E+00 -0.00000000000E+00 -0.45593999997E+02  0.45594000000E+02  0.51100000000E-03 0.  1.
         23    2    1    2    0    0  0.88817841970E-15  0.00000000000E+00  0.00000000000E+00  0.91188000000E+02  0.91188000000E+02 0.  0.
    9900012    2    3    3    0    0  0.50606080267E+01 -0.25863367327E+02  0.34483323475E+02  0.47787272806E+02  0.20000008032E+02 0.  0.
        -12    1    3    3    0    0 -0.50606080267E+01  0.25863367327E+02 -0.34483323475E+02  0.43400727194E+02  0.00000000000E+00 0.  1.
         11    1    4    4    0    0 -0.21913876176E+01 -0.11051823087E+02  0.12940238411E+02  0.17157935297E+02  0.51100000000E-03 0. -1.
        -11    1    4    4    0    0 -0.39588274887E+01 -0.12065811628E+01  0.43625833354E+01  0.60133423990E+01  0.51100000000E-03 0.  1.
        -12    1    4    4    0    0  0.11210823133E+02 -0.13604963077E+02  0.17180501728E+02  0.24615995111E+02  0.00000000000E+00 0.  1.
</event>
<event>
 8    1  0.5542925E-011  0.9118800E+02  0.7816164E-02  0.1184000E+00
        -11   -1    0    0    0    0  0.00000000000E+00  0.00000000000E+00  0.45593999997E+02  0.45594000000E+02  0.51100000000E-03 0. -1.
         11   -1    0    0    0    0 -0.00000000000E+00 -0.00000000000E+00 -0.45593999997E+02  0.45594000000E+02  0.51100000000E-03 0.  1.
         23    2    1    2    0    0 -0.35527136788E-14  0.00000000000E+00  0.00000000000E+00  0.91188000000E+02  0.91188000000E+02 0.  0.
    9900012    2    3    3    0    0 -0.17300227333E+02 -0.38172250694E+02 -0.11278510831E+02  0.47787269644E+02  0.19999993616E+02 0.  0.
         12    1    3    3    0    0  0.17300227333E+02  0.38172250694E+02  0.11278510831E+02  0.43400730356E+02  0.00000000000E+00 0. -1.
         11    1    4    4    0    0  0.20976490644E+01 -0.10489951165E+02 -0.22662755779E+00  0.10700026512E+02  0.51100000000E-03 0. -1.
        -11    1    4    4    0    0 -0.11529459745E+01 -0.31455203885E-01  0.12943356760E+01  0.17336605646E+01  0.51100000000E-03 0.  1.
        -12    1    4    4    0    0 -0.18244930423E+02 -0.27650844325E+02 -0.12346218950E+02  0.35353582568E+02  0.00000000000E+00 0.  1.
</event>
<event>
 8    1  0.5542925E-011  0.9118800E+02  0.7816164E-02  0.1184000E+00
        -11   -1    0    0    0    0  0.00000000000E+00  0.00000000000E+00  0.45593999997E+02  0.45594000000E+02  0.51100000000E-03 0.  1.
         11   -1    0    0    0    0 -0.00000000000E+00 -0.00000000000E+00 -0.45593999997E+02  0.45594000000E+02  0.51100000000E-03 0. -1.
         23    2    1    2    0    0  0.00000000000E+00 -0.71054273576E-14  0.00000000000E+00  0.91188000000E+02  0.91188000000E+02 0.  0.
    9900012    2    3    3    0    0  0.35645855027E+02  0.22902227871E+02  0.94066164521E+01  0.47787268957E+02  0.19999990480E+02 0.  0.
         12    1    3    3    0    0 -0.35645855027E+02 -0.22902227871E+02 -0.94066164521E+01  0.43400731043E+02  0.00000000000E+00 0. -1.
         11    1    4    4    0    0 -0.45861792834E+00 -0.10379233783E+01 -0.15895077878E+01  0.19529850516E+01  0.51100000000E-03 0. -1.
        -11    1    4    4    0    0  0.11629938140E+01 -0.95760069412E+00 -0.12529483968E+00  0.15117052487E+01  0.51100000000E-03 0.  1.
        -12    1    4    4    0    0  0.34941479141E+02  0.24897751943E+02  0.11121419080E+02  0.44322578656E+02  0.00000000000E+00 0.  1.
</event>
<event>
 8    1  0.5542925E-011  0.9118800E+02  0.7816164E-02  0.1184000E+00
        -11   -1    0    0    0    0  0.00000000000E+00  0.00000000000E+00  0.45593999997E+02  0.45594000000E+02  0.51100000000E-03 0. -1.
         11   -1    0    0    0    0 -0.00000000000E+00 -0.00000000000E+00 -0.45593999997E+02  0.45594000000E+02  0.51100000000E-03 0.  1.
         23    2    1    2    0    0  0.00000000000E+00  0.00000000000E+00  0.00000000000E+00  0.91188000000E+02  0.91188000000E+02 0.  0.
    9900012    2    3    3    0    0 -0.22192924061E+02 -0.13925420256E+02 -0.34600213813E+02  0.47787331761E+02  0.20000276830E+02 0.  0.
         12    1    3    3    0    0  0.22192924061E+02  0.13925420256E+02  0.34600213813E+02  0.43400668239E+02  0.00000000000E+00 0. -1.
         11    1    4    4    0    0  0.17021649528E+00 -0.87424874045E+01 -0.67515659641E+01  0.11047339177E+02  0.51100000000E-03 0. -1.
        -11    1    4    4    0    0 -0.55968206420E+01 -0.17563408788E+01 -0.12261551280E+02  0.13592452856E+02  0.51100000000E-03 0.  1.
        -12    1    4    4    0    0 -0.16766319915E+02 -0.34265919729E+01 -0.15587096568E+02  0.23147539728E+02  0.00000000000E+00 0.  1.
</event>
<event>
 8    1  0.5542925E-011  0.9118800E+02  0.7816164E-02  0.1184000E+00
        -11   -1    0    0    0    0  0.00000000000E+00  0.00000000000E+00  0.45593999997E+02  0.45594000000E+02  0.51100000000E-03 0. -1.
         11   -1    0    0    0    0 -0.00000000000E+00 -0.00000000000E+00 -0.45593999997E+02  0.45594000000E+02  0.51100000000E-03 0.  1.
         23    2    1    2    0    0  0.00000000000E+00  0.35527136788E-14  0.00000000000E+00  0.91188000000E+02  0.91188000000E+02 0.  0.
    9900012    2    3    3    0    0  0.20177461443E+02  0.28305031206E+02  0.25986896260E+02  0.47787268220E+02  0.19999987121E+02 0.  0.
        -12    1    3    3    0    0 -0.20177461443E+02 -0.28305031206E+02 -0.25986896260E+02  0.43400731780E+02  0.00000000000E+00 0.  1.
         11    1    4    4    0    0  0.61011918473E+01  0.10331027706E+02  0.16246071949E+02  0.20196275138E+02  0.51100000000E-03 0. -1.
        -11    1    4    4    0    0  0.47734729485E+01  0.65432266254E+01  0.99776803389E+01  0.12851224217E+02  0.51100000000E-03 0.  1.
        -12    1    4    4    0    0  0.93027966472E+01  0.11430776875E+02 -0.23685602801E+00  0.14739768865E+02  0.00000000000E+00 0.  1.
</event>
<event>
 8    1  0.5542925E-011  0.9118800E+02  0.7816164E-02  0.1184000E+00
        -11   -1    0    0    0    0  0.00000000000E+00  0.00000000000E+00  0.45593999997E+02  0.45594000000E+02  0.51100000000E-03 0. -1.
         11   -1    0    0    0    0 -0.00000000000E+00 -0.00000000000E+00 -0.45593999997E+02  0.45594000000E+02  0.51100000000E-03 0.  1.
         23    2    1    2    0    0  0.35527136788E-14  0.44408920985E-15  0.00000000000E+00  0.91188000000E+02  0.91188000000E+02 0.  0.
    9900012    2    3    3    0    0 -0.31101777264E+02  0.25772608949E+01 -0.30160578640E+02  0.47787270437E+02  0.19999997229E+02 0.  0.
         12    1    3    3    0    0  0.31101777264E+02 -0.25772608949E+01  0.30160578640E+02  0.43400729563E+02  0.00000000000E+00 0. -1.
         11    1    4    4    0    0 -0.19315889243E+01 -0.20938319232E+01 -0.18364513922E+01  0.33893541969E+01  0.51100000000E-03 0. -1.
        -11    1    4    4    0    0 -0.28498714297E+02  0.65270385047E+00 -0.28514036994E+02  0.40319387952E+02  0.51100000000E-03 0.  1.
         12    1    4    4    0    0 -0.67147404323E+00  0.40183889676E+01  0.18990974530E+00  0.40785282881E+01  0.00000000000E+00 0. -1.
</event>
<event>
 8    1  0.5542925E-011  0.9118800E+02  0.7816164E-02  0.1184000E+00
        -11   -1    0    0    0    0  0.00000000000E+00  0.00000000000E+00  0.45593999997E+02  0.45594000000E+02  0.51100000000E-03 0. -1.
         11   -1    0    0    0    0 -0.00000000000E+00 -0.00000000000E+00 -0.45593999997E+02  0.45594000000E+02  0.51100000000E-03 0.  1.
         23    2    1    2    0    0 -0.17763568394E-14  0.17763568394E-14  0.00000000000E+00  0.91188000000E+02  0.91188000000E+02 0.  0.
    9900012    2    3    3    0    0  0.10972182311E+01  0.13138763068E+02  0.41349630092E+02  0.47787275449E+02  0.20000020081E+02 0.  0.
        -12    1    3    3    0    0 -0.10972182311E+01 -0.13138763068E+02 -0.41349630092E+02  0.43400724551E+02  0.00000000000E+00 0.  1.
         11    1    4    4    0    0 -0.87354174842E+01  0.74042202676E+01  0.20396342540E+02  0.23391040714E+02  0.51100000000E-03 0. -1.
        -11    1    4    4    0    0  0.21559764102E+01  0.25944653929E+01  0.10638101309E+02  0.11160138202E+02  0.51100000000E-03 0.  1.
        -12    1    4    4    0    0  0.76766593051E+01  0.31400774071E+01  0.10315186243E+02  0.13236096533E+02  0.00000000000E+00 0.  1.
</event>
<event>
 8    1  0.5542925E-011  0.9118800E+02  0.7816164E-02  0.1184000E+00
        -11   -1    0    0    0    0  0.00000000000E+00  0.00000000000E+00  0.45593999997E+02  0.45594000000E+02  0.51100000000E-03 0. -1.
         11   -1    0    0    0    0 -0.00000000000E+00 -0.00000000000E+00 -0.45593999997E+02  0.45594000000E+02  0.51100000000E-03 0.  1.
         23    2    1    2    0    0  0.35527136788E-14 -0.35527136788E-14 -0.35527136788E-14  0.91188000000E+02  0.91188000000E+02 0.  0.
    9900012    2    3    3    0    0 -0.29210127346E+02 -0.24081145883E+02  0.21224748075E+02  0.47787273538E+02  0.20000011369E+02 0.  0.
        -12    1    3    3    0    0  0.29210127346E+02  0.24081145883E+02 -0.21224748075E+02  0.43400726462E+02  0.00000000000E+00 0.  1.
         11    1    4    4    0    0 -0.10832604050E+02 -0.20966852499E+01  0.65014150434E+01  0.12806630993E+02  0.51100000000E-03 0. -1.
        -11    1    4    4    0    0 -0.57831124367E+01 -0.21611475810E+00  0.60643286106E+01  0.83825519266E+01  0.51100000000E-03 0.  1.
        -12    1    4    4    0    0 -0.12594410859E+02 -0.21768345875E+02  0.86590044209E+01  0.26598090619E+02  0.00000000000E+00 0.  1.
</event>
<event>
 8    1  0.5542925E-011  0.9118800E+02  0.7816164E-02  0.1184000E+00
        -11   -1    0    0    0    0  0.00000000000E+00  0.00000000000E+00  0.45593999997E+02  0.45594000000E+02  0.51100000000E-03 0. -1.
         11   -1    0    0    0    0 -0.00000000000E+00 -0.00000000000E+00 -0.45593999997E+02  0.45594000000E+02  0.51100000000E-03 0.  1.
         23    2    1    2    0    0  0.00000000000E+00  0.88817841970E-15  0.00000000000E+00  0.91188000000E+02  0.91188000000E+02 0.  0.
    9900012    2    3    3    0    0  0.12772876502E+02  0.51661524989E+01  0.41155653932E+02  0.47787270094E+02  0.19999995667E+02 0.  0.
        -12    1    3    3    0    0 -0.12772876502E+02 -0.51661524989E+01 -0.41155653932E+02  0.43400729906E+02  0.00000000000E+00 0.  1.
         11    1    4    4    0    0 -0.12496948218E+00  0.18012488726E+01  0.25809107166E+02  0.25872188308E+02  0.51100000000E-03 0. -1.
        -11    1    4    4    0    0  0.20799254436E+00 -0.91378318597E+00 -0.58343977439E+00  0.11039306323E+01  0.51100000000E-03 0.  1.
        -12    1    4    4    0    0  0.12689853440E+02  0.42786868123E+01  0.15929986540E+02  0.20811151154E+02  0.00000000000E+00 0.  1.
</event>
<event>
 8    1  0.5542925E-011  0.9118800E+02  0.7816164E-02  0.1184000E+00
        -11   -1    0    0    0    0  0.00000000000E+00  0.00000000000E+00  0.45593999997E+02  0.45594000000E+02  0.51100000000E-03 0. -1.
         11   -1    0    0    0    0 -0.00000000000E+00 -0.00000000000E+00 -0.45593999997E+02  0.45594000000E+02  0.51100000000E-03 0.  1.
         23    2    1    2    0    0  0.88817841970E-15  0.00000000000E+00  0.00000000000E+00  0.91188000000E+02  0.91188000000E+02 0.  0.
    9900012    2    3    3    0    0  0.38820794917E+01 -0.12623878795E+02  0.41342353349E+02  0.47787273768E+02  0.20000012417E+02 0.  0.
        -12    1    3    3    0    0 -0.38820794917E+01  0.12623878795E+02 -0.41342353349E+02  0.43400726232E+02  0.00000000000E+00 0.  1.
         11    1    4    4    0    0 -0.68020955245E+00  0.84143691162E+00  0.95311598757E+01  0.95923777005E+01  0.51100000000E-03 0. -1.
        -11    1    4    4    0    0  0.38750251746E+01 -0.15611333489E+02  0.17748651920E+02  0.23952958036E+02  0.51100000000E-03 0.  1.
        -12    1    4    4    0    0  0.68726386959E+00  0.21460177823E+01  0.14062541554E+02  0.14241938032E+02  0.00000000000E+00 0.  1.
</event>
<event>
 8    1  0.5542925E-011  0.9118800E+02  0.7816164E-02  0.1184000E+00
        -11   -1    0    0    0    0  0.00000000000E+00  0.00000000000E+00  0.45593999997E+02  0.45594000000E+02  0.51100000000E-03 0.  1.
         11   -1    0    0    0    0 -0.00000000000E+00 -0.00000000000E+00 -0.45593999997E+02  0.45594000000E+02  0.51100000000E-03 0. -1.
         23    2    1    2    0    0  0.00000000000E+00  0.00000000000E+00  0.88817841970E-15  0.91188000000E+02  0.91188000000E+02 0.  0.
    9900012    2    3    3    0    0  0.19117971174E+02  0.38735408264E+02 -0.42065084266E+01  0.47787269726E+02  0.19999993987E+02 0.  0.
        -12    1    3    3    0    0 -0.19117971174E+02 -0.38735408264E+02  0.42065084266E+01  0.43400730274E+02  0.00000000000E+00 0.  1.
         11    1    4    4    0    0  0.46975092539E+01  0.18199327508E+02 -0.59570913078E+01  0.19717227291E+02  0.51100000000E-03 0. -1.
        -11    1    4    4    0    0  0.28753579257E+01  0.23538372388E+01 -0.43147761803E+01  0.56943416384E+01  0.51100000000E-03 0.  1.
        -12    1    4    4    0    0  0.11545103995E+02  0.18182243517E+02  0.60653590615E+01  0.22375700796E+02  0.00000000000E+00 0.  1.
</event>
<event>
 8    1  0.7617882E-011  0.9118800E+02  0.7816164E-02  0.1184000E+00
        -11   -1    0    0    0    0  0.00000000000E+00  0.00000000000E+00  0.45593999997E+02  0.45594000000E+02  0.51100000000E-03 0. -1.
         11   -1    0    0    0    0 -0.00000000000E+00 -0.00000000000E+00 -0.45593999997E+02  0.45594000000E+02  0.51100000000E-03 0.  1.
         23    2    1    2    0    0  0.00000000000E+00  0.35527136788E-14 -0.71054273576E-14  0.91188000000E+02  0.91188000000E+02 0.  0.
    9900012    2    3    3    0    0  0.54282010968E+01 -0.21282549218E+02  0.37432783130E+02  0.47787245153E+02  0.19999881952E+02 0.  0.
        -12    1    3    3    0    0 -0.54282010968E+01  0.21282549218E+02 -0.37432783130E+02  0.43400754847E+02  0.00000000000E+00 0.  1.
         11    1    4    4    0    0  0.64641948558E+01 -0.85139308080E+01  0.23034078942E+02  0.25393732020E+02  0.51100000000E-03 0. -1.
        -11    1    4    4    0    0 -0.11445404950E+00  0.19245339018E+01  0.37742785070E+01  0.42381728348E+01  0.51100000000E-03 0.  1.
         12    1    4    4    0    0 -0.92153970953E+00 -0.14693152312E+02  0.10624425682E+02  0.18155340299E+02  0.00000000000E+00 0. -1.
</event>
<event>
 8    1  0.5542925E-011  0.9118800E+02  0.7816164E-02  0.1184000E+00
        -11   -1    0    0    0    0  0.00000000000E+00  0.00000000000E+00  0.45593999997E+02  0.45594000000E+02  0.51100000000E-03 0. -1.
         11   -1    0    0    0    0 -0.00000000000E+00 -0.00000000000E+00 -0.45593999997E+02  0.45594000000E+02  0.51100000000E-03 0.  1.
         23    2    1    2    0    0  0.88817841970E-15  0.35527136788E-14  0.00000000000E+00  0.91188000000E+02  0.91188000000E+02 0.  0.
    9900012    2    3    3    0    0  0.32094307367E+01 -0.16895291994E+02 -0.39848112945E+02  0.47787269102E+02  0.19999991141E+02 0.  0.
         12    1    3    3    0    0 -0.32094307367E+01  0.16895291994E+02  0.39848112945E+02  0.43400730898E+02  0.00000000000E+00 0. -1.
         11    1    4    4    0    0  0.45249190454E+01  0.14120603603E+01 -0.11832379888E+02  0.12746529759E+02  0.51100000000E-03 0. -1.
        -11    1    4    4    0    0  0.52332416527E+00 -0.53821590545E+01 -0.17065530925E+01  0.56704345502E+01  0.51100000000E-03 0.  1.
         12    1    4    4    0    0 -0.18388124740E+01 -0.12925193300E+02 -0.26309179965E+02  0.29370304792E+02  0.00000000000E+00 0. -1.
</event>
<event>
 8    1  0.5542925E-011  0.9118800E+02  0.7816164E-02  0.1184000E+00
        -11   -1    0    0    0    0  0.00000000000E+00  0.00000000000E+00  0.45593999997E+02  0.45594000000E+02  0.51100000000E-03 0. -1.
         11   -1    0    0    0    0 -0.00000000000E+00 -0.00000000000E+00 -0.45593999997E+02  0.45594000000E+02  0.51100000000E-03 0.  1.
         23    2    1    2    0    0 -0.53290705182E-14 -0.71054273576E-14 -0.71054273576E-14  0.91188000000E+02  0.91188000000E+02 0.  0.
    9900012    2    3    3    0    0 -0.10094700967E+02 -0.23120966846E+02 -0.35314874694E+02  0.47787280304E+02  0.20000042216E+02 0.  0.
         12    1    3    3    0    0  0.10094700967E+02  0.23120966846E+02  0.35314874694E+02  0.43400719696E+02  0.00000000000E+00 0. -1.
         11    1    4    4    0    0 -0.29133832826E+01 -0.26305027255E+01 -0.16419210816E+01  0.42547916329E+01  0.51100000000E-03 0. -1.
        -11    1    4    4    0    0 -0.11784188198E+02 -0.18211699747E+02 -0.30724713171E+02  0.37610385519E+02  0.51100000000E-03 0.  1.
         12    1    4    4    0    0  0.46028705139E+01 -0.22787643728E+01 -0.29482404413E+01  0.59221031513E+01  0.00000000000E+00 0. -1.
</event>
<event>
 8    1  0.5542925E-011  0.9118800E+02  0.7816164E-02  0.1184000E+00
        -11   -1    0    0    0    0  0.00000000000E+00  0.00000000000E+00  0.45593999997E+02  0.45594000000E+02  0.51100000000E-03 0. -1.
         11   -1    0    0    0    0 -0.00000000000E+00 -0.00000000000E+00 -0.45593999997E+02  0.45594000000E+02  0.51100000000E-03 0.  1.
         23    2    1    2    0    0  0.88817841970E-15  0.00000000000E+00  0.35527136788E-14  0.91188000000E+02  0.91188000000E+02 0.  0.
    9900012    2    3    3    0    0 -0.35922747446E+01 -0.34861098141E+02  0.25601223827E+02  0.47787271171E+02  0.20000000578E+02 0.  0.
        -12    1    3    3    0    0  0.35922747446E+01  0.34861098141E+02 -0.25601223827E+02  0.43400728829E+02  0.00000000000E+00 0.  1.
         11    1    4    4    0    0 -0.42069974461E+01 -0.23409758513E+02  0.11515876868E+02  0.26425953936E+02  0.51100000000E-03 0. -1.
        -11    1    4    4    0    0 -0.51751706457E+01 -0.72399043076E+01  0.77109006810E+01  0.11775253508E+02  0.51100000000E-03 0.  1.
         12    1    4    4    0    0  0.57898933471E+01 -0.42114353199E+01  0.63744462785E+01  0.95860637272E+01  0.00000000000E+00 0. -1.
</event>
<event>
 8    1  0.5542925E-011  0.9118800E+02  0.7816164E-02  0.1184000E+00
        -11   -1    0    0    0    0  0.00000000000E+00  0.00000000000E+00  0.45593999997E+02  0.45594000000E+02  0.51100000000E-03 0. -1.
         11   -1    0    0    0    0 -0.00000000000E+00 -0.00000000000E+00 -0.45593999997E+02  0.45594000000E+02  0.51100000000E-03 0.  1.
         23    2    1    2    0    0  0.00000000000E+00  0.00000000000E+00  0.00000000000E+00  0.91188000000E+02  0.91188000000E+02 0.  0.
    9900012    2    3    3    0    0 -0.13068676751E+02 -0.12559307080E+02 -0.39434734415E+02  0.47787253639E+02  0.19999920642E+02 0.  0.
         12    1    3    3    0    0  0.13068676751E+02  0.12559307080E+02  0.39434734415E+02  0.43400746361E+02  0.00000000000E+00 0. -1.
         11    1    4    4    0    0 -0.45666867600E+01 -0.48827209878E+01 -0.62642804659E+01  0.91617030199E+01  0.51100000000E-03 0.  1.
        -11    1    4    4    0    0 -0.69462077100E+01 -0.43752594644E+01 -0.38296396269E+01  0.90586332779E+01  0.51100000000E-03 0. -1.
        -12    1    4    4    0    0 -0.15557822808E+01 -0.33013266275E+01 -0.29340814322E+02  0.29566917341E+02  0.00000000000E+00 0.  1.
</event>
<event>
 8    1  0.5542925E-011  0.9118800E+02  0.7816164E-02  0.1184000E+00
        -11   -1    0    0    0    0  0.00000000000E+00  0.00000000000E+00  0.45593999997E+02  0.45594000000E+02  0.51100000000E-03 0. -1.
         11   -1    0    0    0    0 -0.00000000000E+00 -0.00000000000E+00 -0.45593999997E+02  0.45594000000E+02  0.51100000000E-03 0.  1.
         23    2    1    2    0    0 -0.35527136788E-14  0.00000000000E+00  0.00000000000E+00  0.91188000000E+02  0.91188000000E+02 0.  0.
    9900012    2    3    3    0    0 -0.21295462400E+02  0.26279901716E+02 -0.27193629133E+02  0.47787269379E+02  0.19999992406E+02 0.  0.
         12    1    3    3    0    0  0.21295462400E+02 -0.26279901716E+02  0.27193629133E+02  0.43400730621E+02  0.00000000000E+00 0. -1.
         11    1    4    4    0    0 -0.51817226959E+01  0.15868136082E+02 -0.12240012344E+02  0.20699417751E+02  0.51100000000E-03 0. -1.
        -11    1    4    4    0    0 -0.82656235792E+01  0.61572349418E+01 -0.14952561837E+02  0.18160704310E+02  0.51100000000E-03 0.  1.
         12    1    4    4    0    0 -0.78481161252E+01  0.42545306921E+01 -0.10549522717E-02  0.89271473180E+01  0.00000000000E+00 0. -1.
</event>
<event>
 8    1  0.5542925E-011  0.9118800E+02  0.7816164E-02  0.1184000E+00
        -11   -1    0    0    0    0  0.00000000000E+00  0.00000000000E+00  0.45593999997E+02  0.45594000000E+02  0.51100000000E-03 0. -1.
         11   -1    0    0    0    0 -0.00000000000E+00 -0.00000000000E+00 -0.45593999997E+02  0.45594000000E+02  0.51100000000E-03 0.  1.
         23    2    1    2    0    0  0.00000000000E+00  0.00000000000E+00  0.00000000000E+00  0.91188000000E+02  0.91188000000E+02 0.  0.
    9900012    2    3    3    0    0  0.41340274241E+01 -0.27042791845E+02 -0.33693033313E+02  0.47787271120E+02  0.20000000343E+02 0.  0.
         12    1    3    3    0    0 -0.41340274241E+01  0.27042791845E+02  0.33693033313E+02  0.43400728880E+02  0.00000000000E+00 0. -1.
         11    1    4    4    0    0 -0.11057082796E+01 -0.84467390956E+01 -0.40822238377E+01  0.94464037534E+01  0.51100000000E-03 0. -1.
        -11    1    4    4    0    0  0.27942274035E+01 -0.14452941486E+02 -0.91736183380E+01  0.17345042463E+02  0.51100000000E-03 0.  1.
         12    1    4    4    0    0  0.24455083003E+01 -0.41431112636E+01 -0.20437191137E+02  0.20995824903E+02  0.00000000000E+00 0. -1.
</event>
<event>
 8    1  0.5542925E-011  0.9118800E+02  0.7816164E-02  0.1184000E+00
        -11   -1    0    0    0    0  0.00000000000E+00  0.00000000000E+00  0.45593999997E+02  0.45594000000E+02  0.51100000000E-03 0. -1.
         11   -1    0    0    0    0 -0.00000000000E+00 -0.00000000000E+00 -0.45593999997E+02  0.45594000000E+02  0.51100000000E-03 0.  1.
         23    2    1    2    0    0  0.00000000000E+00  0.00000000000E+00 -0.35527136788E-14  0.91188000000E+02  0.91188000000E+02 0.  0.
    9900012    2    3    3    0    0  0.24540161207E+02  0.16565866366E+02 -0.31732885422E+02  0.47787268927E+02  0.19999990344E+02 0.  0.
         12    1    3    3    0    0 -0.24540161207E+02 -0.16565866366E+02  0.31732885422E+02  0.43400731073E+02  0.00000000000E+00 0. -1.
         11    1    4    4    0    0  0.28220192191E+01  0.70759362712E+01 -0.19257033110E+02  0.20709079918E+02  0.51100000000E-03 0. -1.
        -11    1    4    4    0    0  0.25726904554E+01  0.22931769132E+01 -0.84244709569E+00  0.35478322825E+01  0.51100000000E-03 0.  1.
        -12    1    4    4    0    0  0.19145451532E+02  0.71967531815E+01 -0.11633405216E+02  0.23530356726E+02  0.00000000000E+00 0.  1.
</event>
<event>
 8    1  0.5542925E-011  0.9118800E+02  0.7816164E-02  0.1184000E+00
        -11   -1    0    0    0    0  0.00000000000E+00  0.00000000000E+00  0.45593999997E+02  0.45594000000E+02  0.51100000000E-03 0. -1.
         11   -1    0    0    0    0 -0.00000000000E+00 -0.00000000000E+00 -0.45593999997E+02  0.45594000000E+02  0.51100000000E-03 0.  1.
         23    2    1    2    0    0  0.17763568394E-14  0.00000000000E+00  0.00000000000E+00  0.91188000000E+02  0.91188000000E+02 0.  0.
    9900012    2    3    3    0    0 -0.96729921025E+01  0.12016796764E+02  0.40566649446E+02  0.47787271573E+02  0.20000002410E+02 0.  0.
        -12    1    3    3    0    0  0.96729921025E+01 -0.12016796764E+02 -0.40566649446E+02  0.43400728427E+02  0.00000000000E+00 0.  1.
         11    1    4    4    0    0  0.66825663477E-01  0.51400463717E+01  0.14328577014E+02  0.15222767878E+02  0.51100000000E-03 0. -1.
        -11    1    4    4    0    0  0.13130123811E+01 -0.12718935485E+01  0.14157426919E+02  0.14274958912E+02  0.51100000000E-03 0.  1.
        -12    1    4    4    0    0 -0.11052830147E+02  0.81486439411E+01  0.12080645514E+02  0.18289544783E+02  0.00000000000E+00 0.  1.
</event>
<event>
 8    1  0.5542925E-011  0.9118800E+02  0.7816164E-02  0.1184000E+00
        -11   -1    0    0    0    0  0.00000000000E+00  0.00000000000E+00  0.45593999997E+02  0.45594000000E+02  0.51100000000E-03 0.  1.
         11   -1    0    0    0    0 -0.00000000000E+00 -0.00000000000E+00 -0.45593999997E+02  0.45594000000E+02  0.51100000000E-03 0. -1.
         23    2    1    2    0    0  0.00000000000E+00 -0.35527136788E-14 -0.35527136788E-14  0.91188000000E+02  0.91188000000E+02 0.  0.
    9900012    2    3    3    0    0  0.22885296982E+02 -0.29313451439E+02  0.22374249116E+02  0.47787282532E+02  0.20000052375E+02 0.  0.
        -12    1    3    3    0    0 -0.22885296982E+02  0.29313451439E+02 -0.22374249116E+02  0.43400717468E+02  0.00000000000E+00 0.  1.
         11    1    4    4    0    0  0.33031988392E+00 -0.19544748191E+01  0.13439011280E+01  0.23948180614E+01  0.51100000000E-03 0. -1.
        -11    1    4    4    0    0  0.24199625709E+02 -0.29023316017E+02  0.20508847037E+02  0.42995203967E+02  0.51100000000E-03 0.  1.
        -12    1    4    4    0    0 -0.16446486111E+01  0.16643393963E+01  0.52150095061E+00  0.23972605035E+01  0.00000000000E+00 0.  1.
</event>
<event>
 8    1  0.5542925E-011  0.9118800E+02  0.7816164E-02  0.1184000E+00
        -11   -1    0    0    0    0  0.00000000000E+00  0.00000000000E+00  0.45593999997E+02  0.45594000000E+02  0.51100000000E-03 0.  1.
         11   -1    0    0    0    0 -0.00000000000E+00 -0.00000000000E+00 -0.45593999997E+02  0.45594000000E+02  0.51100000000E-03 0. -1.
         23    2    1    2    0    0 -0.35527136788E-14  0.00000000000E+00  0.00000000000E+00  0.91188000000E+02  0.91188000000E+02 0.  0.
    9900012    2    3    3    0    0 -0.23486686835E+02  0.32992747314E+02 -0.15603752208E+02  0.47787275158E+02  0.20000018756E+02 0.  0.
         12    1    3    3    0    0  0.23486686835E+02 -0.32992747314E+02  0.15603752208E+02  0.43400724842E+02  0.00000000000E+00 0. -1.
         11    1    4    4    0    0 -0.51928776845E+01  0.78967274336E+01 -0.23147929430E+00  0.94539867639E+01  0.51100000000E-03 0.  1.
        -11    1    4    4    0    0 -0.28128113896E+01 -0.22826821729E+01 -0.21671725764E+01  0.42212774195E+01  0.51100000000E-03 0. -1.
         12    1    4    4    0    0 -0.15480997761E+02  0.27378702054E+02 -0.13205100338E+02  0.34112010975E+02  0.00000000000E+00 0. -1.
</event>
<event>
 8    1  0.5542925E-011  0.9118800E+02  0.7816164E-02  0.1184000E+00
        -11   -1    0    0    0    0  0.00000000000E+00  0.00000000000E+00  0.45593999997E+02  0.45594000000E+02  0.51100000000E-03 0.  1.
         11   -1    0    0    0    0 -0.00000000000E+00 -0.00000000000E+00 -0.45593999997E+02  0.45594000000E+02  0.51100000000E-03 0. -1.
         23    2    1    2    0    0  0.00000000000E+00  0.00000000000E+00  0.00000000000E+00  0.91188000000E+02  0.91188000000E+02 0.  0.
    9900012    2    3    3    0    0 -0.29914295084E+02  0.23906696168E+02 -0.20426150249E+02  0.47787276665E+02  0.20000025625E+02 0.  0.
         12    1    3    3    0    0  0.29914295084E+02 -0.23906696168E+02  0.20426150249E+02  0.43400723335E+02  0.00000000000E+00 0. -1.
         11    1    4    4    0    0 -0.79921734614E+00  0.33027776288E+01  0.81004457789E+00  0.34933166062E+01  0.51100000000E-03 0. -1.
        -11    1    4    4    0    0 -0.15236098584E+02  0.93716857874E+01 -0.19207848850E+01  0.17990458843E+02  0.51100000000E-03 0.  1.
        -12    1    4    4    0    0 -0.13878979154E+02  0.11232232752E+02 -0.19315409942E+02  0.26303501215E+02  0.00000000000E+00 0.  1.
</event>
<event>
 8    1  0.5542925E-011  0.9118800E+02  0.7816164E-02  0.1184000E+00
        -11   -1    0    0    0    0  0.00000000000E+00  0.00000000000E+00  0.45593999997E+02  0.45594000000E+02  0.51100000000E-03 0.  1.
         11   -1    0    0    0    0 -0.00000000000E+00 -0.00000000000E+00 -0.45593999997E+02  0.45594000000E+02  0.51100000000E-03 0. -1.
         23    2    1    2    0    0 -0.17763568394E-14  0.00000000000E+00  0.00000000000E+00  0.91188000000E+02  0.91188000000E+02 0.  0.
    9900012    2    3    3    0    0 -0.84300434647E+01 -0.38483139349E+02 -0.18210070379E+02  0.47787259106E+02  0.19999945566E+02 0.  0.
         12    1    3    3    0    0  0.84300434647E+01  0.38483139349E+02  0.18210070379E+02  0.43400740894E+02  0.00000000000E+00 0. -1.
         11    1    4    4    0    0 -0.69342944281E+01 -0.15187975978E+02 -0.10145662524E+02  0.19536978319E+02  0.51100000000E-03 0. -1.
        -11    1    4    4    0    0  0.12686685540E+01 -0.21244656519E+02 -0.10788551157E+02  0.23860800214E+02  0.51100000000E-03 0.  1.
         12    1    4    4    0    0 -0.27644175906E+01 -0.20505068518E+01  0.27241433023E+01  0.43894805724E+01  0.00000000000E+00 0. -1.
</event>
<event>
 8    1  0.5542925E-011  0.9118800E+02  0.7816164E-02  0.1184000E+00
        -11   -1    0    0    0    0  0.00000000000E+00  0.00000000000E+00  0.45593999997E+02  0.45594000000E+02  0.51100000000E-03 0. -1.
         11   -1    0    0    0    0 -0.00000000000E+00 -0.00000000000E+00 -0.45593999997E+02  0.45594000000E+02  0.51100000000E-03 0.  1.
         23    2    1    2    0    0  0.00000000000E+00 -0.17763568394E-14  0.00000000000E+00  0.91188000000E+02  0.91188000000E+02 0.  0.
    9900012    2    3    3    0    0 -0.14758675313E+02 -0.13667735454E+02 -0.38457741031E+02  0.47787270345E+02  0.19999996809E+02 0.  0.
         12    1    3    3    0    0  0.14758675313E+02  0.13667735454E+02  0.38457741031E+02  0.43400729655E+02  0.00000000000E+00 0. -1.
         11    1    4    4    0    0 -0.50395369569E+01 -0.80285309972E+01 -0.10130656990E+02  0.13873876676E+02  0.51100000000E-03 0. -1.
        -11    1    4    4    0    0 -0.60616333851E+00 -0.86220268550E+01 -0.99103577835E+01  0.13149979952E+02  0.51100000000E-03 0.  1.
         12    1    4    4    0    0 -0.91129750179E+01  0.29828223979E+01 -0.18416726257E+02  0.20763413716E+02  0.00000000000E+00 0. -1.
</event>
<event>
 8    1  0.5542925E-011  0.9118800E+02  0.7816164E-02  0.1184000E+00
        -11   -1    0    0    0    0  0.00000000000E+00  0.00000000000E+00  0.45593999997E+02  0.45594000000E+02  0.51100000000E-03 0. -1.
         11   -1    0    0    0    0 -0.00000000000E+00 -0.00000000000E+00 -0.45593999997E+02  0.45594000000E+02  0.51100000000E-03 0.  1.
         23    2    1    2    0    0  0.35527136788E-14  0.55511151231E-15 -0.71054273576E-14  0.91188000000E+02  0.91188000000E+02 0.  0.
    9900012    2    3    3    0    0 -0.28955873385E+02  0.39916026136E+00  0.32326771745E+02  0.47787284524E+02  0.20000061458E+02 0.  0.
        -12    1    3    3    0    0  0.28955873385E+02 -0.39916026136E+00 -0.32326771745E+02  0.43400715476E+02  0.00000000000E+00 0.  1.
         11    1    4    4    0    0 -0.47059917876E+01  0.20308565809E+01  0.48245273688E+01  0.70389489095E+01  0.51100000000E-03 0. -1.
        -11    1    4    4    0    0 -0.63061209432E+00  0.51243569444E+01  0.73037429305E+01  0.89443483140E+01  0.51100000000E-03 0.  1.
         12    1    4    4    0    0 -0.23619269503E+02 -0.67560532639E+01  0.20198501445E+02  0.31803987300E+02  0.00000000000E+00 0. -1.
</event>
<event>
 8    1  0.5542925E-011  0.9118800E+02  0.7816164E-02  0.1184000E+00
        -11   -1    0    0    0    0  0.00000000000E+00  0.00000000000E+00  0.45593999997E+02  0.45594000000E+02  0.51100000000E-03 0. -1.
         11   -1    0    0    0    0 -0.00000000000E+00 -0.00000000000E+00 -0.45593999997E+02  0.45594000000E+02  0.51100000000E-03 0.  1.
         23    2    1    2    0    0  0.00000000000E+00  0.00000000000E+00  0.00000000000E+00  0.91188000000E+02  0.91188000000E+02 0.  0.
    9900012    2    3    3    0    0 -0.20734948621E+02  0.11571952101E+02  0.36328715116E+02  0.47787266000E+02  0.19999977002E+02 0.  0.
        -12    1    3    3    0    0  0.20734948621E+02 -0.11571952101E+02 -0.36328715116E+02  0.43400734000E+02  0.00000000000E+00 0.  1.
         11    1    4    4    0    0 -0.71096414847E+01  0.35642469288E+01  0.17408564408E+02  0.19139199911E+02  0.51100000000E-03 0. -1.
        -11    1    4    4    0    0 -0.11130980897E+01  0.43028383188E+01  0.14022587548E+02  0.14710077048E+02  0.51100000000E-03 0.  1.
         12    1    4    4    0    0 -0.12512209046E+02  0.37048668535E+01  0.48975631599E+01  0.13937989042E+02  0.00000000000E+00 0. -1.
</event>
<event>
 8    1  0.5542925E-011  0.9118800E+02  0.7816164E-02  0.1184000E+00
        -11   -1    0    0    0    0  0.00000000000E+00  0.00000000000E+00  0.45593999997E+02  0.45594000000E+02  0.51100000000E-03 0. -1.
         11   -1    0    0    0    0 -0.00000000000E+00 -0.00000000000E+00 -0.45593999997E+02  0.45594000000E+02  0.51100000000E-03 0.  1.
         23    2    1    2    0    0  0.00000000000E+00  0.00000000000E+00  0.00000000000E+00  0.91188000000E+02  0.91188000000E+02 0.  0.
    9900012    2    3    3    0    0  0.11639384303E+02  0.28684569566E+02  0.30419460237E+02  0.47787270060E+02  0.19999995513E+02 0.  0.
        -12    1    3    3    0    0 -0.11639384303E+02 -0.28684569566E+02 -0.30419460237E+02  0.43400729940E+02  0.00000000000E+00 0.  1.
         11    1    4    4    0    0 -0.15006644258E+00  0.12135146347E+02  0.11041719147E+02  0.16407433035E+02  0.51100000000E-03 0. -1.
        -11    1    4    4    0    0 -0.21065259199E+01  0.86197922335E+00 -0.67552180797E+00  0.23741924115E+01  0.51100000000E-03 0.  1.
        -12    1    4    4    0    0  0.13895976665E+02  0.15687443996E+02  0.20053262898E+02  0.29005644614E+02  0.00000000000E+00 0.  1.
</event>
<event>
 8    1  0.5542925E-011  0.9118800E+02  0.7816164E-02  0.1184000E+00
        -11   -1    0    0    0    0  0.00000000000E+00  0.00000000000E+00  0.45593999997E+02  0.45594000000E+02  0.51100000000E-03 0. -1.
         11   -1    0    0    0    0 -0.00000000000E+00 -0.00000000000E+00 -0.45593999997E+02  0.45594000000E+02  0.51100000000E-03 0.  1.
         23    2    1    2    0    0  0.00000000000E+00  0.00000000000E+00 -0.71054273576E-14  0.91188000000E+02  0.91188000000E+02 0.  0.
    9900012    2    3    3    0    0  0.11007621233E+02 -0.90322024961E+01 -0.40998471165E+02  0.47787273681E+02  0.20000012021E+02 0.  0.
         12    1    3    3    0    0 -0.11007621233E+02  0.90322024961E+01  0.40998471165E+02  0.43400726319E+02  0.00000000000E+00 0. -1.
         11    1    4    4    0    0  0.62690690797E+01 -0.42360934254E+00 -0.10966160128E+02  0.12638723837E+02  0.51100000000E-03 0. -1.
        -11    1    4    4    0    0  0.29892137032E+01  0.42945103202E+01 -0.90816106630E+01  0.10481119690E+02  0.51100000000E-03 0.  1.
         12    1    4    4    0    0  0.17493384496E+01 -0.12903103474E+02 -0.20950700374E+02  0.24667430154E+02  0.00000000000E+00 0. -1.
</event>
<event>
 8    1  0.5542925E-011  0.9118800E+02  0.7816164E-02  0.1184000E+00
        -11   -1    0    0    0    0  0.00000000000E+00  0.00000000000E+00  0.45593999997E+02  0.45594000000E+02  0.51100000000E-03 0. -1.
         11   -1    0    0    0    0 -0.00000000000E+00 -0.00000000000E+00 -0.45593999997E+02  0.45594000000E+02  0.51100000000E-03 0.  1.
         23    2    1    2    0    0  0.17763568394E-14  0.00000000000E+00  0.71054273576E-14  0.91188000000E+02  0.91188000000E+02 0.  0.
    9900012    2    3    3    0    0  0.14398145198E+02 -0.25105573407E+02  0.32342350213E+02  0.47787262466E+02  0.19999960886E+02 0.  0.
        -12    1    3    3    0    0 -0.14398145198E+02  0.25105573407E+02 -0.32342350213E+02  0.43400737534E+02  0.00000000000E+00 0.  1.
         11    1    4    4    0    0  0.57646947430E+01 -0.66529202649E+01  0.17022025980E+02  0.19163570185E+02  0.51100000000E-03 0. -1.
        -11    1    4    4    0    0  0.80226013027E+01 -0.17817640766E+02  0.17525932448E+02  0.26248595440E+02  0.51100000000E-03 0.  1.
        -12    1    4    4    0    0  0.61084915210E+00 -0.63501237536E+00 -0.22056082147E+01  0.23750968401E+01  0.00000000000E+00 0.  1.
</event>
<event>
 8    1  0.7143837E-011  0.9118800E+02  0.7816164E-02  0.1184000E+00
        -11   -1    0    0    0    0  0.00000000000E+00  0.00000000000E+00  0.45593999997E+02  0.45594000000E+02  0.51100000000E-03 0. -1.
         11   -1    0    0    0    0 -0.00000000000E+00 -0.00000000000E+00 -0.45593999997E+02  0.45594000000E+02  0.51100000000E-03 0.  1.
         23    2    1    2    0    0  0.00000000000E+00  0.00000000000E+00  0.00000000000E+00  0.91188000000E+02  0.91188000000E+02 0.  0.
    9900012    2    3    3    0    0  0.95631678310E+01  0.66078110662E+01  0.41815139342E+02  0.47787271616E+02  0.20000002606E+02 0.  0.
        -12    1    3    3    0    0 -0.95631678310E+01 -0.66078110662E+01 -0.41815139342E+02  0.43400728384E+02  0.00000000000E+00 0.  1.
         11    1    4    4    0    0  0.84424374550E+00 -0.27392109418E+01  0.68804298517E+00  0.29477834887E+01  0.51100000000E-03 0. -1.
        -11    1    4    4    0    0 -0.22351698471E+01 -0.44339854346E+00  0.19532647295E+01  0.30013046960E+01  0.51100000000E-03 0.  1.
         12    1    4    4    0    0  0.10954093933E+02  0.97904205514E+01  0.39173831628E+02  0.41838183431E+02  0.00000000000E+00 0. -1.
</event>
<event>
 8    1  0.5542925E-011  0.9118800E+02  0.7816164E-02  0.1184000E+00
        -11   -1    0    0    0    0  0.00000000000E+00  0.00000000000E+00  0.45593999997E+02  0.45594000000E+02  0.51100000000E-03 0.  1.
         11   -1    0    0    0    0 -0.00000000000E+00 -0.00000000000E+00 -0.45593999997E+02  0.45594000000E+02  0.51100000000E-03 0. -1.
         23    2    1    2    0    0  0.71054273576E-14  0.00000000000E+00  0.00000000000E+00  0.91188000000E+02  0.91188000000E+02 0.  0.
    9900012    2    3    3    0    0 -0.40331461236E+02  0.14331942841E+02  0.71827377946E+01  0.47787273356E+02  0.20000010539E+02 0.  0.
        -12    1    3    3    0    0  0.40331461236E+02 -0.14331942841E+02 -0.71827377946E+01  0.43400726644E+02  0.00000000000E+00 0.  1.
         11    1    4    4    0    0 -0.18334729376E+02  0.99311568272E+01 -0.45845413449E+01  0.21349665028E+02  0.51100000000E-03 0. -1.
        -11    1    4    4    0    0 -0.64559573269E+00  0.48026278954E-01 -0.99347576369E+00  0.11857886522E+01  0.51100000000E-03 0.  1.
        -12    1    4    4    0    0 -0.21351136127E+02  0.43527597348E+01  0.12760754903E+02  0.25251819675E+02  0.00000000000E+00 0.  1.
</event>
<event>
 8    1  0.5542925E-011  0.9118800E+02  0.7816164E-02  0.1184000E+00
        -11   -1    0    0    0    0  0.00000000000E+00  0.00000000000E+00  0.45593999997E+02  0.45594000000E+02  0.51100000000E-03 0. -1.
         11   -1    0    0    0    0 -0.00000000000E+00 -0.00000000000E+00 -0.45593999997E+02  0.45594000000E+02  0.51100000000E-03 0.  1.
         23    2    1    2    0    0  0.00000000000E+00  0.88817841970E-15  0.35527136788E-14  0.91188000000E+02  0.91188000000E+02 0.  0.
    9900012    2    3    3    0    0  0.38022205855E+02 -0.79091977174E+01 -0.19374717918E+02  0.47787271424E+02  0.20000001729E+02 0.  0.
         12    1    3    3    0    0 -0.38022205855E+02  0.79091977174E+01  0.19374717918E+02  0.43400728576E+02  0.00000000000E+00 0. -1.
         11    1    4    4    0    0  0.55979747980E+01 -0.15337432116E+01 -0.19430429178E+01  0.61208746205E+01  0.51100000000E-03 0. -1.
        -11    1    4    4    0    0  0.28164446445E+02 -0.38190166212E+01 -0.57857651209E+01  0.29005103169E+02  0.51100000000E-03 0.  1.
         12    1    4    4    0    0  0.42597846112E+01 -0.25564378846E+01 -0.11645909879E+02  0.12661293634E+02  0.00000000000E+00 0. -1.
</event>
<event>
 8    1  0.5542925E-011  0.9118800E+02  0.7816164E-02  0.1184000E+00
        -11   -1    0    0    0    0  0.00000000000E+00  0.00000000000E+00  0.45593999997E+02  0.45594000000E+02  0.51100000000E-03 0. -1.
         11   -1    0    0    0    0 -0.00000000000E+00 -0.00000000000E+00 -0.45593999997E+02  0.45594000000E+02  0.51100000000E-03 0.  1.
         23    2    1    2    0    0  0.00000000000E+00  0.00000000000E+00  0.35527136788E-14  0.91188000000E+02  0.91188000000E+02 0.  0.
    9900012    2    3    3    0    0 -0.30649014606E+02 -0.17591373201E+02 -0.25195332439E+02  0.47787270926E+02  0.19999999462E+02 0.  0.
         12    1    3    3    0    0  0.30649014606E+02  0.17591373201E+02  0.25195332439E+02  0.43400729074E+02  0.00000000000E+00 0. -1.
         11    1    4    4    0    0 -0.56890111038E+01  0.11935350904E+00  0.19642905901E+00  0.56936523634E+01  0.51100000000E-03 0. -1.
        -11    1    4    4    0    0 -0.14549084561E+02 -0.58810763886E+01 -0.53094447278E+01  0.16566626833E+02  0.51100000000E-03 0.  1.
         12    1    4    4    0    0 -0.10410918941E+02 -0.11829650321E+02 -0.20082316770E+02  0.25526991730E+02  0.00000000000E+00 0. -1.
</event>
<event>
 8    1  0.5542925E-011  0.9118800E+02  0.7816164E-02  0.1184000E+00
        -11   -1    0    0    0    0  0.00000000000E+00  0.00000000000E+00  0.45593999997E+02  0.45594000000E+02  0.51100000000E-03 0. -1.
         11   -1    0    0    0    0 -0.00000000000E+00 -0.00000000000E+00 -0.45593999997E+02  0.45594000000E+02  0.51100000000E-03 0.  1.
         23    2    1    2    0    0  0.88817841970E-15  0.00000000000E+00  0.00000000000E+00  0.91188000000E+02  0.91188000000E+02 0.  0.
    9900012    2    3    3    0    0 -0.51882193468E+01 -0.10850783176E+02 -0.41700902632E+02  0.47787281160E+02  0.20000046121E+02 0.  0.
         12    1    3    3    0    0  0.51882193468E+01  0.10850783176E+02  0.41700902632E+02  0.43400718840E+02  0.00000000000E+00 0. -1.
         11    1    4    4    0    0 -0.46795381134E+01 -0.33072768958E+01 -0.14696939420E+02  0.15774542339E+02  0.51100000000E-03 0. -1.
        -11    1    4    4    0    0 -0.60245887068E+01 -0.90904139432E+01 -0.21295063333E+02  0.23925112693E+02  0.51100000000E-03 0.  1.
         12    1    4    4    0    0  0.55159074735E+01  0.15469076627E+01 -0.57088998789E+01  0.80876261288E+01  0.00000000000E+00 0. -1.
</event>
<event>
 8    1  0.5542925E-011  0.9118800E+02  0.7816164E-02  0.1184000E+00
        -11   -1    0    0    0    0  0.00000000000E+00  0.00000000000E+00  0.45593999997E+02  0.45594000000E+02  0.51100000000E-03 0.  1.
         11   -1    0    0    0    0 -0.00000000000E+00 -0.00000000000E+00 -0.45593999997E+02  0.45594000000E+02  0.51100000000E-03 0. -1.
         23    2    1    2    0    0  0.17763568394E-14  0.00000000000E+00  0.00000000000E+00  0.91188000000E+02  0.91188000000E+02 0.  0.
    9900012    2    3    3    0    0 -0.14149236638E+02  0.11942421242E+02 -0.39253033625E+02  0.47787274530E+02  0.20000015892E+02 0.  0.
         12    1    3    3    0    0  0.14149236638E+02 -0.11942421242E+02  0.39253033625E+02  0.43400725470E+02  0.00000000000E+00 0. -1.
         11    1    4    4    0    0 -0.18980854026E+01 -0.15948466338E+00  0.15395991789E+01  0.24491895489E+01  0.51100000000E-03 0. -1.
        -11    1    4    4    0    0  0.10659901917E+01  0.41100097010E+01 -0.93391566118E+01  0.10259062399E+02  0.51100000000E-03 0.  1.
        -12    1    4    4    0    0 -0.13317141427E+02  0.79918962039E+01 -0.31453476192E+02  0.35079022582E+02  0.00000000000E+00 0.  1.
</event>
<event>
 8    1  0.5542925E-011  0.9118800E+02  0.7816164E-02  0.1184000E+00
        -11   -1    0    0    0    0  0.00000000000E+00  0.00000000000E+00  0.45593999997E+02  0.45594000000E+02  0.51100000000E-03 0. -1.
         11   -1    0    0    0    0 -0.00000000000E+00 -0.00000000000E+00 -0.45593999997E+02  0.45594000000E+02  0.51100000000E-03 0.  1.
         23    2    1    2    0    0  0.00000000000E+00 -0.17763568394E-14  0.00000000000E+00  0.91188000000E+02  0.91188000000E+02 0.  0.
    9900012    2    3    3    0    0 -0.31866167511E+02 -0.14285916602E+02  0.25769801128E+02  0.47787277711E+02  0.20000030397E+02 0.  0.
        -12    1    3    3    0    0  0.31866167511E+02  0.14285916602E+02 -0.25769801128E+02  0.43400722289E+02  0.00000000000E+00 0.  1.
         11    1    4    4    0    0 -0.25965552023E+02 -0.84527616583E+01  0.24203454058E+02  0.36489262258E+02  0.51100000000E-03 0. -1.
        -11    1    4    4    0    0 -0.44077715269E+01  0.46373134993E+00  0.18905518668E+01  0.48184731213E+01  0.51100000000E-03 0.  1.
        -12    1    4    4    0    0 -0.14928439606E+01 -0.62968862937E+01 -0.32420479658E+00  0.64795423323E+01  0.00000000000E+00 0.  1.
</event>
<event>
 8    1  0.5542925E-011  0.9118800E+02  0.7816164E-02  0.1184000E+00
        -11   -1    0    0    0    0  0.00000000000E+00  0.00000000000E+00  0.45593999997E+02  0.45594000000E+02  0.51100000000E-03 0. -1.
         11   -1    0    0    0    0 -0.00000000000E+00 -0.00000000000E+00 -0.45593999997E+02  0.45594000000E+02  0.51100000000E-03 0.  1.
         23    2    1    2    0    0  0.44408920985E-15  0.00000000000E+00  0.00000000000E+00  0.91188000000E+02  0.91188000000E+02 0.  0.
    9900012    2    3    3    0    0 -0.28564606584E+01  0.27447988932E+02 -0.33497339793E+02  0.47787271468E+02  0.20000001931E+02 0.  0.
         12    1    3    3    0    0  0.28564606584E+01 -0.27447988932E+02  0.33497339793E+02  0.43400728532E+02  0.00000000000E+00 0. -1.
         11    1    4    4    0    0 -0.19183450856E+01  0.73794430628E+01 -0.73748411687E+01  0.10607757082E+02  0.51100000000E-03 0. -1.
        -11    1    4    4    0    0  0.36637170302E+01  0.19358038401E+02 -0.13932023836E+02  0.24130017854E+02  0.51100000000E-03 0.  1.
         12    1    4    4    0    0 -0.46018326030E+01  0.71050746837E+00 -0.12190474788E+02  0.13049496532E+02  0.00000000000E+00 0. -1.
</event>
<event>
 8    1  0.5542925E-011  0.9118800E+02  0.7816164E-02  0.1184000E+00
        -11   -1    0    0    0    0  0.00000000000E+00  0.00000000000E+00  0.45593999997E+02  0.45594000000E+02  0.51100000000E-03 0. -1.
         11   -1    0    0    0    0 -0.00000000000E+00 -0.00000000000E+00 -0.45593999997E+02  0.45594000000E+02  0.51100000000E-03 0.  1.
         23    2    1    2    0    0  0.00000000000E+00 -0.17763568394E-14  0.71054273576E-14  0.91188000000E+02  0.91188000000E+02 0.  0.
    9900012    2    3    3    0    0  0.97571027310E+01  0.63978502735E+01 -0.41802978100E+02  0.47787279731E+02  0.20000039606E+02 0.  0.
         12    1    3    3    0    0 -0.97571027310E+01 -0.63978502735E+01  0.41802978100E+02  0.43400720269E+02  0.00000000000E+00 0. -1.
         11    1    4    4    0    0  0.77203538486E+01  0.66619105568E+01 -0.19075134119E+02  0.21629740122E+02  0.51100000000E-03 0. -1.
        -11    1    4    4    0    0  0.64446967438E+01 -0.20775931052E+01 -0.70668872696E+01  0.97873083722E+01  0.51100000000E-03 0.  1.
         12    1    4    4    0    0 -0.44079478614E+01  0.18135328219E+01 -0.15660956711E+02  0.16370231237E+02  0.00000000000E+00 0. -1.
</event>
<event>
 8    1  0.5542925E-011  0.9118800E+02  0.7816164E-02  0.1184000E+00
        -11   -1    0    0    0    0  0.00000000000E+00  0.00000000000E+00  0.45593999997E+02  0.45594000000E+02  0.51100000000E-03 0. -1.
         11   -1    0    0    0    0 -0.00000000000E+00 -0.00000000000E+00 -0.45593999997E+02  0.45594000000E+02  0.51100000000E-03 0.  1.
         23    2    1    2    0    0  0.00000000000E+00  0.00000000000E+00  0.00000000000E+00  0.91188000000E+02  0.91188000000E+02 0.  0.
    9900012    2    3    3    0    0 -0.47434468229E+01 -0.16035172123E+02 -0.40049921537E+02  0.47787271343E+02  0.20000001363E+02 0.  0.
         12    1    3    3    0    0  0.47434468229E+01  0.16035172123E+02  0.40049921537E+02  0.43400728657E+02  0.00000000000E+00 0. -1.
         11    1    4    4    0    0 -0.60136316107E+01 -0.12030141037E+01 -0.33901533145E+01  0.70074351827E+01  0.51100000000E-03 0. -1.
        -11    1    4    4    0    0  0.10138382069E+01 -0.30666431514E+00 -0.12810134421E+02  0.12853849815E+02  0.51100000000E-03 0.  1.
        -12    1    4    4    0    0  0.25634658090E+00 -0.14525493704E+02 -0.23849633802E+02  0.27925986346E+02  0.00000000000E+00 0.  1.
</event>
<event>
 8    1  0.5542925E-011  0.9118800E+02  0.7816164E-02  0.1184000E+00
        -11   -1    0    0    0    0  0.00000000000E+00  0.00000000000E+00  0.45593999997E+02  0.45594000000E+02  0.51100000000E-03 0. -1.
         11   -1    0    0    0    0 -0.00000000000E+00 -0.00000000000E+00 -0.45593999997E+02  0.45594000000E+02  0.51100000000E-03 0.  1.
         23    2    1    2    0    0  0.00000000000E+00 -0.35527136788E-14  0.00000000000E+00  0.91188000000E+02  0.91188000000E+02 0.  0.
    9900012    2    3    3    0    0 -0.16928597178E+02  0.31977036158E+02 -0.23969042193E+02  0.47787271578E+02  0.20000002435E+02 0.  0.
         12    1    3    3    0    0  0.16928597178E+02 -0.31977036158E+02  0.23969042193E+02  0.43400728422E+02  0.00000000000E+00 0. -1.
         11    1    4    4    0    0 -0.81297522551E+01  0.21263934140E+02 -0.23932949507E+02  0.33030801371E+02  0.51100000000E-03 0. -1.
        -11    1    4    4    0    0 -0.21004340585E+01  0.61217606967E+00 -0.13413227018E+01  0.25662676450E+01  0.51100000000E-03 0.  1.
         12    1    4    4    0    0 -0.66984108640E+01  0.10100925949E+02  0.13052300158E+01  0.12190202563E+02  0.00000000000E+00 0. -1.
</event>
<event>
 8    1  0.6133964E-011  0.9118800E+02  0.7816164E-02  0.1184000E+00
        -11   -1    0    0    0    0  0.00000000000E+00  0.00000000000E+00  0.45593999997E+02  0.45594000000E+02  0.51100000000E-03 0. -1.
         11   -1    0    0    0    0 -0.00000000000E+00 -0.00000000000E+00 -0.45593999997E+02  0.45594000000E+02  0.51100000000E-03 0.  1.
         23    2    1    2    0    0  0.11102230246E-15  0.00000000000E+00  0.35527136788E-14  0.91188000000E+02  0.91188000000E+02 0.  0.
    9900012    2    3    3    0    0 -0.10667009078E+00  0.32182314054E+02  0.29118905129E+02  0.47787270140E+02  0.19999995878E+02 0.  0.
        -12    1    3    3    0    0  0.10667009078E+00 -0.32182314054E+02 -0.29118905129E+02  0.43400729860E+02  0.00000000000E+00 0.  1.
         11    1    4    4    0    0  0.78417975114E+00  0.51280359684E+00  0.57547448378E+01  0.58305226026E+01  0.51100000000E-03 0. -1.
        -11    1    4    4    0    0 -0.23253761330E+01 -0.22030732630E+00 -0.10130427968E+00  0.23379846655E+01  0.51100000000E-03 0.  1.
         12    1    4    4    0    0  0.14345262911E+01  0.31889817784E+02  0.23465464571E+02  0.39618762872E+02  0.00000000000E+00 0. -1.
</event>
<event>
 8    1  0.5542925E-011  0.9118800E+02  0.7816164E-02  0.1184000E+00
        -11   -1    0    0    0    0  0.00000000000E+00  0.00000000000E+00  0.45593999997E+02  0.45594000000E+02  0.51100000000E-03 0. -1.
         11   -1    0    0    0    0 -0.00000000000E+00 -0.00000000000E+00 -0.45593999997E+02  0.45594000000E+02  0.51100000000E-03 0.  1.
         23    2    1    2    0    0  0.00000000000E+00  0.00000000000E+00  0.35527136788E-14  0.91188000000E+02  0.91188000000E+02 0.  0.
    9900012    2    3    3    0    0 -0.26135110476E+02 -0.26653598632E+02 -0.22139664873E+02  0.47787273274E+02  0.20000010167E+02 0.  0.
         12    1    3    3    0    0  0.26135110476E+02  0.26653598632E+02  0.22139664873E+02  0.43400726726E+02  0.00000000000E+00 0. -1.
         11    1    4    4    0    0 -0.88116521723E+01 -0.79858203641E+01  0.16657178613E+01  0.12008045517E+02  0.51100000000E-03 0. -1.
        -11    1    4    4    0    0 -0.36403600848E+00  0.22919521692E+00  0.47948166875E+00  0.64417047023E+00  0.51100000000E-03 0.  1.
        -12    1    4    4    0    0 -0.16959422295E+02 -0.18896973485E+02 -0.24284864403E+02  0.35135057287E+02  0.00000000000E+00 0.  1.
</event>
<event>
 8    1  0.5542925E-011  0.9118800E+02  0.7816164E-02  0.1184000E+00
        -11   -1    0    0    0    0  0.00000000000E+00  0.00000000000E+00  0.45593999997E+02  0.45594000000E+02  0.51100000000E-03 0.  1.
         11   -1    0    0    0    0 -0.00000000000E+00 -0.00000000000E+00 -0.45593999997E+02  0.45594000000E+02  0.51100000000E-03 0. -1.
         23    2    1    2    0    0  0.00000000000E+00  0.00000000000E+00  0.00000000000E+00  0.91188000000E+02  0.91188000000E+02 0.  0.
    9900012    2    3    3    0    0 -0.42954629905E+02 -0.15697134876E+01  0.60048921284E+01  0.47787274659E+02  0.20000016479E+02 0.  0.
        -12    1    3    3    0    0  0.42954629905E+02  0.15697134876E+01 -0.60048921284E+01  0.43400725341E+02  0.00000000000E+00 0.  1.
         11    1    4    4    0    0 -0.18680474865E+02 -0.11953413109E+01  0.51824715851E+01  0.19422847217E+02  0.51100000000E-03 0. -1.
        -11    1    4    4    0    0 -0.20351976648E+01 -0.24635085520E+01  0.47101181277E+01  0.56917586877E+01  0.51100000000E-03 0.  1.
         12    1    4    4    0    0 -0.22238957375E+02  0.20891363753E+01 -0.38876975844E+01  0.22672668754E+02  0.00000000000E+00 0. -1.
</event>
<event>
 8    1  0.5542925E-011  0.9118800E+02  0.7816164E-02  0.1184000E+00
        -11   -1    0    0    0    0  0.00000000000E+00  0.00000000000E+00  0.45593999997E+02  0.45594000000E+02  0.51100000000E-03 0. -1.
         11   -1    0    0    0    0 -0.00000000000E+00 -0.00000000000E+00 -0.45593999997E+02  0.45594000000E+02  0.51100000000E-03 0.  1.
         23    2    1    2    0    0  0.17763568394E-14  0.00000000000E+00 -0.71054273576E-14  0.91188000000E+02  0.91188000000E+02 0.  0.
    9900012    2    3    3    0    0 -0.76662013562E+01  0.19176878456E+02  0.38171976655E+02  0.47787272906E+02  0.20000008485E+02 0.  0.
        -12    1    3    3    0    0  0.76662013562E+01 -0.19176878456E+02 -0.38171976655E+02  0.43400727094E+02  0.00000000000E+00 0.  1.
         11    1    4    4    0    0 -0.30583940870E+01  0.59037633533E+01  0.17001574409E+02  0.18255457506E+02  0.51100000000E-03 0. -1.
        -11    1    4    4    0    0 -0.75722031310E+01  0.80176188201E+01  0.20731178838E+02  0.23481955797E+02  0.51100000000E-03 0.  1.
        -12    1    4    4    0    0  0.29643958619E+01  0.52554962827E+01  0.43922340901E+00  0.60498596022E+01  0.00000000000E+00 0.  1.
</event>
<event>
 8    1  0.5542925E-011  0.9118800E+02  0.7816164E-02  0.1184000E+00
        -11   -1    0    0    0    0  0.00000000000E+00  0.00000000000E+00  0.45593999997E+02  0.45594000000E+02  0.51100000000E-03 0. -1.
         11   -1    0    0    0    0 -0.00000000000E+00 -0.00000000000E+00 -0.45593999997E+02  0.45594000000E+02  0.51100000000E-03 0.  1.
         23    2    1    2    0    0  0.00000000000E+00 -0.35527136788E-14  0.00000000000E+00  0.91188000000E+02  0.91188000000E+02 0.  0.
    9900012    2    3    3    0    0 -0.15223743892E+02 -0.27336581496E+02 -0.30076107994E+02  0.47787270305E+02  0.19999996628E+02 0.  0.
         12    1    3    3    0    0  0.15223743892E+02  0.27336581496E+02  0.30076107994E+02  0.43400729695E+02  0.00000000000E+00 0. -1.
         11    1    4    4    0    0 -0.28910496106E+01 -0.91785849028E+01 -0.43617792097E+01  0.10565496051E+02  0.51100000000E-03 0. -1.
        -11    1    4    4    0    0 -0.15575164287E+02 -0.16474152755E+02 -0.19010060175E+02  0.29586582089E+02  0.51100000000E-03 0.  1.
        -12    1    4    4    0    0  0.32424700057E+01 -0.16838438382E+01 -0.67042686090E+01  0.76351921647E+01  0.00000000000E+00 0.  1.
</event>
<event>
 8    1  0.5542925E-011  0.9118800E+02  0.7816164E-02  0.1184000E+00
        -11   -1    0    0    0    0  0.00000000000E+00  0.00000000000E+00  0.45593999997E+02  0.45594000000E+02  0.51100000000E-03 0.  1.
         11   -1    0    0    0    0 -0.00000000000E+00 -0.00000000000E+00 -0.45593999997E+02  0.45594000000E+02  0.51100000000E-03 0. -1.
         23    2    1    2    0    0  0.00000000000E+00  0.00000000000E+00  0.00000000000E+00  0.91188000000E+02  0.91188000000E+02 0.  0.
    9900012    2    3    3    0    0  0.36282166016E+02  0.14910319755E+02 -0.18571758518E+02  0.47787269356E+02  0.19999992300E+02 0.  0.
         12    1    3    3    0    0 -0.36282166016E+02 -0.14910319755E+02  0.18571758518E+02  0.43400730644E+02  0.00000000000E+00 0. -1.
         11    1    4    4    0    0  0.29814294961E+01  0.30894245506E+01  0.18323038540E+01  0.46680620785E+01  0.51100000000E-03 0. -1.
        -11    1    4    4    0    0  0.13613396609E+01  0.13599555760E+01  0.19622689064E+01  0.27483130032E+01  0.51100000000E-03 0.  1.
        -12    1    4    4    0    0  0.31939396859E+02  0.10460939629E+02 -0.22366331278E+02  0.40370894274E+02  0.00000000000E+00 0.  1.
</event>
<event>
 8    1  0.5542925E-011  0.9118800E+02  0.7816164E-02  0.1184000E+00
        -11   -1    0    0    0    0  0.00000000000E+00  0.00000000000E+00  0.45593999997E+02  0.45594000000E+02  0.51100000000E-03 0. -1.
         11   -1    0    0    0    0 -0.00000000000E+00 -0.00000000000E+00 -0.45593999997E+02  0.45594000000E+02  0.51100000000E-03 0.  1.
         23    2    1    2    0    0  0.00000000000E+00  0.00000000000E+00 -0.35527136788E-14  0.91188000000E+02  0.91188000000E+02 0.  0.
    9900012    2    3    3    0    0 -0.29363892794E+02  0.24627926319E+02 -0.20367876437E+02  0.47787270221E+02  0.19999996246E+02 0.  0.
         12    1    3    3    0    0  0.29363892794E+02 -0.24627926319E+02  0.20367876437E+02  0.43400729779E+02  0.00000000000E+00 0. -1.
         11    1    4    4    0    0 -0.26609805602E+01 -0.17483899738E+01 -0.47384838274E+01  0.57088452673E+01  0.51100000000E-03 0. -1.
        -11    1    4    4    0    0 -0.20090754502E+01  0.49859755359E+01  0.92344206470E+00  0.54542718778E+01  0.51100000000E-03 0.  1.
        -12    1    4    4    0    0 -0.24693836783E+02  0.21390340757E+02 -0.16552834675E+02  0.36624153076E+02  0.00000000000E+00 0.  1.
</event>
<event>
 8    1  0.5542925E-011  0.9118800E+02  0.7816164E-02  0.1184000E+00
        -11   -1    0    0    0    0  0.00000000000E+00  0.00000000000E+00  0.45593999997E+02  0.45594000000E+02  0.51100000000E-03 0.  1.
         11   -1    0    0    0    0 -0.00000000000E+00 -0.00000000000E+00 -0.45593999997E+02  0.45594000000E+02  0.51100000000E-03 0. -1.
         23    2    1    2    0    0  0.17763568394E-14 -0.35527136788E-14  0.71054273576E-14  0.91188000000E+02  0.91188000000E+02 0.  0.
    9900012    2    3    3    0    0  0.12633223952E+02 -0.29983514753E+02  0.28723052722E+02  0.47787271181E+02  0.20000000623E+02 0.  0.
        -12    1    3    3    0    0 -0.12633223952E+02  0.29983514753E+02 -0.28723052722E+02  0.43400728819E+02  0.00000000000E+00 0.  1.
         11    1    4    4    0    0  0.10981888720E+02 -0.27490503765E+02  0.18369186308E+02  0.34839010936E+02  0.51100000000E-03 0. -1.
        -11    1    4    4    0    0 -0.10304519910E+01 -0.43741535866E+01  0.62303013190E+01  0.76819076857E+01  0.51100000000E-03 0.  1.
         12    1    4    4    0    0  0.26817872229E+01  0.18811425989E+01  0.41235650949E+01  0.52663525592E+01  0.00000000000E+00 0. -1.
</event>
<event>
 8    1  0.5542925E-011  0.9118800E+02  0.7816164E-02  0.1184000E+00
        -11   -1    0    0    0    0  0.00000000000E+00  0.00000000000E+00  0.45593999997E+02  0.45594000000E+02  0.51100000000E-03 0. -1.
         11   -1    0    0    0    0 -0.00000000000E+00 -0.00000000000E+00 -0.45593999997E+02  0.45594000000E+02  0.51100000000E-03 0.  1.
         23    2    1    2    0    0 -0.71054273576E-14 -0.35527136788E-14  0.00000000000E+00  0.91188000000E+02  0.91188000000E+02 0.  0.
    9900012    2    3    3    0    0  0.22594846597E+02  0.14574735780E+02  0.34068658638E+02  0.47787268241E+02  0.19999987220E+02 0.  0.
        -12    1    3    3    0    0 -0.22594846597E+02 -0.14574735780E+02 -0.34068658638E+02  0.43400731759E+02  0.00000000000E+00 0.  1.
         11    1    4    4    0    0  0.49281427938E+01 -0.10393235594E+01  0.26650542641E+01  0.56981838641E+01  0.51100000000E-03 0. -1.
        -11    1    4    4    0    0  0.34619543713E+01 -0.66557885265E+00 -0.49731747619E+00  0.35602595708E+01  0.51100000000E-03 0.  1.
         12    1    4    4    0    0  0.14204749432E+02  0.16279638192E+02  0.31900921850E+02  0.38528824806E+02  0.00000000000E+00 0. -1.
</event>
<event>
 8    1  0.5542925E-011  0.9118800E+02  0.7816164E-02  0.1184000E+00
        -11   -1    0    0    0    0  0.00000000000E+00  0.00000000000E+00  0.45593999997E+02  0.45594000000E+02  0.51100000000E-03 0. -1.
         11   -1    0    0    0    0 -0.00000000000E+00 -0.00000000000E+00 -0.45593999997E+02  0.45594000000E+02  0.51100000000E-03 0.  1.
         23    2    1    2    0    0 -0.35527136788E-14  0.00000000000E+00  0.00000000000E+00  0.91188000000E+02  0.91188000000E+02 0.  0.
    9900012    2    3    3    0    0 -0.18665559181E+02  0.15557347908E+01 -0.39150993411E+02  0.47787266188E+02  0.19999977859E+02 0.  0.
         12    1    3    3    0    0  0.18665559181E+02 -0.15557347908E+01  0.39150993411E+02  0.43400733812E+02  0.00000000000E+00 0. -1.
         11    1    4    4    0    0  0.42547923803E+00 -0.17935096490E+01 -0.13841775506E+00  0.18484775301E+01  0.51100000000E-03 0. -1.
        -11    1    4    4    0    0 -0.77737285820E+01  0.25964462739E+01 -0.39708648608E+01  0.91071486934E+01  0.51100000000E-03 0.  1.
        -12    1    4    4    0    0 -0.11317309837E+02  0.75279816587E+00 -0.35041710795E+02  0.36831639965E+02  0.00000000000E+00 0.  1.
</event>
<event>
 8    1  0.5542925E-011  0.9118800E+02  0.7816164E-02  0.1184000E+00
        -11   -1    0    0    0    0  0.00000000000E+00  0.00000000000E+00  0.45593999997E+02  0.45594000000E+02  0.51100000000E-03 0. -1.
         11   -1    0    0    0    0 -0.00000000000E+00 -0.00000000000E+00 -0.45593999997E+02  0.45594000000E+02  0.51100000000E-03 0.  1.
         23    2    1    2    0    0  0.00000000000E+00  0.00000000000E+00 -0.71054273576E-14  0.91188000000E+02  0.91188000000E+02 0.  0.
    9900012    2    3    3    0    0  0.82806820385E+01 -0.78795573221E+00 -0.42596158991E+02  0.47787270397E+02  0.19999997050E+02 0.  0.
         12    1    3    3    0    0 -0.82806820385E+01  0.78795573221E+00  0.42596158991E+02  0.43400729603E+02  0.00000000000E+00 0. -1.
         11    1    4    4    0    0  0.43170037034E+01  0.18058326669E+01 -0.16235398334E+01  0.49531237061E+01  0.51100000000E-03 0. -1.
        -11    1    4    4    0    0  0.48900907365E+01 -0.31896002286E+01 -0.83263368806E+01  0.10169288232E+02  0.51100000000E-03 0.  1.
        -12    1    4    4    0    0 -0.92641240151E+00  0.59581182951E+00 -0.32646282277E+02  0.32664858460E+02  0.00000000000E+00 0.  1.
</event>
<event>
 8    1  0.5542925E-011  0.9118800E+02  0.7816164E-02  0.1184000E+00
        -11   -1    0    0    0    0  0.00000000000E+00  0.00000000000E+00  0.45593999997E+02  0.45594000000E+02  0.51100000000E-03 0. -1.
         11   -1    0    0    0    0 -0.00000000000E+00 -0.00000000000E+00 -0.45593999997E+02  0.45594000000E+02  0.51100000000E-03 0.  1.
         23    2    1    2    0    0  0.35527136788E-14  0.00000000000E+00  0.00000000000E+00  0.91188000000E+02  0.91188000000E+02 0.  0.
    9900012    2    3    3    0    0 -0.21891070177E+02  0.32303163987E+02  0.18997617232E+02  0.47787276301E+02  0.20000023969E+02 0.  0.
        -12    1    3    3    0    0  0.21891070177E+02 -0.32303163987E+02 -0.18997617232E+02  0.43400723699E+02  0.00000000000E+00 0.  1.
         11    1    4    4    0    0 -0.87004879885E+01  0.99359303006E+01  0.70342084793E+01  0.14963331560E+02  0.51100000000E-03 0. -1.
        -11    1    4    4    0    0  0.15005401856E+01  0.62472880534E+01  0.86323074318E+01  0.10760899625E+02  0.51100000000E-03 0.  1.
        -12    1    4    4    0    0 -0.14691122374E+02  0.16119945633E+02  0.33311013205E+01  0.22063045117E+02  0.00000000000E+00 0.  1.
</event>
<event>
 8    1  0.5542925E-011  0.9118800E+02  0.7816164E-02  0.1184000E+00
        -11   -1    0    0    0    0  0.00000000000E+00  0.00000000000E+00  0.45593999997E+02  0.45594000000E+02  0.51100000000E-03 0. -1.
         11   -1    0    0    0    0 -0.00000000000E+00 -0.00000000000E+00 -0.45593999997E+02  0.45594000000E+02  0.51100000000E-03 0.  1.
         23    2    1    2    0    0  0.00000000000E+00 -0.35527136788E-14  0.00000000000E+00  0.91188000000E+02  0.91188000000E+02 0.  0.
    9900012    2    3    3    0    0  0.15408212473E+02  0.23857142741E+02  0.32818394976E+02  0.47787270511E+02  0.19999997568E+02 0.  0.
        -12    1    3    3    0    0 -0.15408212473E+02 -0.23857142741E+02 -0.32818394976E+02  0.43400729489E+02  0.00000000000E+00 0.  1.
         11    1    4    4    0    0  0.31027397264E+01 -0.10962461291E+00 -0.11495280541E+01  0.33106534663E+01  0.51100000000E-03 0.  1.
        -11    1    4    4    0    0  0.10370461532E+02  0.10731266316E+02  0.14137964652E+02  0.20556959743E+02  0.51100000000E-03 0. -1.
        -12    1    4    4    0    0  0.19350112142E+01  0.13235501038E+02  0.19829958378E+02  0.23919657301E+02  0.00000000000E+00 0.  1.
</event>
<event>
 8    1  0.5542925E-011  0.9118800E+02  0.7816164E-02  0.1184000E+00
        -11   -1    0    0    0    0  0.00000000000E+00  0.00000000000E+00  0.45593999997E+02  0.45594000000E+02  0.51100000000E-03 0. -1.
         11   -1    0    0    0    0 -0.00000000000E+00 -0.00000000000E+00 -0.45593999997E+02  0.45594000000E+02  0.51100000000E-03 0.  1.
         23    2    1    2    0    0  0.00000000000E+00 -0.35527136788E-14  0.00000000000E+00  0.91188000000E+02  0.91188000000E+02 0.  0.
    9900012    2    3    3    0    0 -0.36363626764E+01 -0.13670898105E+02  0.41030556739E+02  0.47787272185E+02  0.20000005201E+02 0.  0.
        -12    1    3    3    0    0  0.36363626764E+01  0.13670898105E+02 -0.41030556739E+02  0.43400727815E+02  0.00000000000E+00 0.  1.
         11    1    4    4    0    0 -0.66281660078E+00 -0.90682679442E+01  0.89991197244E+01  0.12792848214E+02  0.51100000000E-03 0. -1.
        -11    1    4    4    0    0 -0.28385850537E+01 -0.82686040066E+01  0.13360686585E+02  0.15966694198E+02  0.51100000000E-03 0.  1.
        -12    1    4    4    0    0 -0.13496102195E+00  0.36659738454E+01  0.18670750429E+02  0.19027729773E+02  0.00000000000E+00 0.  1.
</event>
<event>
 8    1  0.5542925E-011  0.9118800E+02  0.7816164E-02  0.1184000E+00
        -11   -1    0    0    0    0  0.00000000000E+00  0.00000000000E+00  0.45593999997E+02  0.45594000000E+02  0.51100000000E-03 0. -1.
         11   -1    0    0    0    0 -0.00000000000E+00 -0.00000000000E+00 -0.45593999997E+02  0.45594000000E+02  0.51100000000E-03 0.  1.
         23    2    1    2    0    0  0.00000000000E+00  0.00000000000E+00  0.00000000000E+00  0.91188000000E+02  0.91188000000E+02 0.  0.
    9900012    2    3    3    0    0  0.21925227963E+02  0.27776543210E+02  0.25127096961E+02  0.47787274480E+02  0.20000015666E+02 0.  0.
        -12    1    3    3    0    0 -0.21925227963E+02 -0.27776543210E+02 -0.25127096961E+02  0.43400725520E+02  0.00000000000E+00 0.  1.
         11    1    4    4    0    0  0.97449196890E+01  0.10473942367E+02  0.15213421378E+02  0.20883369430E+02  0.51100000000E-03 0.  1.
        -11    1    4    4    0    0  0.33120976825E+01  0.29513130723E+01  0.89702962385E+01  0.10007320060E+02  0.51100000000E-03 0. -1.
        -12    1    4    4    0    0  0.88682105915E+01  0.14351287771E+02  0.94337934477E+00  0.16896584991E+02  0.00000000000E+00 0.  1.
</event>
<event>
 8    1  0.5542925E-011  0.9118800E+02  0.7816164E-02  0.1184000E+00
        -11   -1    0    0    0    0  0.00000000000E+00  0.00000000000E+00  0.45593999997E+02  0.45594000000E+02  0.51100000000E-03 0. -1.
         11   -1    0    0    0    0 -0.00000000000E+00 -0.00000000000E+00 -0.45593999997E+02  0.45594000000E+02  0.51100000000E-03 0.  1.
         23    2    1    2    0    0  0.88817841970E-15  0.71054273576E-14  0.00000000000E+00  0.91188000000E+02  0.91188000000E+02 0.  0.
    9900012    2    3    3    0    0 -0.43862778926E+01 -0.39176574254E+02 -0.18154421517E+02  0.47787234746E+02  0.19999834499E+02 0.  0.
         12    1    3    3    0    0  0.43862778926E+01  0.39176574254E+02  0.18154421517E+02  0.43400765254E+02  0.00000000000E+00 0. -1.
         11    1    4    4    0    0  0.26941250363E+01 -0.10742054585E+02 -0.68016809743E+01  0.12996649982E+02  0.51100000000E-03 0. -1.
        -11    1    4    4    0    0 -0.72641017377E+01 -0.95267727926E+01 -0.10388962605E+02  0.15857399477E+02  0.51100000000E-03 0.  1.
         12    1    4    4    0    0  0.18369880885E+00 -0.18907746876E+02 -0.96377793757E+00  0.18933185287E+02  0.00000000000E+00 0. -1.
</event>
<event>
 8    1  0.5542925E-011  0.9118800E+02  0.7816164E-02  0.1184000E+00
        -11   -1    0    0    0    0  0.00000000000E+00  0.00000000000E+00  0.45593999997E+02  0.45594000000E+02  0.51100000000E-03 0. -1.
         11   -1    0    0    0    0 -0.00000000000E+00 -0.00000000000E+00 -0.45593999997E+02  0.45594000000E+02  0.51100000000E-03 0.  1.
         23    2    1    2    0    0  0.71054273576E-14 -0.88817841970E-15  0.00000000000E+00  0.91188000000E+02  0.91188000000E+02 0.  0.
    9900012    2    3    3    0    0  0.28042312724E+02 -0.12156860333E+01  0.33102480998E+02  0.47787269088E+02  0.19999991081E+02 0.  0.
        -12    1    3    3    0    0 -0.28042312724E+02  0.12156860333E+01 -0.33102480998E+02  0.43400730912E+02  0.00000000000E+00 0.  1.
         11    1    4    4    0    0  0.19658709373E+02 -0.10115889723E+02  0.20529128317E+02  0.30170203659E+02  0.51100000000E-03 0. -1.
        -11    1    4    4    0    0  0.89286474657E+00  0.18312014343E+01  0.19351211719E+01  0.28098399171E+01  0.51100000000E-03 0.  1.
         12    1    4    4    0    0  0.74907386037E+01  0.70690022553E+01  0.10638231510E+02  0.14807225512E+02  0.00000000000E+00 0. -1.
</event>
<event>
 8    1  0.5542925E-011  0.9118800E+02  0.7816164E-02  0.1184000E+00
        -11   -1    0    0    0    0  0.00000000000E+00  0.00000000000E+00  0.45593999997E+02  0.45594000000E+02  0.51100000000E-03 0. -1.
         11   -1    0    0    0    0 -0.00000000000E+00 -0.00000000000E+00 -0.45593999997E+02  0.45594000000E+02  0.51100000000E-03 0.  1.
         23    2    1    2    0    0  0.00000000000E+00  0.00000000000E+00  0.00000000000E+00  0.91188000000E+02  0.91188000000E+02 0.  0.
    9900012    2    3    3    0    0 -0.21609553830E+02  0.32257075115E+02 -0.19394127914E+02  0.47787263725E+02  0.19999966626E+02 0.  0.
         12    1    3    3    0    0  0.21609553830E+02 -0.32257075115E+02  0.19394127914E+02  0.43400736275E+02  0.00000000000E+00 0. -1.
         11    1    4    4    0    0 -0.76358241462E+01  0.78403200507E+01  0.13229562233E+01  0.11023912296E+02  0.51100000000E-03 0. -1.
        -11    1    4    4    0    0 -0.20896688503E+01  0.10898946339E+02 -0.29735141004E+01  0.11488930915E+02  0.51100000000E-03 0.  1.
        -12    1    4    4    0    0 -0.11884060834E+02  0.13517808725E+02 -0.17743570037E+02  0.25274420513E+02  0.00000000000E+00 0.  1.
</event>
<event>
 8    1  0.5542925E-011  0.9118800E+02  0.7816164E-02  0.1184000E+00
        -11   -1    0    0    0    0  0.00000000000E+00  0.00000000000E+00  0.45593999997E+02  0.45594000000E+02  0.51100000000E-03 0. -1.
         11   -1    0    0    0    0 -0.00000000000E+00 -0.00000000000E+00 -0.45593999997E+02  0.45594000000E+02  0.51100000000E-03 0.  1.
         23    2    1    2    0    0  0.00000000000E+00  0.17763568394E-14  0.00000000000E+00  0.91188000000E+02  0.91188000000E+02 0.  0.
    9900012    2    3    3    0    0  0.16039895481E+02 -0.14011509219E+02 -0.37815639171E+02  0.47787271854E+02  0.20000003692E+02 0.  0.
         12    1    3    3    0    0 -0.16039895481E+02  0.14011509219E+02  0.37815639171E+02  0.43400728146E+02  0.00000000000E+00 0. -1.
         11    1    4    4    0    0  0.16384944859E+01 -0.14253014094E+01  0.69641110342E+00  0.22806001346E+01  0.51100000000E-03 0. -1.
        -11    1    4    4    0    0  0.11397343559E+01 -0.14279986350E+01  0.11942048482E+01  0.21827276478E+01  0.51100000000E-03 0.  1.
        -12    1    4    4    0    0  0.13261666639E+02 -0.11158209174E+02 -0.39706255123E+02  0.43323944072E+02  0.00000000000E+00 0.  1.
</event>
<event>
 8    1  0.5542925E-011  0.9118800E+02  0.7816164E-02  0.1184000E+00
        -11   -1    0    0    0    0  0.00000000000E+00  0.00000000000E+00  0.45593999997E+02  0.45594000000E+02  0.51100000000E-03 0. -1.
         11   -1    0    0    0    0 -0.00000000000E+00 -0.00000000000E+00 -0.45593999997E+02  0.45594000000E+02  0.51100000000E-03 0.  1.
         23    2    1    2    0    0 -0.11102230246E-15  0.00000000000E+00  0.00000000000E+00  0.91188000000E+02  0.91188000000E+02 0.  0.
    9900012    2    3    3    0    0 -0.41148025047E+00  0.13007799979E+02 -0.41403516360E+02  0.47787270245E+02  0.19999996355E+02 0.  0.
         12    1    3    3    0    0  0.41148025047E+00 -0.13007799979E+02  0.41403516360E+02  0.43400729755E+02  0.00000000000E+00 0. -1.
         11    1    4    4    0    0 -0.56919759456E+01  0.21454910117E+01 -0.98917683431E+01  0.11612441736E+02  0.51100000000E-03 0. -1.
        -11    1    4    4    0    0  0.40067818894E+01  0.73696941590E+00 -0.12850173646E+01  0.42718491216E+01  0.51100000000E-03 0.  1.
        -12    1    4    4    0    0  0.12737138057E+01  0.10125339552E+02 -0.30226730652E+02  0.31902979388E+02  0.00000000000E+00 0.  1.
</event>
<event>
 8    1  0.5542925E-011  0.9118800E+02  0.7816164E-02  0.1184000E+00
        -11   -1    0    0    0    0  0.00000000000E+00  0.00000000000E+00  0.45593999997E+02  0.45594000000E+02  0.51100000000E-03 0. -1.
         11   -1    0    0    0    0 -0.00000000000E+00 -0.00000000000E+00 -0.45593999997E+02  0.45594000000E+02  0.51100000000E-03 0.  1.
         23    2    1    2    0    0  0.71054273576E-14  0.00000000000E+00  0.35527136788E-14  0.91188000000E+02  0.91188000000E+02 0.  0.
    9900012    2    3    3    0    0 -0.38897135163E+02 -0.80770657366E+01 -0.17475696575E+02  0.47787238652E+02  0.19999852310E+02 0.  0.
         12    1    3    3    0    0  0.38897135163E+02  0.80770657366E+01  0.17475696575E+02  0.43400761348E+02  0.00000000000E+00 0. -1.
         11    1    4    4    0    0  0.20442971805E+01 -0.10675710998E+01 -0.98513418058E+00  0.25078573784E+01  0.51100000000E-03 0. -1.
        -11    1    4    4    0    0 -0.40044167179E+01 -0.68656392984E+00 -0.41939744594E+01  0.58391904668E+01  0.51100000000E-03 0.  1.
        -12    1    4    4    0    0 -0.36937015626E+02 -0.63229307070E+01 -0.12296587935E+02  0.39440190807E+02  0.00000000000E+00 0.  1.
</event>
<event>
 8    1  0.5542925E-011  0.9118800E+02  0.7816164E-02  0.1184000E+00
        -11   -1    0    0    0    0  0.00000000000E+00  0.00000000000E+00  0.45593999997E+02  0.45594000000E+02  0.51100000000E-03 0. -1.
         11   -1    0    0    0    0 -0.00000000000E+00 -0.00000000000E+00 -0.45593999997E+02  0.45594000000E+02  0.51100000000E-03 0.  1.
         23    2    1    2    0    0  0.00000000000E+00 -0.35527136788E-14 -0.35527136788E-14  0.91188000000E+02  0.91188000000E+02 0.  0.
    9900012    2    3    3    0    0  0.14969492482E+02 -0.26267759260E+02  0.31137476586E+02  0.47787270400E+02  0.19999997060E+02 0.  0.
        -12    1    3    3    0    0 -0.14969492482E+02  0.26267759260E+02 -0.31137476586E+02  0.43400729600E+02  0.00000000000E+00 0.  1.
         11    1    4    4    0    0  0.95120947840E+00 -0.11417242719E+01 -0.23688023932E+01  0.27963474077E+01  0.51100000000E-03 0.  1.
        -11    1    4    4    0    0  0.38015178785E+00 -0.17432530993E+01  0.65509376153E+01  0.67895677808E+01  0.51100000000E-03 0. -1.
        -12    1    4    4    0    0  0.13638131216E+02 -0.23382781889E+02  0.26955341364E+02  0.38201355211E+02  0.00000000000E+00 0.  1.
</event>
<event>
 8    1  0.5542925E-011  0.9118800E+02  0.7816164E-02  0.1184000E+00
        -11   -1    0    0    0    0  0.00000000000E+00  0.00000000000E+00  0.45593999997E+02  0.45594000000E+02  0.51100000000E-03 0. -1.
         11   -1    0    0    0    0 -0.00000000000E+00 -0.00000000000E+00 -0.45593999997E+02  0.45594000000E+02  0.51100000000E-03 0.  1.
         23    2    1    2    0    0  0.00000000000E+00  0.00000000000E+00  0.00000000000E+00  0.91188000000E+02  0.91188000000E+02 0.  0.
    9900012    2    3    3    0    0 -0.23378608598E+02 -0.22194899908E+02 -0.29059427188E+02  0.47787271546E+02  0.20000002285E+02 0.  0.
         12    1    3    3    0    0  0.23378608598E+02  0.22194899908E+02  0.29059427188E+02  0.43400728454E+02  0.00000000000E+00 0. -1.
         11    1    4    4    0    0 -0.13580649725E+00 -0.57212818877E+01  0.10225044050E+01  0.58135209093E+01  0.51100000000E-03 0. -1.
        -11    1    4    4    0    0 -0.14094234161E+02 -0.58705221560E+01 -0.15740954467E+02  0.21929161287E+02  0.51100000000E-03 0.  1.
        -12    1    4    4    0    0 -0.91485679393E+01 -0.10603095864E+02 -0.14340977126E+02  0.20044589349E+02  0.00000000000E+00 0.  1.
</event>
<event>
 8    1  0.5542925E-011  0.9118800E+02  0.7816164E-02  0.1184000E+00
        -11   -1    0    0    0    0  0.00000000000E+00  0.00000000000E+00  0.45593999997E+02  0.45594000000E+02  0.51100000000E-03 0. -1.
         11   -1    0    0    0    0 -0.00000000000E+00 -0.00000000000E+00 -0.45593999997E+02  0.45594000000E+02  0.51100000000E-03 0.  1.
         23    2    1    2    0    0  0.44408920985E-15  0.35527136788E-14  0.35527136788E-14  0.91188000000E+02  0.91188000000E+02 0.  0.
    9900012    2    3    3    0    0 -0.34153309520E+01  0.29411947795E+02  0.31731628239E+02  0.47787269715E+02  0.19999993937E+02 0.  0.
        -12    1    3    3    0    0  0.34153309520E+01 -0.29411947795E+02 -0.31731628239E+02  0.43400730285E+02  0.00000000000E+00 0.  1.
         11    1    4    4    0    0 -0.26735939801E+01  0.13090945703E+02  0.19537837837E+02  0.23669560025E+02  0.51100000000E-03 0. -1.
        -11    1    4    4    0    0  0.68843893810E+00  0.12268934117E+02  0.14687077528E+02  0.19149698147E+02  0.51100000000E-03 0.  1.
        -12    1    4    4    0    0 -0.14301759100E+01  0.40520679739E+01 -0.24932871256E+01  0.49680115428E+01  0.00000000000E+00 0.  1.
</event>
<event>
 8    1  0.5542925E-011  0.9118800E+02  0.7816164E-02  0.1184000E+00
        -11   -1    0    0    0    0  0.00000000000E+00  0.00000000000E+00  0.45593999997E+02  0.45594000000E+02  0.51100000000E-03 0. -1.
         11   -1    0    0    0    0 -0.00000000000E+00 -0.00000000000E+00 -0.45593999997E+02  0.45594000000E+02  0.51100000000E-03 0.  1.
         23    2    1    2    0    0  0.00000000000E+00 -0.35527136788E-14 -0.35527136788E-14  0.91188000000E+02  0.91188000000E+02 0.  0.
    9900012    2    3    3    0    0  0.17062267056E+02  0.30861007729E+02  0.25300202331E+02  0.47787274279E+02  0.20000014747E+02 0.  0.
        -12    1    3    3    0    0 -0.17062267056E+02 -0.30861007729E+02 -0.25300202331E+02  0.43400725721E+02  0.00000000000E+00 0.  1.
         11    1    4    4    0    0  0.16259128097E+02  0.19151694132E+02  0.17947843928E+02  0.30875098972E+02  0.51100000000E-03 0. -1.
        -11    1    4    4    0    0  0.19541481227E+01 -0.88353031543E+00 -0.24742484111E+00  0.21588283898E+01  0.51100000000E-03 0.  1.
        -12    1    4    4    0    0 -0.11510091638E+01  0.12592843912E+02  0.75997832447E+01  0.14753346917E+02  0.00000000000E+00 0.  1.
</event>
<event>
 8    1  0.5542925E-011  0.9118800E+02  0.7816164E-02  0.1184000E+00
        -11   -1    0    0    0    0  0.00000000000E+00  0.00000000000E+00  0.45593999997E+02  0.45594000000E+02  0.51100000000E-03 0. -1.
         11   -1    0    0    0    0 -0.00000000000E+00 -0.00000000000E+00 -0.45593999997E+02  0.45594000000E+02  0.51100000000E-03 0.  1.
         23    2    1    2    0    0  0.00000000000E+00  0.00000000000E+00  0.00000000000E+00  0.91188000000E+02  0.91188000000E+02 0.  0.
    9900012    2    3    3    0    0 -0.82225395260E+01  0.32596375374E+02  0.27449764885E+02  0.47787269176E+02  0.19999991483E+02 0.  0.
        -12    1    3    3    0    0  0.82225395260E+01 -0.32596375374E+02 -0.27449764885E+02  0.43400730824E+02  0.00000000000E+00 0.  1.
         11    1    4    4    0    0 -0.40447375898E+01  0.56204193653E+01  0.34746848791E+01  0.77474157810E+01  0.51100000000E-03 0. -1.
        -11    1    4    4    0    0  0.26813674113E+00 -0.21502480344E+01  0.19247836995E+00  0.21754337740E+01  0.51100000000E-03 0.  1.
        -12    1    4    4    0    0 -0.44459386773E+01  0.29126204043E+02  0.23782601636E+02  0.37864419621E+02  0.00000000000E+00 0.  1.
</event>
<event>
 8    1  0.5542925E-011  0.9118800E+02  0.7816164E-02  0.1184000E+00
        -11   -1    0    0    0    0  0.00000000000E+00  0.00000000000E+00  0.45593999997E+02  0.45594000000E+02  0.51100000000E-03 0. -1.
         11   -1    0    0    0    0 -0.00000000000E+00 -0.00000000000E+00 -0.45593999997E+02  0.45594000000E+02  0.51100000000E-03 0.  1.
         23    2    1    2    0    0  0.66613381478E-15  0.71054273576E-14 -0.35527136788E-14  0.91188000000E+02  0.91188000000E+02 0.  0.
    9900012    2    3    3    0    0  0.10952960469E+01  0.35962173255E+02  0.24272325712E+02  0.47787269890E+02  0.19999994736E+02 0.  0.
        -12    1    3    3    0    0 -0.10952960469E+01 -0.35962173255E+02 -0.24272325712E+02  0.43400730110E+02  0.00000000000E+00 0.  1.
         11    1    4    4    0    0  0.54215799995E+01  0.31442842072E+02  0.18614910158E+02  0.36939961122E+02  0.51100000000E-03 0. -1.
        -11    1    4    4    0    0 -0.23654627385E+01  0.59920877333E+01  0.53535985442E+01  0.83762489818E+01  0.51100000000E-03 0.  1.
        -12    1    4    4    0    0 -0.19608212142E+01 -0.14727565506E+01  0.30381700995E+00  0.24710597861E+01  0.00000000000E+00 0.  1.
</event>
<event>
 8    1  0.5655436E-011  0.9118800E+02  0.7816164E-02  0.1184000E+00
        -11   -1    0    0    0    0  0.00000000000E+00  0.00000000000E+00  0.45593999997E+02  0.45594000000E+02  0.51100000000E-03 0. -1.
         11   -1    0    0    0    0 -0.00000000000E+00 -0.00000000000E+00 -0.45593999997E+02  0.45594000000E+02  0.51100000000E-03 0.  1.
         23    2    1    2    0    0  0.00000000000E+00  0.00000000000E+00  0.00000000000E+00  0.91188000000E+02  0.91188000000E+02 0.  0.
    9900012    2    3    3    0    0 -0.28055699083E+02  0.56748922440E+01  0.32623558283E+02  0.47787271802E+02  0.20000003455E+02 0.  0.
        -12    1    3    3    0    0  0.28055699083E+02 -0.56748922440E+01 -0.32623558283E+02  0.43400728198E+02  0.00000000000E+00 0.  1.
         11    1    4    4    0    0 -0.15278445036E+01 -0.35216436833E+01  0.49821203561E+01  0.62894997069E+01  0.51100000000E-03 0. -1.
        -11    1    4    4    0    0 -0.55788738107E+01 -0.17779759325E+01  0.11164606916E+01  0.59608318336E+01  0.51100000000E-03 0.  1.
         12    1    4    4    0    0 -0.20948980769E+02  0.10974511860E+02  0.26524977236E+02  0.35536940262E+02  0.00000000000E+00 0. -1.
</event>
<event>
 8    1  0.5542925E-011  0.9118800E+02  0.7816164E-02  0.1184000E+00
        -11   -1    0    0    0    0  0.00000000000E+00  0.00000000000E+00  0.45593999997E+02  0.45594000000E+02  0.51100000000E-03 0. -1.
         11   -1    0    0    0    0 -0.00000000000E+00 -0.00000000000E+00 -0.45593999997E+02  0.45594000000E+02  0.51100000000E-03 0.  1.
         23    2    1    2    0    0  0.00000000000E+00  0.35527136788E-14 -0.35527136788E-14  0.91188000000E+02  0.91188000000E+02 0.  0.
    9900012    2    3    3    0    0 -0.28046443393E+02  0.26694133766E+02 -0.19607223372E+02  0.47787274512E+02  0.20000015812E+02 0.  0.
         12    1    3    3    0    0  0.28046443393E+02 -0.26694133766E+02  0.19607223372E+02  0.43400725488E+02  0.00000000000E+00 0. -1.
         11    1    4    4    0    0  0.18521803636E+00  0.95227010532E+00 -0.53191618868E+01  0.54069036901E+01  0.51100000000E-03 0. -1.
        -11    1    4    4    0    0 -0.67585639667E+01  0.10892263235E+02 -0.43721316652E+00  0.12826174055E+02  0.51100000000E-03 0.  1.
        -12    1    4    4    0    0 -0.21473097462E+02  0.14849600426E+02 -0.13850848319E+02  0.29554196768E+02  0.00000000000E+00 0.  1.
</event>
<event>
 8    1  0.5542925E-011  0.9118800E+02  0.7816164E-02  0.1184000E+00
        -11   -1    0    0    0    0  0.00000000000E+00  0.00000000000E+00  0.45593999997E+02  0.45594000000E+02  0.51100000000E-03 0.  1.
         11   -1    0    0    0    0 -0.00000000000E+00 -0.00000000000E+00 -0.45593999997E+02  0.45594000000E+02  0.51100000000E-03 0. -1.
         23    2    1    2    0    0  0.00000000000E+00  0.00000000000E+00  0.88817841970E-15  0.91188000000E+02  0.91188000000E+02 0.  0.
    9900012    2    3    3    0    0  0.41888110656E+02 -0.10332620897E+02 -0.47165501313E+01  0.47787277494E+02  0.20000029406E+02 0.  0.
         12    1    3    3    0    0 -0.41888110656E+02  0.10332620897E+02  0.47165501313E+01  0.43400722506E+02  0.00000000000E+00 0. -1.
         11    1    4    4    0    0  0.74491991039E+01  0.45945770814E+01 -0.24547324304E-01  0.87522173579E+01  0.51100000000E-03 0.  1.
        -11    1    4    4    0    0  0.64506368046E+01 -0.43964436098E+01  0.26485513393E+01  0.82434371507E+01  0.51100000000E-03 0. -1.
        -12    1    4    4    0    0  0.27988274747E+02 -0.10530754369E+02 -0.73405541462E+01  0.30791622985E+02  0.00000000000E+00 0.  1.
</event>
<event>
 8    1  0.5542925E-011  0.9118800E+02  0.7816164E-02  0.1184000E+00
        -11   -1    0    0    0    0  0.00000000000E+00  0.00000000000E+00  0.45593999997E+02  0.45594000000E+02  0.51100000000E-03 0. -1.
         11   -1    0    0    0    0 -0.00000000000E+00 -0.00000000000E+00 -0.45593999997E+02  0.45594000000E+02  0.51100000000E-03 0.  1.
         23    2    1    2    0    0  0.17763568394E-14  0.00000000000E+00 -0.71054273576E-14  0.91188000000E+02  0.91188000000E+02 0.  0.
    9900012    2    3    3    0    0  0.13791514899E+02  0.24009231390E+02  0.33421166228E+02  0.47787269278E+02  0.19999991946E+02 0.  0.
        -12    1    3    3    0    0 -0.13791514899E+02 -0.24009231390E+02 -0.33421166228E+02  0.43400730722E+02  0.00000000000E+00 0.  1.
         11    1    4    4    0    0  0.82473039632E+01  0.18003721473E+02  0.30381019353E+02  0.36265111977E+02  0.51100000000E-03 0. -1.
        -11    1    4    4    0    0  0.75273312841E+00 -0.14352687533E+01  0.20553884838E+01  0.26174846011E+01  0.51100000000E-03 0.  1.
        -12    1    4    4    0    0  0.47914778076E+01  0.74407786702E+01  0.98475839193E+00  0.89046726998E+01  0.00000000000E+00 0.  1.
</event>
<event>
 8    1  0.5542925E-011  0.9118800E+02  0.7816164E-02  0.1184000E+00
        -11   -1    0    0    0    0  0.00000000000E+00  0.00000000000E+00  0.45593999997E+02  0.45594000000E+02  0.51100000000E-03 0.  1.
         11   -1    0    0    0    0 -0.00000000000E+00 -0.00000000000E+00 -0.45593999997E+02  0.45594000000E+02  0.51100000000E-03 0. -1.
         23    2    1    2    0    0  0.88817841970E-15  0.00000000000E+00  0.35527136788E-14  0.91188000000E+02  0.91188000000E+02 0.  0.
    9900012    2    3    3    0    0  0.77140053406E+01  0.34591081572E+02  0.25051433736E+02  0.47787272645E+02  0.20000007296E+02 0.  0.
        -12    1    3    3    0    0 -0.77140053406E+01 -0.34591081572E+02 -0.25051433736E+02  0.43400727355E+02  0.00000000000E+00 0.  1.
         11    1    4    4    0    0  0.27027456945E+01  0.18622862169E+02  0.65818373173E+01  0.19935807292E+02  0.51100000000E-03 0. -1.
        -11    1    4    4    0    0  0.41802164621E+01  0.17760826082E+02  0.18341496899E+02  0.25871444907E+02  0.51100000000E-03 0.  1.
         12    1    4    4    0    0  0.83104318405E+00 -0.17926066790E+01  0.12809951971E+00  0.19800204459E+01  0.00000000000E+00 0. -1.
</event>
<event>
 8    1  0.5542925E-011  0.9118800E+02  0.7816164E-02  0.1184000E+00
        -11   -1    0    0    0    0  0.00000000000E+00  0.00000000000E+00  0.45593999997E+02  0.45594000000E+02  0.51100000000E-03 0.  1.
         11   -1    0    0    0    0 -0.00000000000E+00 -0.00000000000E+00 -0.45593999997E+02  0.45594000000E+02  0.51100000000E-03 0. -1.
         23    2    1    2    0    0 -0.71054273576E-14  0.00000000000E+00 -0.88817841970E-15  0.91188000000E+02  0.91188000000E+02 0.  0.
    9900012    2    3    3    0    0 -0.40771120339E+02 -0.13159438252E+02  0.69402789799E+01  0.47787279486E+02  0.20000038490E+02 0.  0.
         12    1    3    3    0    0  0.40771120339E+02  0.13159438252E+02 -0.69402789799E+01  0.43400720514E+02  0.00000000000E+00 0. -1.
         11    1    4    4    0    0 -0.19894251206E+02 -0.99921129550E+01 -0.36337343180E+00  0.22265569673E+02  0.51100000000E-03 0. -1.
        -11    1    4    4    0    0 -0.19448678005E+02 -0.60718112654E+01  0.84926686196E+01  0.22073590300E+02  0.51100000000E-03 0.  1.
         12    1    4    4    0    0 -0.14281911278E+01  0.29044859683E+01 -0.11890162080E+01  0.34481195136E+01  0.00000000000E+00 0. -1.
</event>
<event>
 8    1  0.5542925E-011  0.9118800E+02  0.7816164E-02  0.1184000E+00
        -11   -1    0    0    0    0  0.00000000000E+00  0.00000000000E+00  0.45593999997E+02  0.45594000000E+02  0.51100000000E-03 0. -1.
         11   -1    0    0    0    0 -0.00000000000E+00 -0.00000000000E+00 -0.45593999997E+02  0.45594000000E+02  0.51100000000E-03 0.  1.
         23    2    1    2    0    0  0.00000000000E+00 -0.71054273576E-14 -0.35527136788E-14  0.91188000000E+02  0.91188000000E+02 0.  0.
    9900012    2    3    3    0    0 -0.14773322864E+02  0.34423894414E+02  0.21917299618E+02  0.47787267315E+02  0.19999982994E+02 0.  0.
        -12    1    3    3    0    0  0.14773322864E+02 -0.34423894414E+02 -0.21917299618E+02  0.43400732685E+02  0.00000000000E+00 0.  1.
         11    1    4    4    0    0 -0.56233568225E+01  0.22391551932E+02  0.11522626326E+02  0.25802609511E+02  0.51100000000E-03 0. -1.
        -11    1    4    4    0    0 -0.70736063996E+01  0.13404713018E+02  0.48609993038E+01  0.15917020861E+02  0.51100000000E-03 0.  1.
        -12    1    4    4    0    0 -0.20763596421E+01 -0.13723705364E+01  0.55336739882E+01  0.60676369420E+01  0.00000000000E+00 0.  1.
</event>
<event>
 8    1  0.5542925E-011  0.9118800E+02  0.7816164E-02  0.1184000E+00
        -11   -1    0    0    0    0  0.00000000000E+00  0.00000000000E+00  0.45593999997E+02  0.45594000000E+02  0.51100000000E-03 0. -1.
         11   -1    0    0    0    0 -0.00000000000E+00 -0.00000000000E+00 -0.45593999997E+02  0.45594000000E+02  0.51100000000E-03 0.  1.
         23    2    1    2    0    0  0.00000000000E+00 -0.35527136788E-14  0.00000000000E+00  0.91188000000E+02  0.91188000000E+02 0.  0.
    9900012    2    3    3    0    0 -0.28931272869E+02  0.25173577291E+02 -0.20319840551E+02  0.47787268860E+02  0.19999990039E+02 0.  0.
         12    1    3    3    0    0  0.28931272869E+02 -0.25173577291E+02  0.20319840551E+02  0.43400731140E+02  0.00000000000E+00 0. -1.
         11    1    4    4    0    0 -0.97871604757E+01  0.60806496355E+01 -0.50521624940E-02  0.11522275641E+02  0.51100000000E-03 0. -1.
        -11    1    4    4    0    0 -0.15965589504E+02  0.72770528507E+01 -0.95978061297E+01  0.19999335719E+02  0.51100000000E-03 0.  1.
         12    1    4    4    0    0 -0.31785228892E+01  0.11815874805E+02 -0.10716982259E+02  0.16265657500E+02  0.00000000000E+00 0. -1.
</event>
<event>
 8    1  0.5542925E-011  0.9118800E+02  0.7816164E-02  0.1184000E+00
        -11   -1    0    0    0    0  0.00000000000E+00  0.00000000000E+00  0.45593999997E+02  0.45594000000E+02  0.51100000000E-03 0. -1.
         11   -1    0    0    0    0 -0.00000000000E+00 -0.00000000000E+00 -0.45593999997E+02  0.45594000000E+02  0.51100000000E-03 0.  1.
         23    2    1    2    0    0  0.00000000000E+00  0.00000000000E+00  0.71054273576E-14  0.91188000000E+02  0.91188000000E+02 0.  0.
    9900012    2    3    3    0    0 -0.85209405372E+01 -0.14739296441E+02 -0.39922044969E+02  0.47787274640E+02  0.20000016396E+02 0.  0.
         12    1    3    3    0    0  0.85209405372E+01  0.14739296441E+02  0.39922044969E+02  0.43400725360E+02  0.00000000000E+00 0. -1.
         11    1    4    4    0    0 -0.19231138872E+01  0.15207392024E+01 -0.13482572518E+01  0.27980015409E+01  0.51100000000E-03 0. -1.
        -11    1    4    4    0    0  0.19978411628E+01 -0.86903316821E+01 -0.67995016820E+01  0.11213672790E+02  0.51100000000E-03 0.  1.
         12    1    4    4    0    0 -0.85956678129E+01 -0.75697039613E+01 -0.31774286035E+02  0.33775600310E+02  0.00000000000E+00 0. -1.
</event>
<event>
 8    1  0.5542925E-011  0.9118800E+02  0.7816164E-02  0.1184000E+00
        -11   -1    0    0    0    0  0.00000000000E+00  0.00000000000E+00  0.45593999997E+02  0.45594000000E+02  0.51100000000E-03 0. -1.
         11   -1    0    0    0    0 -0.00000000000E+00 -0.00000000000E+00 -0.45593999997E+02  0.45594000000E+02  0.51100000000E-03 0.  1.
         23    2    1    2    0    0 -0.71054273576E-14  0.17763568394E-14  0.17763568394E-14  0.91188000000E+02  0.91188000000E+02 0.  0.
    9900012    2    3    3    0    0  0.39410444309E+02  0.12810620587E+02 -0.12896681842E+02  0.47787314257E+02  0.20000197023E+02 0.  0.
         12    1    3    3    0    0 -0.39410444309E+02 -0.12810620587E+02  0.12896681842E+02  0.43400685743E+02  0.00000000000E+00 0. -1.
         11    1    4    4    0    0  0.17836418349E+02  0.87948087144E+01 -0.82756835728E+01  0.21540042217E+02  0.51100000000E-03 0. -1.
        -11    1    4    4    0    0  0.12519224910E+02  0.84886193737E+01  0.36504296850E-01  0.15125772180E+02  0.51100000000E-03 0.  1.
         12    1    4    4    0    0  0.90548010497E+01 -0.44728075014E+01 -0.46575025658E+01  0.11121499860E+02  0.00000000000E+00 0. -1.
</event>
<event>
 8    1  0.5542925E-011  0.9118800E+02  0.7816164E-02  0.1184000E+00
        -11   -1    0    0    0    0  0.00000000000E+00  0.00000000000E+00  0.45593999997E+02  0.45594000000E+02  0.51100000000E-03 0. -1.
         11   -1    0    0    0    0 -0.00000000000E+00 -0.00000000000E+00 -0.45593999997E+02  0.45594000000E+02  0.51100000000E-03 0.  1.
         23    2    1    2    0    0  0.00000000000E+00 -0.71054273576E-14  0.00000000000E+00  0.91188000000E+02  0.91188000000E+02 0.  0.
    9900012    2    3    3    0    0 -0.12763515932E+02  0.38279931499E+02 -0.15980057521E+02  0.47787277277E+02  0.20000028417E+02 0.  0.
         12    1    3    3    0    0  0.12763515932E+02 -0.38279931499E+02  0.15980057521E+02  0.43400722723E+02  0.00000000000E+00 0. -1.
         11    1    4    4    0    0  0.41480512315E+01  0.26548651096E+01 -0.16421181324E+01  0.51914535529E+01  0.51100000000E-03 0. -1.
        -11    1    4    4    0    0 -0.85304259573E+01  0.99825135891E+01 -0.45002252262E+01  0.13880589754E+02  0.51100000000E-03 0.  1.
         12    1    4    4    0    0 -0.83811412066E+01  0.25642552800E+02 -0.98377141621E+01  0.28715233970E+02  0.00000000000E+00 0. -1.
</event>
<event>
 8    1  0.5542925E-011  0.9118800E+02  0.7816164E-02  0.1184000E+00
        -11   -1    0    0    0    0  0.00000000000E+00  0.00000000000E+00  0.45593999997E+02  0.45594000000E+02  0.51100000000E-03 0.  1.
         11   -1    0    0    0    0 -0.00000000000E+00 -0.00000000000E+00 -0.45593999997E+02  0.45594000000E+02  0.51100000000E-03 0. -1.
         23    2    1    2    0    0 -0.71054273576E-14  0.00000000000E+00  0.00000000000E+00  0.91188000000E+02  0.91188000000E+02 0.  0.
    9900012    2    3    3    0    0 -0.35890303088E+02 -0.23694032986E+02 -0.58396904451E+01  0.47787273746E+02  0.20000012315E+02 0.  0.
         12    1    3    3    0    0  0.35890303088E+02  0.23694032986E+02  0.58396904451E+01  0.43400726254E+02  0.00000000000E+00 0. -1.
         11    1    4    4    0    0 -0.57112455849E+01  0.10945026589E+00  0.56336869867E+00  0.57400078435E+01  0.51100000000E-03 0. -1.
        -11    1    4    4    0    0 -0.54479172743E+01 -0.23814057038E+01  0.46110646017E+01  0.75241486413E+01  0.51100000000E-03 0.  1.
         12    1    4    4    0    0 -0.24731140229E+02 -0.21422077548E+02 -0.11014123745E+02  0.34523117261E+02  0.00000000000E+00 0. -1.
</event>
<event>
 8    1  0.5542925E-011  0.9118800E+02  0.7816164E-02  0.1184000E+00
        -11   -1    0    0    0    0  0.00000000000E+00  0.00000000000E+00  0.45593999997E+02  0.45594000000E+02  0.51100000000E-03 0. -1.
         11   -1    0    0    0    0 -0.00000000000E+00 -0.00000000000E+00 -0.45593999997E+02  0.45594000000E+02  0.51100000000E-03 0.  1.
         23    2    1    2    0    0 -0.71054273576E-14  0.00000000000E+00 -0.35527136788E-14  0.91188000000E+02  0.91188000000E+02 0.  0.
    9900012    2    3    3    0    0  0.32844376141E+02 -0.33475021331E+01  0.28172053335E+02  0.47787269548E+02  0.19999993179E+02 0.  0.
        -12    1    3    3    0    0 -0.32844376141E+02  0.33475021331E+01 -0.28172053335E+02  0.43400730452E+02  0.00000000000E+00 0.  1.
         11    1    4    4    0    0  0.12014509963E+02 -0.21562881542E+01  0.57316119249E+01  0.13485154941E+02  0.51100000000E-03 0. -1.
        -11    1    4    4    0    0  0.57809006985E-01 -0.39156596778E+01  0.46993619933E+00  0.39441821569E+01  0.51100000000E-03 0.  1.
         12    1    4    4    0    0  0.20772057171E+02  0.27244456990E+01  0.21970505210E+02  0.30357932451E+02  0.00000000000E+00 0. -1.
</event>
<event>
 8    1  0.5542925E-011  0.9118800E+02  0.7816164E-02  0.1184000E+00
        -11   -1    0    0    0    0  0.00000000000E+00  0.00000000000E+00  0.45593999997E+02  0.45594000000E+02  0.51100000000E-03 0. -1.
         11   -1    0    0    0    0 -0.00000000000E+00 -0.00000000000E+00 -0.45593999997E+02  0.45594000000E+02  0.51100000000E-03 0.  1.
         23    2    1    2    0    0 -0.71054273576E-14  0.00000000000E+00  0.00000000000E+00  0.91188000000E+02  0.91188000000E+02 0.  0.
    9900012    2    3    3    0    0 -0.34336059077E+02 -0.48431038730E+01 -0.26099859835E+02  0.47787270841E+02  0.19999999074E+02 0.  0.
         12    1    3    3    0    0  0.34336059077E+02  0.48431038730E+01  0.26099859835E+02  0.43400729159E+02  0.00000000000E+00 0. -1.
         11    1    4    4    0    0 -0.32388250230E+01 -0.32112718552E+01 -0.35537031073E+01  0.57819599180E+01  0.51100000000E-03 0. -1.
        -11    1    4    4    0    0 -0.28006313434E+02  0.27616162187E+01 -0.23357524696E+02  0.36572586407E+02  0.51100000000E-03 0.  1.
        -12    1    4    4    0    0 -0.30909206204E+01 -0.43934482365E+01  0.81136796861E+00  0.54327245162E+01  0.00000000000E+00 0.  1.
</event>
<event>
 8    1  0.5542925E-011  0.9118800E+02  0.7816164E-02  0.1184000E+00
        -11   -1    0    0    0    0  0.00000000000E+00  0.00000000000E+00  0.45593999997E+02  0.45594000000E+02  0.51100000000E-03 0. -1.
         11   -1    0    0    0    0 -0.00000000000E+00 -0.00000000000E+00 -0.45593999997E+02  0.45594000000E+02  0.51100000000E-03 0.  1.
         23    2    1    2    0    0  0.35527136788E-14  0.00000000000E+00  0.00000000000E+00  0.91188000000E+02  0.91188000000E+02 0.  0.
    9900012    2    3    3    0    0  0.28453415549E+02 -0.23364113477E+02  0.22981413971E+02  0.47787262183E+02  0.19999959596E+02 0.  0.
        -12    1    3    3    0    0 -0.28453415549E+02  0.23364113477E+02 -0.22981413971E+02  0.43400737817E+02  0.00000000000E+00 0.  1.
         11    1    4    4    0    0  0.19575596517E+02 -0.12954515203E+02  0.12079668060E+02  0.26399655752E+02  0.51100000000E-03 0. -1.
        -11    1    4    4    0    0  0.97187186840E+01 -0.19669166144E+01  0.58068206003E+01  0.11490927707E+02  0.51100000000E-03 0.  1.
        -12    1    4    4    0    0 -0.84089965166E+00 -0.84426816602E+01  0.50949253106E+01  0.98966787237E+01  0.00000000000E+00 0.  1.
</event>
<event>
 8    1  0.5631056E-011  0.9118800E+02  0.7816164E-02  0.1184000E+00
        -11   -1    0    0    0    0  0.00000000000E+00  0.00000000000E+00  0.45593999997E+02  0.45594000000E+02  0.51100000000E-03 0.  1.
         11   -1    0    0    0    0 -0.00000000000E+00 -0.00000000000E+00 -0.45593999997E+02  0.45594000000E+02  0.51100000000E-03 0. -1.
         23    2    1    2    0    0  0.00000000000E+00  0.00000000000E+00  0.00000000000E+00  0.91188000000E+02  0.91188000000E+02 0.  0.
    9900012    2    3    3    0    0 -0.38969502462E+02 -0.15174178120E+02  0.11607976068E+02  0.47787275212E+02  0.20000019001E+02 0.  0.
        -12    1    3    3    0    0  0.38969502462E+02  0.15174178120E+02 -0.11607976068E+02  0.43400724788E+02  0.00000000000E+00 0.  1.
         11    1    4    4    0    0 -0.54870193873E+01 -0.28917514544E+01 -0.28613077755E+01  0.68305703040E+01  0.51100000000E-03 0. -1.
        -11    1    4    4    0    0 -0.19380392052E+01  0.20332222620E+01  0.37695869213E+01  0.47010397303E+01  0.51100000000E-03 0.  1.
         12    1    4    4    0    0 -0.31544443869E+02 -0.14315648928E+02  0.10699696922E+02  0.36255665178E+02  0.00000000000E+00 0. -1.
</event>
<event>
 8    1  0.5542925E-011  0.9118800E+02  0.7816164E-02  0.1184000E+00
        -11   -1    0    0    0    0  0.00000000000E+00  0.00000000000E+00  0.45593999997E+02  0.45594000000E+02  0.51100000000E-03 0. -1.
         11   -1    0    0    0    0 -0.00000000000E+00 -0.00000000000E+00 -0.45593999997E+02  0.45594000000E+02  0.51100000000E-03 0.  1.
         23    2    1    2    0    0 -0.35527136788E-14  0.00000000000E+00  0.00000000000E+00  0.91188000000E+02  0.91188000000E+02 0.  0.
    9900012    2    3    3    0    0  0.23194897641E+02  0.15842315091E+02  0.33085355220E+02  0.47787274729E+02  0.20000016800E+02 0.  0.
        -12    1    3    3    0    0 -0.23194897641E+02 -0.15842315091E+02 -0.33085355220E+02  0.43400725271E+02  0.00000000000E+00 0.  1.
         11    1    4    4    0    0  0.26210452221E+01 -0.52910242876E+00  0.20565886954E+01  0.33733343682E+01  0.51100000000E-03 0. -1.
        -11    1    4    4    0    0 -0.23558732948E+01 -0.11216182862E+00 -0.13008964264E+00  0.23621267606E+01  0.51100000000E-03 0.  1.
         12    1    4    4    0    0  0.22929725714E+02  0.16483579348E+02  0.31158856167E+02  0.42051813600E+02  0.00000000000E+00 0. -1.
</event>
<event>
 8    1  0.5542925E-011  0.9118800E+02  0.7816164E-02  0.1184000E+00
        -11   -1    0    0    0    0  0.00000000000E+00  0.00000000000E+00  0.45593999997E+02  0.45594000000E+02  0.51100000000E-03 0. -1.
         11   -1    0    0    0    0 -0.00000000000E+00 -0.00000000000E+00 -0.45593999997E+02  0.45594000000E+02  0.51100000000E-03 0.  1.
         23    2    1    2    0    0  0.35527136788E-14  0.00000000000E+00  0.00000000000E+00  0.91188000000E+02  0.91188000000E+02 0.  0.
    9900012    2    3    3    0    0 -0.23365686867E+02 -0.26394357484E+02  0.25318096379E+02  0.47787269200E+02  0.19999991589E+02 0.  0.
        -12    1    3    3    0    0  0.23365686867E+02  0.26394357484E+02 -0.25318096379E+02  0.43400730800E+02  0.00000000000E+00 0.  1.
         11    1    4    4    0    0 -0.10159962960E+02 -0.11232559151E+02  0.62440599549E+01  0.16382414883E+02  0.51100000000E-03 0. -1.
        -11    1    4    4    0    0 -0.11341211807E+02 -0.35771795494E+01  0.45486186681E+01  0.12732212330E+02  0.51100000000E-03 0.  1.
         12    1    4    4    0    0 -0.18645120993E+01 -0.11584618784E+02  0.14525417756E+02  0.18672641986E+02  0.00000000000E+00 0. -1.
</event>
<event>
 8    1  0.5542925E-011  0.9118800E+02  0.7816164E-02  0.1184000E+00
        -11   -1    0    0    0    0  0.00000000000E+00  0.00000000000E+00  0.45593999997E+02  0.45594000000E+02  0.51100000000E-03 0. -1.
         11   -1    0    0    0    0 -0.00000000000E+00 -0.00000000000E+00 -0.45593999997E+02  0.45594000000E+02  0.51100000000E-03 0.  1.
         23    2    1    2    0    0 -0.71054273576E-14  0.17763568394E-14 -0.35527136788E-14  0.91188000000E+02  0.91188000000E+02 0.  0.
    9900012    2    3    3    0    0 -0.35249111331E+02  0.14438080212E+02 -0.20800595427E+02  0.47787276735E+02  0.20000025945E+02 0.  0.
         12    1    3    3    0    0  0.35249111331E+02 -0.14438080212E+02  0.20800595427E+02  0.43400723265E+02  0.00000000000E+00 0. -1.
         11    1    4    4    0    0 -0.15802454775E+02  0.65013993476E+01 -0.18364504201E+01  0.17185991994E+02  0.51100000000E-03 0. -1.
        -11    1    4    4    0    0 -0.18827572571E+02  0.35208645026E+01 -0.12976660132E+02  0.23135852788E+02  0.51100000000E-03 0.  1.
         12    1    4    4    0    0 -0.61908398423E+00  0.44158163622E+01 -0.59874848753E+01  0.74654319537E+01  0.00000000000E+00 0. -1.
</event>
<event>
 8    1  0.5542925E-011  0.9118800E+02  0.7816164E-02  0.1184000E+00
        -11   -1    0    0    0    0  0.00000000000E+00  0.00000000000E+00  0.45593999997E+02  0.45594000000E+02  0.51100000000E-03 0.  1.
         11   -1    0    0    0    0 -0.00000000000E+00 -0.00000000000E+00 -0.45593999997E+02  0.45594000000E+02  0.51100000000E-03 0. -1.
         23    2    1    2    0    0  0.00000000000E+00  0.88817841970E-15  0.35527136788E-14  0.91188000000E+02  0.91188000000E+02 0.  0.
    9900012    2    3    3    0    0 -0.37767281024E+02 -0.79306098234E+01 -0.19858530641E+02  0.47787270429E+02  0.19999997194E+02 0.  0.
         12    1    3    3    0    0  0.37767281024E+02  0.79306098234E+01  0.19858530641E+02  0.43400729571E+02  0.00000000000E+00 0. -1.
         11    1    4    4    0    0  0.84006850960E+00 -0.28269022363E+01 -0.23223570249E+01  0.37537226544E+01  0.51100000000E-03 0. -1.
        -11    1    4    4    0    0 -0.14914375913E+02 -0.56777538098E+01 -0.11214837424E+02  0.19505078209E+02  0.51100000000E-03 0.  1.
        -12    1    4    4    0    0 -0.23692973620E+02  0.57404622265E+00 -0.63213361919E+01  0.24528469566E+02  0.00000000000E+00 0.  1.
</event>
<event>
 8    1  0.5542925E-011  0.9118800E+02  0.7816164E-02  0.1184000E+00
        -11   -1    0    0    0    0  0.00000000000E+00  0.00000000000E+00  0.45593999997E+02  0.45594000000E+02  0.51100000000E-03 0. -1.
         11   -1    0    0    0    0 -0.00000000000E+00 -0.00000000000E+00 -0.45593999997E+02  0.45594000000E+02  0.51100000000E-03 0.  1.
         23    2    1    2    0    0  0.17763568394E-14  0.00000000000E+00  0.00000000000E+00  0.91188000000E+02  0.91188000000E+02 0.  0.
    9900012    2    3    3    0    0  0.10542702688E+02  0.56995196840E+01  0.41713186799E+02  0.47787273537E+02  0.20000011366E+02 0.  0.
        -12    1    3    3    0    0 -0.10542702688E+02 -0.56995196840E+01 -0.41713186799E+02  0.43400726463E+02  0.00000000000E+00 0.  1.
         11    1    4    4    0    0  0.54483260736E+01  0.27198871025E+01  0.29272393425E+02  0.29899081256E+02  0.51100000000E-03 0. -1.
        -11    1    4    4    0    0  0.38440564719E+01 -0.15280955382E+01  0.12544681619E+02  0.13209121217E+02  0.51100000000E-03 0.  1.
        -12    1    4    4    0    0  0.12503201420E+01  0.45077281196E+01 -0.10388824562E+00  0.46790710644E+01  0.00000000000E+00 0.  1.
</event>
<event>
 8    1  0.5542925E-011  0.9118800E+02  0.7816164E-02  0.1184000E+00
        -11   -1    0    0    0    0  0.00000000000E+00  0.00000000000E+00  0.45593999997E+02  0.45594000000E+02  0.51100000000E-03 0. -1.
         11   -1    0    0    0    0 -0.00000000000E+00 -0.00000000000E+00 -0.45593999997E+02  0.45594000000E+02  0.51100000000E-03 0.  1.
         23    2    1    2    0    0 -0.35527136788E-14  0.00000000000E+00  0.00000000000E+00  0.91188000000E+02  0.91188000000E+02 0.  0.
    9900012    2    3    3    0    0 -0.26863273982E+02 -0.18073285355E+01 -0.34039994960E+02  0.47787272099E+02  0.20000004809E+02 0.  0.
         12    1    3    3    0    0  0.26863273982E+02  0.18073285355E+01  0.34039994960E+02  0.43400727901E+02  0.00000000000E+00 0. -1.
         11    1    4    4    0    0 -0.10819694674E+02 -0.14878224112E+01 -0.40813565343E+01  0.11659197219E+02  0.51100000000E-03 0. -1.
        -11    1    4    4    0    0 -0.15047395588E+02 -0.12576818811E+00 -0.15390309528E+02  0.21524440975E+02  0.51100000000E-03 0.  1.
        -12    1    4    4    0    0 -0.99618371905E+00 -0.19373793621E+00 -0.14568328897E+02  0.14603633906E+02  0.00000000000E+00 0.  1.
</event>
<event>
 8    1  0.5542925E-011  0.9118800E+02  0.7816164E-02  0.1184000E+00
        -11   -1    0    0    0    0  0.00000000000E+00  0.00000000000E+00  0.45593999997E+02  0.45594000000E+02  0.51100000000E-03 0. -1.
         11   -1    0    0    0    0 -0.00000000000E+00 -0.00000000000E+00 -0.45593999997E+02  0.45594000000E+02  0.51100000000E-03 0.  1.
         23    2    1    2    0    0  0.88817841970E-15 -0.35527136788E-14  0.00000000000E+00  0.91188000000E+02  0.91188000000E+02 0.  0.
    9900012    2    3    3    0    0 -0.57832611612E+01  0.20925285857E+02  0.37580707948E+02  0.47787270655E+02  0.19999998224E+02 0.  0.
        -12    1    3    3    0    0  0.57832611612E+01 -0.20925285857E+02 -0.37580707948E+02  0.43400729345E+02  0.00000000000E+00 0.  1.
         11    1    4    4    0    0 -0.25823967158E+01  0.90749048110E+01  0.37036175645E+01  0.10136047230E+02  0.51100000000E-03 0.  1.
        -11    1    4    4    0    0  0.30191864362E+01  0.59524965421E+01  0.81527855102E+01  0.10536394718E+02  0.51100000000E-03 0. -1.
        -12    1    4    4    0    0 -0.62200508816E+01  0.58978845036E+01  0.25724304873E+02  0.27114828707E+02  0.00000000000E+00 0.  1.
</event>
<event>
 8    1  0.5542925E-011  0.9118800E+02  0.7816164E-02  0.1184000E+00
        -11   -1    0    0    0    0  0.00000000000E+00  0.00000000000E+00  0.45593999997E+02  0.45594000000E+02  0.51100000000E-03 0.  1.
         11   -1    0    0    0    0 -0.00000000000E+00 -0.00000000000E+00 -0.45593999997E+02  0.45594000000E+02  0.51100000000E-03 0. -1.
         23    2    1    2    0    0  0.00000000000E+00  0.00000000000E+00  0.00000000000E+00  0.91188000000E+02  0.91188000000E+02 0.  0.
    9900012    2    3    3    0    0 -0.18199548784E+02  0.27401224264E+01 -0.39305105821E+02  0.47787272006E+02  0.20000004383E+02 0.  0.
         12    1    3    3    0    0  0.18199548784E+02 -0.27401224264E+01  0.39305105821E+02  0.43400727994E+02  0.00000000000E+00 0. -1.
         11    1    4    4    0    0 -0.84986635085E+00  0.53150441615E+00 -0.12334542865E+02  0.12375205765E+02  0.51100000000E-03 0. -1.
        -11    1    4    4    0    0 -0.75415328454E+01  0.31407839525E+00 -0.23743356502E+02  0.24914259795E+02  0.51100000000E-03 0.  1.
        -12    1    4    4    0    0 -0.98081495876E+01  0.18945396150E+01 -0.32272064532E+01  0.10497806446E+02  0.00000000000E+00 0.  1.
</event>
<event>
 8    1  0.5542925E-011  0.9118800E+02  0.7816164E-02  0.1184000E+00
        -11   -1    0    0    0    0  0.00000000000E+00  0.00000000000E+00  0.45593999997E+02  0.45594000000E+02  0.51100000000E-03 0. -1.
         11   -1    0    0    0    0 -0.00000000000E+00 -0.00000000000E+00 -0.45593999997E+02  0.45594000000E+02  0.51100000000E-03 0.  1.
         23    2    1    2    0    0  0.17763568394E-14  0.00000000000E+00  0.71054273576E-14  0.91188000000E+02  0.91188000000E+02 0.  0.
    9900012    2    3    3    0    0  0.99903025083E+01 -0.34210140537E+02  0.24768584352E+02  0.47787278456E+02  0.20000033790E+02 0.  0.
        -12    1    3    3    0    0 -0.99903025083E+01  0.34210140537E+02 -0.24768584352E+02  0.43400721544E+02  0.00000000000E+00 0.  1.
         11    1    4    4    0    0  0.22441181901E+01 -0.12590223553E+01  0.13444459694E+01  0.29032290589E+01  0.51100000000E-03 0. -1.
        -11    1    4    4    0    0  0.54749581215E+01 -0.31700147016E+02  0.25899216689E+02  0.41299442038E+02  0.51100000000E-03 0.  1.
        -12    1    4    4    0    0  0.22712261967E+01 -0.12509711658E+01 -0.24750783066E+01  0.35846073589E+01  0.00000000000E+00 0.  1.
</event>
<event>
 8    1  0.5542925E-011  0.9118800E+02  0.7816164E-02  0.1184000E+00
        -11   -1    0    0    0    0  0.00000000000E+00  0.00000000000E+00  0.45593999997E+02  0.45594000000E+02  0.51100000000E-03 0.  1.
         11   -1    0    0    0    0 -0.00000000000E+00 -0.00000000000E+00 -0.45593999997E+02  0.45594000000E+02  0.51100000000E-03 0. -1.
         23    2    1    2    0    0  0.00000000000E+00  0.00000000000E+00 -0.35527136788E-14  0.91188000000E+02  0.91188000000E+02 0.  0.
    9900012    2    3    3    0    0  0.33199859565E+02 -0.11043986360E+02  0.25679214809E+02  0.47787281307E+02  0.20000046791E+02 0.  0.
        -12    1    3    3    0    0 -0.33199859565E+02  0.11043986360E+02 -0.25679214809E+02  0.43400718693E+02  0.00000000000E+00 0.  1.
         11    1    4    4    0    0  0.20143312445E+02 -0.10452015609E+01  0.52761616192E+01  0.20849061472E+02  0.51100000000E-03 0. -1.
        -11    1    4    4    0    0  0.75423861999E+00 -0.24404759276E+00 -0.38994982842E+00  0.88345699002E+00  0.51100000000E-03 0.  1.
         12    1    4    4    0    0  0.12302308500E+02 -0.97547372061E+01  0.20793003018E+02  0.26054762845E+02  0.00000000000E+00 0. -1.
</event>
<event>
 8    1  0.5542925E-011  0.9118800E+02  0.7816164E-02  0.1184000E+00
        -11   -1    0    0    0    0  0.00000000000E+00  0.00000000000E+00  0.45593999997E+02  0.45594000000E+02  0.51100000000E-03 0. -1.
         11   -1    0    0    0    0 -0.00000000000E+00 -0.00000000000E+00 -0.45593999997E+02  0.45594000000E+02  0.51100000000E-03 0.  1.
         23    2    1    2    0    0  0.17763568394E-14  0.35527136788E-14  0.00000000000E+00  0.91188000000E+02  0.91188000000E+02 0.  0.
    9900012    2    3    3    0    0 -0.74254703552E+01 -0.30950422450E+02 -0.29505201892E+02  0.47787271913E+02  0.20000003959E+02 0.  0.
         12    1    3    3    0    0  0.74254703552E+01  0.30950422450E+02  0.29505201892E+02  0.43400728087E+02  0.00000000000E+00 0. -1.
         11    1    4    4    0    0 -0.27329000698E+01  0.15507070164E+01 -0.33163687495E+01  0.45685596183E+01  0.51100000000E-03 0.  1.
        -11    1    4    4    0    0 -0.43326325500E+01 -0.42666018285E+01 -0.56685292918E+01  0.83131113652E+01  0.51100000000E-03 0. -1.
        -12    1    4    4    0    0 -0.35993773541E+00 -0.28234527638E+02 -0.20520303850E+02  0.34905600929E+02  0.00000000000E+00 0.  1.
</event>
<event>
 8    1  0.5542925E-011  0.9118800E+02  0.7816164E-02  0.1184000E+00
        -11   -1    0    0    0    0  0.00000000000E+00  0.00000000000E+00  0.45593999997E+02  0.45594000000E+02  0.51100000000E-03 0. -1.
         11   -1    0    0    0    0 -0.00000000000E+00 -0.00000000000E+00 -0.45593999997E+02  0.45594000000E+02  0.51100000000E-03 0.  1.
         23    2    1    2    0    0 -0.71054273576E-14 -0.55511151231E-16  0.35527136788E-14  0.91188000000E+02  0.91188000000E+02 0.  0.
    9900012    2    3    3    0    0 -0.35491236111E+02  0.49145661696E+00  0.24975069234E+02  0.47787268974E+02  0.19999990560E+02 0.  0.
        -12    1    3    3    0    0  0.35491236111E+02 -0.49145661696E+00 -0.24975069234E+02  0.43400731026E+02  0.00000000000E+00 0.  1.
         11    1    4    4    0    0 -0.14796559380E+02 -0.18437887098E+01  0.95757852300E+01  0.17720987256E+02  0.51100000000E-03 0. -1.
        -11    1    4    4    0    0 -0.16078795617E+02  0.26282189716E+01  0.18381935208E+02  0.24562791896E+02  0.51100000000E-03 0.  1.
         12    1    4    4    0    0 -0.46158811148E+01 -0.29297364484E+00 -0.29826512039E+01  0.55034898225E+01  0.00000000000E+00 0. -1.
</event>
<event>
 8    1  0.5542925E-011  0.9118800E+02  0.7816164E-02  0.1184000E+00
        -11   -1    0    0    0    0  0.00000000000E+00  0.00000000000E+00  0.45593999997E+02  0.45594000000E+02  0.51100000000E-03 0. -1.
         11   -1    0    0    0    0 -0.00000000000E+00 -0.00000000000E+00 -0.45593999997E+02  0.45594000000E+02  0.51100000000E-03 0.  1.
         23    2    1    2    0    0  0.00000000000E+00  0.00000000000E+00  0.35527136788E-14  0.91188000000E+02  0.91188000000E+02 0.  0.
    9900012    2    3    3    0    0 -0.13530137030E+02 -0.32828751587E+02 -0.24956584705E+02  0.47787278129E+02  0.20000032300E+02 0.  0.
         12    1    3    3    0    0  0.13530137030E+02  0.32828751587E+02  0.24956584705E+02  0.43400721871E+02  0.00000000000E+00 0. -1.
         11    1    4    4    0    0 -0.17909024376E+01 -0.51560587402E+00 -0.25624947795E+00  0.18811818132E+01  0.51100000000E-03 0. -1.
        -11    1    4    4    0    0 -0.14234898634E+02 -0.31595369933E+02 -0.18721687904E+02  0.39387832367E+02  0.51100000000E-03 0.  1.
         12    1    4    4    0    0  0.24956640422E+01 -0.71777577979E+00 -0.59786473239E+01  0.65182639487E+01  0.00000000000E+00 0. -1.
</event>
<event>
 8    1  0.5542925E-011  0.9118800E+02  0.7816164E-02  0.1184000E+00
        -11   -1    0    0    0    0  0.00000000000E+00  0.00000000000E+00  0.45593999997E+02  0.45594000000E+02  0.51100000000E-03 0. -1.
         11   -1    0    0    0    0 -0.00000000000E+00 -0.00000000000E+00 -0.45593999997E+02  0.45594000000E+02  0.51100000000E-03 0.  1.
         23    2    1    2    0    0  0.00000000000E+00 -0.35527136788E-14  0.00000000000E+00  0.91188000000E+02  0.91188000000E+02 0.  0.
    9900012    2    3    3    0    0  0.36369849811E+02  0.21371463427E+02  0.10203819064E+02  0.47787270193E+02  0.19999996118E+02 0.  0.
        -12    1    3    3    0    0 -0.36369849811E+02 -0.21371463427E+02 -0.10203819064E+02  0.43400729807E+02  0.00000000000E+00 0.  1.
         11    1    4    4    0    0  0.24900681084E+01  0.80139532597E+01  0.25837483129E+01  0.87806401610E+01  0.51100000000E-03 0. -1.
        -11    1    4    4    0    0  0.77209444225E+00 -0.11646323964E+01  0.19698910064E+01  0.24151540913E+01  0.51100000000E-03 0.  1.
         12    1    4    4    0    0  0.33107687260E+02  0.14522142564E+02  0.56501797452E+01  0.36591475941E+02  0.00000000000E+00 0. -1.
</event>
<event>
 8    1  0.5542925E-011  0.9118800E+02  0.7816164E-02  0.1184000E+00
        -11   -1    0    0    0    0  0.00000000000E+00  0.00000000000E+00  0.45593999997E+02  0.45594000000E+02  0.51100000000E-03 0. -1.
         11   -1    0    0    0    0 -0.00000000000E+00 -0.00000000000E+00 -0.45593999997E+02  0.45594000000E+02  0.51100000000E-03 0.  1.
         23    2    1    2    0    0  0.00000000000E+00  0.71054273576E-14  0.17763568394E-14  0.91188000000E+02  0.91188000000E+02 0.  0.
    9900012    2    3    3    0    0  0.12226198513E+02 -0.40074746072E+02 -0.11320684608E+02  0.47787273015E+02  0.20000008986E+02 0.  0.
         12    1    3    3    0    0 -0.12226198513E+02  0.40074746072E+02  0.11320684608E+02  0.43400726985E+02  0.00000000000E+00 0. -1.
         11    1    4    4    0    0  0.68786377619E+00  0.10633597034E+01  0.17956740396E+01  0.21973474807E+01  0.51100000000E-03 0. -1.
        -11    1    4    4    0    0  0.33846718647E+01 -0.32593898583E+01 -0.28910222396E+01  0.55170314238E+01  0.51100000000E-03 0.  1.
        -12    1    4    4    0    0  0.81536628720E+01 -0.37878715917E+02 -0.10225336408E+02  0.40072894111E+02  0.00000000000E+00 0.  1.
</event>
<event>
 8    1  0.5542925E-011  0.9118800E+02  0.7816164E-02  0.1184000E+00
        -11   -1    0    0    0    0  0.00000000000E+00  0.00000000000E+00  0.45593999997E+02  0.45594000000E+02  0.51100000000E-03 0. -1.
         11   -1    0    0    0    0 -0.00000000000E+00 -0.00000000000E+00 -0.45593999997E+02  0.45594000000E+02  0.51100000000E-03 0.  1.
         23    2    1    2    0    0  0.00000000000E+00  0.71054273576E-14  0.71054273576E-14  0.91188000000E+02  0.91188000000E+02 0.  0.
    9900012    2    3    3    0    0 -0.81264322214E+01  0.33749694853E+02  0.26048846710E+02  0.47787271685E+02  0.20000002922E+02 0.  0.
        -12    1    3    3    0    0  0.81264322214E+01 -0.33749694853E+02 -0.26048846710E+02  0.43400728315E+02  0.00000000000E+00 0.  1.
         11    1    4    4    0    0  0.22527087998E+01  0.13002091928E+02  0.12359588600E+02  0.18080058685E+02  0.51100000000E-03 0. -1.
        -11    1    4    4    0    0 -0.10698863172E+02  0.11393175193E+02  0.12987496197E+02  0.20321052431E+02  0.51100000000E-03 0.  1.
         12    1    4    4    0    0  0.31972215095E+00  0.93544277322E+01  0.70176191269E+00  0.93861605693E+01  0.00000000000E+00 0. -1.
</event>
<event>
 8    1  0.5542925E-011  0.9118800E+02  0.7816164E-02  0.1184000E+00
        -11   -1    0    0    0    0  0.00000000000E+00  0.00000000000E+00  0.45593999997E+02  0.45594000000E+02  0.51100000000E-03 0. -1.
         11   -1    0    0    0    0 -0.00000000000E+00 -0.00000000000E+00 -0.45593999997E+02  0.45594000000E+02  0.51100000000E-03 0.  1.
         23    2    1    2    0    0  0.00000000000E+00  0.00000000000E+00 -0.35527136788E-14  0.91188000000E+02  0.91188000000E+02 0.  0.
    9900012    2    3    3    0    0  0.22456493904E+02 -0.26290494666E+02 -0.26232408631E+02  0.47787268545E+02  0.19999988606E+02 0.  0.
         12    1    3    3    0    0 -0.22456493904E+02  0.26290494666E+02  0.26232408631E+02  0.43400731455E+02  0.00000000000E+00 0. -1.
         11    1    4    4    0    0 -0.17977140872E+00 -0.69402098368E+01 -0.56345473918E+01  0.89413061077E+01  0.51100000000E-03 0. -1.
        -11    1    4    4    0    0  0.73012307933E+01 -0.40224491114E+01 -0.13801927367E+02  0.16123934608E+02  0.51100000000E-03 0.  1.
         12    1    4    4    0    0  0.15335034519E+02 -0.15327835718E+02 -0.67959338721E+01  0.22722027830E+02  0.00000000000E+00 0. -1.
</event>
<event>
 8    1  0.5542925E-011  0.9118800E+02  0.7816164E-02  0.1184000E+00
        -11   -1    0    0    0    0  0.00000000000E+00  0.00000000000E+00  0.45593999997E+02  0.45594000000E+02  0.51100000000E-03 0. -1.
         11   -1    0    0    0    0 -0.00000000000E+00 -0.00000000000E+00 -0.45593999997E+02  0.45594000000E+02  0.51100000000E-03 0.  1.
         23    2    1    2    0    0 -0.35527136788E-14  0.00000000000E+00  0.35527136788E-14  0.91188000000E+02  0.91188000000E+02 0.  0.
    9900012    2    3    3    0    0 -0.22384969302E+02  0.21829049331E+02  0.30100398246E+02  0.47787214064E+02  0.19999740200E+02 0.  0.
        -12    1    3    3    0    0  0.22384969302E+02 -0.21829049331E+02 -0.30100398246E+02  0.43400785936E+02  0.00000000000E+00 0.  1.
         11    1    4    4    0    0 -0.13213129042E+02  0.16325135352E+02  0.16858432629E+02  0.26931460679E+02  0.51100000000E-03 0. -1.
        -11    1    4    4    0    0 -0.10518485520E+02  0.74876549592E+01  0.82616648541E+01  0.15328360018E+02  0.51100000000E-03 0.  1.
        -12    1    4    4    0    0  0.13466452609E+01 -0.19837409804E+01  0.49803007629E+01  0.55273933662E+01  0.00000000000E+00 0.  1.
</event>
<event>
 8    1  0.5542925E-011  0.9118800E+02  0.7816164E-02  0.1184000E+00
        -11   -1    0    0    0    0  0.00000000000E+00  0.00000000000E+00  0.45593999997E+02  0.45594000000E+02  0.51100000000E-03 0. -1.
         11   -1    0    0    0    0 -0.00000000000E+00 -0.00000000000E+00 -0.45593999997E+02  0.45594000000E+02  0.51100000000E-03 0.  1.
         23    2    1    2    0    0 -0.71054273576E-14  0.00000000000E+00  0.88817841970E-15  0.91188000000E+02  0.91188000000E+02 0.  0.
    9900012    2    3    3    0    0 -0.41734628600E+02  0.95732315371E+01  0.70850239488E+01  0.47787267854E+02  0.19999985454E+02 0.  0.
        -12    1    3    3    0    0  0.41734628600E+02 -0.95732315371E+01 -0.70850239488E+01  0.43400732146E+02  0.00000000000E+00 0.  1.
         11    1    4    4    0    0 -0.27571197593E+02  0.13586129735E+01  0.62078710868E+01  0.28294070573E+02  0.51100000000E-03 0.  1.
        -11    1    4    4    0    0 -0.10224100649E+02  0.15838289391E+01  0.41071542132E+01  0.11131462805E+02  0.51100000000E-03 0. -1.
        -12    1    4    4    0    0 -0.39393303582E+01  0.66307896245E+01 -0.32300013512E+01  0.83617344758E+01  0.00000000000E+00 0.  1.
</event>
<event>
 8    1  0.5542925E-011  0.9118800E+02  0.7816164E-02  0.1184000E+00
        -11   -1    0    0    0    0  0.00000000000E+00  0.00000000000E+00  0.45593999997E+02  0.45594000000E+02  0.51100000000E-03 0.  1.
         11   -1    0    0    0    0 -0.00000000000E+00 -0.00000000000E+00 -0.45593999997E+02  0.45594000000E+02  0.51100000000E-03 0. -1.
         23    2    1    2    0    0  0.00000000000E+00  0.00000000000E+00 -0.22204460493E-15  0.91188000000E+02  0.91188000000E+02 0.  0.
    9900012    2    3    3    0    0 -0.10311524611E+02  0.42143173882E+02  0.11170759906E+01  0.47787279920E+02  0.20000040468E+02 0.  0.
         12    1    3    3    0    0  0.10311524611E+02 -0.42143173882E+02 -0.11170759906E+01  0.43400720080E+02  0.00000000000E+00 0. -1.
         11    1    4    4    0    0 -0.88918252401E+01  0.18808155594E+02  0.84338731752E+01  0.22448641160E+02  0.51100000000E-03 0.  1.
        -11    1    4    4    0    0 -0.28734070939E+01  0.95464908267E+01 -0.54110176066E+01  0.11343326991E+02  0.51100000000E-03 0. -1.
        -12    1    4    4    0    0  0.14537077229E+01  0.13788527462E+02 -0.19057795780E+01  0.13995311769E+02  0.00000000000E+00 0.  1.
</event>
<event>
 8    1  0.5542925E-011  0.9118800E+02  0.7816164E-02  0.1184000E+00
        -11   -1    0    0    0    0  0.00000000000E+00  0.00000000000E+00  0.45593999997E+02  0.45594000000E+02  0.51100000000E-03 0. -1.
         11   -1    0    0    0    0 -0.00000000000E+00 -0.00000000000E+00 -0.45593999997E+02  0.45594000000E+02  0.51100000000E-03 0.  1.
         23    2    1    2    0    0  0.00000000000E+00  0.00000000000E+00  0.35527136788E-14  0.91188000000E+02  0.91188000000E+02 0.  0.
    9900012    2    3    3    0    0  0.19685289892E+02 -0.26383706730E+02 -0.28284449808E+02  0.47787300467E+02  0.20000134150E+02 0.  0.
         12    1    3    3    0    0 -0.19685289892E+02  0.26383706730E+02  0.28284449808E+02  0.43400699533E+02  0.00000000000E+00 0. -1.
         11    1    4    4    0    0  0.67780075036E+01  0.18673675868E+00 -0.39789780282E+01  0.78618396540E+01  0.51100000000E-03 0. -1.
        -11    1    4    4    0    0  0.13178640209E+02 -0.14482254421E+02 -0.14780091385E+02  0.24532903467E+02  0.51100000000E-03 0.  1.
         12    1    4    4    0    0 -0.27135782051E+00 -0.12088189068E+02 -0.95253803948E+01  0.15392557347E+02  0.00000000000E+00 0. -1.
</event>
<event>
 8    1  0.5542925E-011  0.9118800E+02  0.7816164E-02  0.1184000E+00
        -11   -1    0    0    0    0  0.00000000000E+00  0.00000000000E+00  0.45593999997E+02  0.45594000000E+02  0.51100000000E-03 0. -1.
         11   -1    0    0    0    0 -0.00000000000E+00 -0.00000000000E+00 -0.45593999997E+02  0.45594000000E+02  0.51100000000E-03 0.  1.
         23    2    1    2    0    0  0.00000000000E+00 -0.17763568394E-14  0.00000000000E+00  0.91188000000E+02  0.91188000000E+02 0.  0.
    9900012    2    3    3    0    0  0.30375057570E+02  0.15211031042E+02  0.27011188468E+02  0.47787263944E+02  0.19999967628E+02 0.  0.
        -12    1    3    3    0    0 -0.30375057570E+02 -0.15211031042E+02 -0.27011188468E+02  0.43400736056E+02  0.00000000000E+00 0.  1.
         11    1    4    4    0    0  0.21382280360E+02  0.56719148452E+01  0.16811709091E+02  0.27784997647E+02  0.51100000000E-03 0. -1.
        -11    1    4    4    0    0  0.11458651701E+02  0.74638724517E+01  0.96393909719E+01  0.16731047468E+02  0.51100000000E-03 0.  1.
        -12    1    4    4    0    0 -0.24658744918E+01  0.20752437453E+01  0.56008840450E+00  0.32712188298E+01  0.00000000000E+00 0.  1.
</event>
<event>
 8    1  0.7584671E-011  0.9118800E+02  0.7816164E-02  0.1184000E+00
        -11   -1    0    0    0    0  0.00000000000E+00  0.00000000000E+00  0.45593999997E+02  0.45594000000E+02  0.51100000000E-03 0. -1.
         11   -1    0    0    0    0 -0.00000000000E+00 -0.00000000000E+00 -0.45593999997E+02  0.45594000000E+02  0.51100000000E-03 0.  1.
         23    2    1    2    0    0  0.00000000000E+00  0.00000000000E+00  0.00000000000E+00  0.91188000000E+02  0.91188000000E+02 0.  0.
    9900012    2    3    3    0    0  0.55781836944E+01  0.15689485236E+02  0.40079208172E+02  0.47787320190E+02  0.20000224071E+02 0.  0.
        -12    1    3    3    0    0 -0.55781836944E+01 -0.15689485236E+02 -0.40079208172E+02  0.43400679810E+02  0.00000000000E+00 0.  1.
         11    1    4    4    0    0  0.39459874379E+01  0.11453627017E+02  0.14495505215E+02  0.18891163554E+02  0.51100000000E-03 0. -1.
        -11    1    4    4    0    0  0.66453644051E+01  0.30817822855E+01  0.94159890184E+01  0.11929756896E+02  0.51100000000E-03 0.  1.
         12    1    4    4    0    0 -0.50131681487E+01  0.11540759333E+01  0.16167713939E+02  0.16966399740E+02  0.00000000000E+00 0. -1.
</event>
<event>
 8    1  0.5542925E-011  0.9118800E+02  0.7816164E-02  0.1184000E+00
        -11   -1    0    0    0    0  0.00000000000E+00  0.00000000000E+00  0.45593999997E+02  0.45594000000E+02  0.51100000000E-03 0. -1.
         11   -1    0    0    0    0 -0.00000000000E+00 -0.00000000000E+00 -0.45593999997E+02  0.45594000000E+02  0.51100000000E-03 0.  1.
         23    2    1    2    0    0  0.00000000000E+00  0.88817841970E-15  0.00000000000E+00  0.91188000000E+02  0.91188000000E+02 0.  0.
    9900012    2    3    3    0    0  0.32304070431E+02  0.56936070502E+01  0.28419249592E+02  0.47787264119E+02  0.19999968423E+02 0.  0.
        -12    1    3    3    0    0 -0.32304070431E+02 -0.56936070502E+01 -0.28419249592E+02  0.43400735881E+02  0.00000000000E+00 0.  1.
         11    1    4    4    0    0  0.21535885095E+02  0.91021305271E+01  0.18788229738E+02  0.29994011134E+02  0.51100000000E-03 0. -1.
        -11    1    4    4    0    0  0.51133919255E+01  0.31404493202E+01  0.57474307395E+01  0.83091611660E+01  0.51100000000E-03 0.  1.
        -12    1    4    4    0    0  0.56547934102E+01 -0.65489727971E+01  0.38835891150E+01  0.94840918186E+01  0.00000000000E+00 0.  1.
</event>
<event>
 8    1  0.5542925E-011  0.9118800E+02  0.7816164E-02  0.1184000E+00
        -11   -1    0    0    0    0  0.00000000000E+00  0.00000000000E+00  0.45593999997E+02  0.45594000000E+02  0.51100000000E-03 0. -1.
         11   -1    0    0    0    0 -0.00000000000E+00 -0.00000000000E+00 -0.45593999997E+02  0.45594000000E+02  0.51100000000E-03 0.  1.
         23    2    1    2    0    0  0.00000000000E+00  0.00000000000E+00  0.17763568394E-14  0.91188000000E+02  0.91188000000E+02 0.  0.
    9900012    2    3    3    0    0  0.42491828694E+02 -0.40530729509E+01 -0.78511503259E+01  0.47787268813E+02  0.19999989825E+02 0.  0.
         12    1    3    3    0    0 -0.42491828694E+02  0.40530729509E+01  0.78511503259E+01  0.43400731187E+02  0.00000000000E+00 0. -1.
         11    1    4    4    0    0  0.45089803985E+01 -0.54866870270E-01 -0.56796314297E+01  0.72520430257E+01  0.51100000000E-03 0. -1.
        -11    1    4    4    0    0  0.36777495963E+02 -0.60060284277E+00 -0.27455844902E+01  0.36884728107E+02  0.51100000000E-03 0.  1.
         12    1    4    4    0    0  0.12053523333E+01 -0.33976032378E+01  0.57406559398E+00  0.36504976805E+01  0.00000000000E+00 0. -1.
</event>
<event>
 8    1  0.5542925E-011  0.9118800E+02  0.7816164E-02  0.1184000E+00
        -11   -1    0    0    0    0  0.00000000000E+00  0.00000000000E+00  0.45593999997E+02  0.45594000000E+02  0.51100000000E-03 0. -1.
         11   -1    0    0    0    0 -0.00000000000E+00 -0.00000000000E+00 -0.45593999997E+02  0.45594000000E+02  0.51100000000E-03 0.  1.
         23    2    1    2    0    0  0.00000000000E+00  0.00000000000E+00  0.00000000000E+00  0.91188000000E+02  0.91188000000E+02 0.  0.
    9900012    2    3    3    0    0  0.28375807990E+02 -0.28593838421E+02  0.16150193671E+02  0.47787276154E+02  0.20000023297E+02 0.  0.
        -12    1    3    3    0    0 -0.28375807990E+02  0.28593838421E+02 -0.16150193671E+02  0.43400723846E+02  0.00000000000E+00 0.  1.
         11    1    4    4    0    0  0.28203583534E+02 -0.21781600428E+02  0.16096309716E+02  0.39102064243E+02  0.51100000000E-03 0. -1.
        -11    1    4    4    0    0  0.13450170118E+00 -0.30577238632E+01  0.27083751657E+01  0.40869380018E+01  0.51100000000E-03 0.  1.
         12    1    4    4    0    0  0.37722755195E-01 -0.37545141302E+01 -0.26544912105E+01  0.45982739095E+01  0.00000000000E+00 0. -1.
</event>
<event>
 8    1  0.5542925E-011  0.9118800E+02  0.7816164E-02  0.1184000E+00
        -11   -1    0    0    0    0  0.00000000000E+00  0.00000000000E+00  0.45593999997E+02  0.45594000000E+02  0.51100000000E-03 0. -1.
         11   -1    0    0    0    0 -0.00000000000E+00 -0.00000000000E+00 -0.45593999997E+02  0.45594000000E+02  0.51100000000E-03 0.  1.
         23    2    1    2    0    0  0.17763568394E-14  0.71054273576E-14 -0.35527136788E-14  0.91188000000E+02  0.91188000000E+02 0.  0.
    9900012    2    3    3    0    0  0.11389239190E+02  0.35610973072E+02 -0.22040129024E+02  0.47787268902E+02  0.19999990230E+02 0.  0.
         12    1    3    3    0    0 -0.11389239190E+02 -0.35610973072E+02  0.22040129024E+02  0.43400731098E+02  0.00000000000E+00 0. -1.
         11    1    4    4    0    0  0.22239464717E+01  0.16998552897E+01 -0.72276494603E+00  0.28909921037E+01  0.51100000000E-03 0. -1.
        -11    1    4    4    0    0  0.14347760798E+02  0.19589519601E+02 -0.13010854451E+02  0.27547955494E+02  0.51100000000E-03 0.  1.
         12    1    4    4    0    0 -0.51824680797E+01  0.14321598181E+02 -0.83065096277E+01  0.17348321304E+02  0.00000000000E+00 0. -1.
</event>
<event>
 8    1  0.5542925E-011  0.9118800E+02  0.7816164E-02  0.1184000E+00
        -11   -1    0    0    0    0  0.00000000000E+00  0.00000000000E+00  0.45593999997E+02  0.45594000000E+02  0.51100000000E-03 0. -1.
         11   -1    0    0    0    0 -0.00000000000E+00 -0.00000000000E+00 -0.45593999997E+02  0.45594000000E+02  0.51100000000E-03 0.  1.
         23    2    1    2    0    0 -0.17763568394E-14  0.00000000000E+00  0.00000000000E+00  0.91188000000E+02  0.91188000000E+02 0.  0.
    9900012    2    3    3    0    0  0.15034758610E+02 -0.39571033392E+02  0.95766692737E+01  0.47787271383E+02  0.20000001542E+02 0.  0.
        -12    1    3    3    0    0 -0.15034758610E+02  0.39571033392E+02 -0.95766692737E+01  0.43400728617E+02  0.00000000000E+00 0.  1.
         11    1    4    4    0    0  0.53129025635E+00 -0.19813933647E+02  0.46430876572E+01  0.20357615262E+02  0.51100000000E-03 0. -1.
        -11    1    4    4    0    0  0.16449630977E+01 -0.62905868862E+01 -0.30362737623E+01  0.71760954276E+01  0.51100000000E-03 0.  1.
        -12    1    4    4    0    0  0.12858505256E+02 -0.13466512858E+02  0.79698553789E+01  0.20253560693E+02  0.00000000000E+00 0.  1.
</event>
<event>
 8    1  0.5542925E-011  0.9118800E+02  0.7816164E-02  0.1184000E+00
        -11   -1    0    0    0    0  0.00000000000E+00  0.00000000000E+00  0.45593999997E+02  0.45594000000E+02  0.51100000000E-03 0. -1.
         11   -1    0    0    0    0 -0.00000000000E+00 -0.00000000000E+00 -0.45593999997E+02  0.45594000000E+02  0.51100000000E-03 0.  1.
         23    2    1    2    0    0 -0.71054273576E-14 -0.35527136788E-14  0.52735593670E-15  0.91188000000E+02  0.91188000000E+02 0.  0.
    9900012    2    3    3    0    0  0.36303876946E+02  0.23783088078E+02  0.13102294643E+00  0.47787263522E+02  0.19999965702E+02 0.  0.
         12    1    3    3    0    0 -0.36303876946E+02 -0.23783088078E+02 -0.13102294643E+00  0.43400736478E+02  0.00000000000E+00 0. -1.
         11    1    4    4    0    0  0.10637447385E+02  0.79698921047E+01 -0.42140362361E+01  0.13943907942E+02  0.51100000000E-03 0.  1.
        -11    1    4    4    0    0  0.14736112101E+02  0.99712226867E+01  0.97880351854E+01  0.20307237990E+02  0.51100000000E-03 0. -1.
         12    1    4    4    0    0  0.10930317460E+02  0.58419732870E+01 -0.54429760028E+01  0.13536117590E+02  0.00000000000E+00 0. -1.
</event>
<event>
 8    1  0.5542925E-011  0.9118800E+02  0.7816164E-02  0.1184000E+00
        -11   -1    0    0    0    0  0.00000000000E+00  0.00000000000E+00  0.45593999997E+02  0.45594000000E+02  0.51100000000E-03 0. -1.
         11   -1    0    0    0    0 -0.00000000000E+00 -0.00000000000E+00 -0.45593999997E+02  0.45594000000E+02  0.51100000000E-03 0.  1.
         23    2    1    2    0    0  0.00000000000E+00 -0.44408920985E-15  0.00000000000E+00  0.91188000000E+02  0.91188000000E+02 0.  0.
    9900012    2    3    3    0    0 -0.10670708468E+02 -0.74579147195E+00 -0.42061895829E+02  0.47787270687E+02  0.19999998372E+02 0.  0.
         12    1    3    3    0    0  0.10670708468E+02  0.74579147195E+00  0.42061895829E+02  0.43400729313E+02  0.00000000000E+00 0. -1.
         11    1    4    4    0    0 -0.76184094453E+01 -0.17077461634E+01 -0.12879356992E+02  0.15061022416E+02  0.51100000000E-03 0. -1.
        -11    1    4    4    0    0 -0.32362028415E+01 -0.60991855870E+01 -0.90004440307E+01  0.11343767746E+02  0.51100000000E-03 0.  1.
         12    1    4    4    0    0  0.18390381837E+00  0.70611402784E+01 -0.20182094806E+02  0.21382480525E+02  0.00000000000E+00 0. -1.
</event>
<event>
 8    1  0.5542925E-011  0.9118800E+02  0.7816164E-02  0.1184000E+00
        -11   -1    0    0    0    0  0.00000000000E+00  0.00000000000E+00  0.45593999997E+02  0.45594000000E+02  0.51100000000E-03 0. -1.
         11   -1    0    0    0    0 -0.00000000000E+00 -0.00000000000E+00 -0.45593999997E+02  0.45594000000E+02  0.51100000000E-03 0.  1.
         23    2    1    2    0    0  0.00000000000E+00 -0.53290705182E-14  0.00000000000E+00  0.91188000000E+02  0.91188000000E+02 0.  0.
    9900012    2    3    3    0    0 -0.10253820466E+02 -0.13371401135E+02 -0.39996102044E+02  0.47787269808E+02  0.19999994365E+02 0.  0.
         12    1    3    3    0    0  0.10253820466E+02  0.13371401135E+02  0.39996102044E+02  0.43400730192E+02  0.00000000000E+00 0. -1.
         11    1    4    4    0    0 -0.19862598904E+00 -0.12050262251E+02 -0.23459966445E+02  0.26374576745E+02  0.51100000000E-03 0. -1.
        -11    1    4    4    0    0 -0.12575974910E+01 -0.40893383335E+01 -0.40635344385E+01  0.59005552154E+01  0.51100000000E-03 0.  1.
        -12    1    4    4    0    0 -0.87975969858E+01  0.27681994498E+01 -0.12472601160E+02  0.15512137848E+02  0.00000000000E+00 0.  1.
</event>
<event>
 8    1  0.5542925E-011  0.9118800E+02  0.7816164E-02  0.1184000E+00
        -11   -1    0    0    0    0  0.00000000000E+00  0.00000000000E+00  0.45593999997E+02  0.45594000000E+02  0.51100000000E-03 0.  1.
         11   -1    0    0    0    0 -0.00000000000E+00 -0.00000000000E+00 -0.45593999997E+02  0.45594000000E+02  0.51100000000E-03 0. -1.
         23    2    1    2    0    0  0.71054273576E-14  0.88817841970E-15  0.00000000000E+00  0.91188000000E+02  0.91188000000E+02 0.  0.
    9900012    2    3    3    0    0  0.41981958836E+02 -0.42158933486E+01 -0.10166757461E+02  0.47787290539E+02  0.20000088884E+02 0.  0.
         12    1    3    3    0    0 -0.41981958836E+02  0.42158933486E+01  0.10166757461E+02  0.43400709461E+02  0.00000000000E+00 0. -1.
         11    1    4    4    0    0  0.18287918565E+02  0.24569472986E+01 -0.64800440531E+01  0.19556981533E+02  0.51100000000E-03 0. -1.
        -11    1    4    4    0    0  0.31422300384E+01  0.32219390754E+01 -0.30028692661E+01  0.54103350275E+01  0.51100000000E-03 0.  1.
        -12    1    4    4    0    0  0.20551810232E+02 -0.98947797226E+01 -0.68384414141E+00  0.22819973979E+02  0.00000000000E+00 0.  1.
</event>
<event>
 8    1  0.5542925E-011  0.9118800E+02  0.7816164E-02  0.1184000E+00
        -11   -1    0    0    0    0  0.00000000000E+00  0.00000000000E+00  0.45593999997E+02  0.45594000000E+02  0.51100000000E-03 0. -1.
         11   -1    0    0    0    0 -0.00000000000E+00 -0.00000000000E+00 -0.45593999997E+02  0.45594000000E+02  0.51100000000E-03 0.  1.
         23    2    1    2    0    0  0.00000000000E+00  0.00000000000E+00  0.00000000000E+00  0.91188000000E+02  0.91188000000E+02 0.  0.
    9900012    2    3    3    0    0 -0.63260930534E+01  0.15677605423E+02 -0.39972696001E+02  0.47787272002E+02  0.20000004366E+02 0.  0.
         12    1    3    3    0    0  0.63260930534E+01 -0.15677605423E+02  0.39972696001E+02  0.43400727998E+02  0.00000000000E+00 0. -1.
         11    1    4    4    0    0 -0.47836546060E+01  0.76303373077E+01 -0.37910089544E+01  0.97712408615E+01  0.51100000000E-03 0.  1.
        -11    1    4    4    0    0  0.64520303382E+00 -0.10598122150E+01 -0.95576225327E+00  0.15661962303E+01  0.51100000000E-03 0. -1.
        -12    1    4    4    0    0 -0.21876414812E+01  0.91070803307E+01 -0.35225924794E+02  0.36449834910E+02  0.00000000000E+00 0.  1.
</event>
<event>
 8    1  0.5542925E-011  0.9118800E+02  0.7816164E-02  0.1184000E+00
        -11   -1    0    0    0    0  0.00000000000E+00  0.00000000000E+00  0.45593999997E+02  0.45594000000E+02  0.51100000000E-03 0.  1.
         11   -1    0    0    0    0 -0.00000000000E+00 -0.00000000000E+00 -0.45593999997E+02  0.45594000000E+02  0.51100000000E-03 0. -1.
         23    2    1    2    0    0  0.00000000000E+00  0.00000000000E+00  0.00000000000E+00  0.91188000000E+02  0.91188000000E+02 0.  0.
    9900012    2    3    3    0    0  0.27018014107E+02 -0.27183325062E+02  0.20364607655E+02  0.47787268524E+02  0.19999988509E+02 0.  0.
        -12    1    3    3    0    0 -0.27018014107E+02  0.27183325062E+02 -0.20364607655E+02  0.43400731476E+02  0.00000000000E+00 0.  1.
         11    1    4    4    0    0  0.10857766930E+02 -0.88133240186E+01  0.10719035399E+02  0.17619974549E+02  0.51100000000E-03 0. -1.
        -11    1    4    4    0    0  0.24841336403E+01 -0.15650062432E+01  0.79029136370E+01  0.84306707146E+01  0.51100000000E-03 0.  1.
        -12    1    4    4    0    0  0.13676113536E+02 -0.16804994800E+02  0.17426586189E+01  0.21736623260E+02  0.00000000000E+00 0.  1.
</event>
<event>
 8    1  0.5542925E-011  0.9118800E+02  0.7816164E-02  0.1184000E+00
        -11   -1    0    0    0    0  0.00000000000E+00  0.00000000000E+00  0.45593999997E+02  0.45594000000E+02  0.51100000000E-03 0. -1.
         11   -1    0    0    0    0 -0.00000000000E+00 -0.00000000000E+00 -0.45593999997E+02  0.45594000000E+02  0.51100000000E-03 0.  1.
         23    2    1    2    0    0  0.17763568394E-14  0.00000000000E+00  0.00000000000E+00  0.91188000000E+02  0.91188000000E+02 0.  0.
    9900012    2    3    3    0    0 -0.14203610930E+02  0.36719354100E+02 -0.18263891688E+02  0.47787271105E+02  0.20000000278E+02 0.  0.
         12    1    3    3    0    0  0.14203610930E+02 -0.36719354100E+02  0.18263891688E+02  0.43400728895E+02  0.00000000000E+00 0. -1.
         11    1    4    4    0    0 -0.28275774532E+01  0.69341585055E+01 -0.26251265500E+01  0.79353032770E+01  0.51100000000E-03 0. -1.
        -11    1    4    4    0    0  0.12518719366E+01  0.52466461446E+01 -0.10465987393E+02  0.11774182413E+02  0.51100000000E-03 0.  1.
        -12    1    4    4    0    0 -0.12627905413E+02  0.24538549450E+02 -0.51727777450E+01  0.28077785416E+02  0.00000000000E+00 0.  1.
</event>
<event>
 8    1  0.5542925E-011  0.9118800E+02  0.7816164E-02  0.1184000E+00
        -11   -1    0    0    0    0  0.00000000000E+00  0.00000000000E+00  0.45593999997E+02  0.45594000000E+02  0.51100000000E-03 0. -1.
         11   -1    0    0    0    0 -0.00000000000E+00 -0.00000000000E+00 -0.45593999997E+02  0.45594000000E+02  0.51100000000E-03 0.  1.
         23    2    1    2    0    0  0.00000000000E+00  0.00000000000E+00  0.71054273576E-14  0.91188000000E+02  0.91188000000E+02 0.  0.
    9900012    2    3    3    0    0  0.16571446401E+02  0.64591285078E+01  0.39589012140E+02  0.47787273519E+02  0.20000011281E+02 0.  0.
        -12    1    3    3    0    0 -0.16571446401E+02 -0.64591285078E+01 -0.39589012140E+02  0.43400726481E+02  0.00000000000E+00 0.  1.
         11    1    4    4    0    0  0.52338235303E+01  0.52995026122E+00  0.69824539869E+01  0.87423349265E+01  0.51100000000E-03 0. -1.
        -11    1    4    4    0    0 -0.27874165892E+01 -0.26891911005E+01  0.12044440177E+02  0.12651876519E+02  0.51100000000E-03 0.  1.
         12    1    4    4    0    0  0.14125039460E+02  0.86183693470E+01  0.20562117976E+02  0.26393062073E+02  0.00000000000E+00 0. -1.
</event>
<event>
 8    1  0.5542925E-011  0.9118800E+02  0.7816164E-02  0.1184000E+00
        -11   -1    0    0    0    0  0.00000000000E+00  0.00000000000E+00  0.45593999997E+02  0.45594000000E+02  0.51100000000E-03 0. -1.
         11   -1    0    0    0    0 -0.00000000000E+00 -0.00000000000E+00 -0.45593999997E+02  0.45594000000E+02  0.51100000000E-03 0.  1.
         23    2    1    2    0    0  0.00000000000E+00  0.77715611724E-15  0.00000000000E+00  0.91188000000E+02  0.91188000000E+02 0.  0.
    9900012    2    3    3    0    0  0.16588226211E+02 -0.57907578580E+00  0.40101347027E+02  0.47787278682E+02  0.20000034822E+02 0.  0.
        -12    1    3    3    0    0 -0.16588226211E+02  0.57907578580E+00 -0.40101347027E+02  0.43400721318E+02  0.00000000000E+00 0.  1.
         11    1    4    4    0    0  0.98336525362E+01 -0.42182182266E+01  0.21453140120E+02  0.23973554356E+02  0.51100000000E-03 0. -1.
        -11    1    4    4    0    0  0.58304603860E+01 -0.32392597766E+01  0.13861992735E+02  0.15383169864E+02  0.51100000000E-03 0.  1.
        -12    1    4    4    0    0  0.92411328844E+00  0.68784022174E+01  0.47862141714E+01  0.84305544616E+01  0.00000000000E+00 0.  1.
</event>
<event>
 8    1  0.5542925E-011  0.9118800E+02  0.7816164E-02  0.1184000E+00
        -11   -1    0    0    0    0  0.00000000000E+00  0.00000000000E+00  0.45593999997E+02  0.45594000000E+02  0.51100000000E-03 0. -1.
         11   -1    0    0    0    0 -0.00000000000E+00 -0.00000000000E+00 -0.45593999997E+02  0.45594000000E+02  0.51100000000E-03 0.  1.
         23    2    1    2    0    0  0.00000000000E+00  0.00000000000E+00  0.00000000000E+00  0.91188000000E+02  0.91188000000E+02 0.  0.
    9900012    2    3    3    0    0 -0.83576261796E+01 -0.26024235597E+02 -0.33712198786E+02  0.47787273039E+02  0.20000009093E+02 0.  0.
         12    1    3    3    0    0  0.83576261796E+01  0.26024235597E+02  0.33712198786E+02  0.43400726961E+02  0.00000000000E+00 0. -1.
         11    1    4    4    0    0 -0.32416931996E+01 -0.16949551892E+01  0.75674446555E+00  0.37355200897E+01  0.51100000000E-03 0. -1.
        -11    1    4    4    0    0 -0.11755832812E+00 -0.83405919157E+01 -0.39318359620E+01  0.92216391036E+01  0.51100000000E-03 0.  1.
        -12    1    4    4    0    0 -0.49983746519E+01 -0.15988688492E+02 -0.30537107289E+02  0.34830113845E+02  0.00000000000E+00 0.  1.
</event>
<event>
 8    1  0.5542925E-011  0.9118800E+02  0.7816164E-02  0.1184000E+00
        -11   -1    0    0    0    0  0.00000000000E+00  0.00000000000E+00  0.45593999997E+02  0.45594000000E+02  0.51100000000E-03 0. -1.
         11   -1    0    0    0    0 -0.00000000000E+00 -0.00000000000E+00 -0.45593999997E+02  0.45594000000E+02  0.51100000000E-03 0.  1.
         23    2    1    2    0    0 -0.17763568394E-14  0.00000000000E+00  0.00000000000E+00  0.91188000000E+02  0.91188000000E+02 0.  0.
    9900012    2    3    3    0    0  0.13531516792E+02 -0.19465429349E+02 -0.36354076601E+02  0.47787265307E+02  0.19999973840E+02 0.  0.
         12    1    3    3    0    0 -0.13531516792E+02  0.19465429349E+02  0.36354076601E+02  0.43400734693E+02  0.00000000000E+00 0. -1.
         11    1    4    4    0    0  0.35705700236E+01 -0.67624143846E+01 -0.11597683767E+02  0.13891921668E+02  0.51100000000E-03 0. -1.
        -11    1    4    4    0    0  0.10623913584E+02 -0.42862074536E+00 -0.13861710786E+02  0.17469925064E+02  0.51100000000E-03 0.  1.
         12    1    4    4    0    0 -0.66296681504E+00 -0.12274394219E+02 -0.10894682048E+02  0.16425418575E+02  0.00000000000E+00 0. -1.
</event>
<event>
 8    1  0.5542925E-011  0.9118800E+02  0.7816164E-02  0.1184000E+00
        -11   -1    0    0    0    0  0.00000000000E+00  0.00000000000E+00  0.45593999997E+02  0.45594000000E+02  0.51100000000E-03 0. -1.
         11   -1    0    0    0    0 -0.00000000000E+00 -0.00000000000E+00 -0.45593999997E+02  0.45594000000E+02  0.51100000000E-03 0.  1.
         23    2    1    2    0    0  0.35527136788E-14  0.00000000000E+00  0.00000000000E+00  0.91188000000E+02  0.91188000000E+02 0.  0.
    9900012    2    3    3    0    0 -0.21711849809E+02 -0.24325480029E+02 -0.28644196029E+02  0.47787269972E+02  0.19999995112E+02 0.  0.
         12    1    3    3    0    0  0.21711849809E+02  0.24325480029E+02  0.28644196029E+02  0.43400730028E+02  0.00000000000E+00 0. -1.
         11    1    4    4    0    0 -0.40412266546E-01  0.69291933392E+00 -0.45169078268E+01  0.45699263595E+01  0.51100000000E-03 0. -1.
        -11    1    4    4    0    0 -0.12101098286E+02 -0.41716484120E+01 -0.69913213696E+01  0.14584848472E+02  0.51100000000E-03 0.  1.
        -12    1    4    4    0    0 -0.95703392567E+01 -0.20846750951E+02 -0.17135966832E+02  0.28632495141E+02  0.00000000000E+00 0.  1.
</event>
<event>
 8    1  0.5542925E-011  0.9118800E+02  0.7816164E-02  0.1184000E+00
        -11   -1    0    0    0    0  0.00000000000E+00  0.00000000000E+00  0.45593999997E+02  0.45594000000E+02  0.51100000000E-03 0. -1.
         11   -1    0    0    0    0 -0.00000000000E+00 -0.00000000000E+00 -0.45593999997E+02  0.45594000000E+02  0.51100000000E-03 0.  1.
         23    2    1    2    0    0  0.00000000000E+00  0.00000000000E+00  0.00000000000E+00  0.91188000000E+02  0.91188000000E+02 0.  0.
    9900012    2    3    3    0    0 -0.10018010668E+02 -0.17665528005E+02 -0.38356119533E+02  0.47787270478E+02  0.19999997417E+02 0.  0.
         12    1    3    3    0    0  0.10018010668E+02  0.17665528005E+02  0.38356119533E+02  0.43400729522E+02  0.00000000000E+00 0. -1.
         11    1    4    4    0    0 -0.22582227081E+01 -0.11338698106E+02 -0.15675516090E+02  0.19477870764E+02  0.51100000000E-03 0. -1.
        -11    1    4    4    0    0  0.36418233002E+01 -0.24569874953E+01 -0.94441628707E+01  0.10415943409E+02  0.51100000000E-03 0.  1.
         12    1    4    4    0    0 -0.11401611260E+02 -0.38698424040E+01 -0.13236440572E+02  0.17893456306E+02  0.00000000000E+00 0. -1.
</event>
<event>
 8    1  0.5542925E-011  0.9118800E+02  0.7816164E-02  0.1184000E+00
        -11   -1    0    0    0    0  0.00000000000E+00  0.00000000000E+00  0.45593999997E+02  0.45594000000E+02  0.51100000000E-03 0.  1.
         11   -1    0    0    0    0 -0.00000000000E+00 -0.00000000000E+00 -0.45593999997E+02  0.45594000000E+02  0.51100000000E-03 0. -1.
         23    2    1    2    0    0  0.00000000000E+00 -0.44408920985E-15  0.00000000000E+00  0.91188000000E+02  0.91188000000E+02 0.  0.
    9900012    2    3    3    0    0  0.42866828917E+02  0.32214814491E+01 -0.59733340745E+01  0.47787266319E+02  0.19999978455E+02 0.  0.
         12    1    3    3    0    0 -0.42866828917E+02 -0.32214814491E+01  0.59733340745E+01  0.43400733681E+02  0.00000000000E+00 0. -1.
         11    1    4    4    0    0  0.11884343179E+02  0.45362842582E+01 -0.98497487516E+00  0.12758748506E+02  0.51100000000E-03 0. -1.
        -11    1    4    4    0    0  0.25803351581E+02 -0.22143617980E+00  0.24264998796E+01  0.25918138219E+02  0.51100000000E-03 0.  1.
         12    1    4    4    0    0  0.51791341567E+01 -0.10933666293E+01 -0.74148590790E+01  0.91103795947E+01  0.00000000000E+00 0. -1.
</event>
<event>
 8    1  0.5542925E-011  0.9118800E+02  0.7816164E-02  0.1184000E+00
        -11   -1    0    0    0    0  0.00000000000E+00  0.00000000000E+00  0.45593999997E+02  0.45594000000E+02  0.51100000000E-03 0.  1.
         11   -1    0    0    0    0 -0.00000000000E+00 -0.00000000000E+00 -0.45593999997E+02  0.45594000000E+02  0.51100000000E-03 0. -1.
         23    2    1    2    0    0 -0.71054273576E-14 -0.35527136788E-14  0.44408920985E-15  0.91188000000E+02  0.91188000000E+02 0.  0.
    9900012    2    3    3    0    0 -0.39657681174E+02  0.17225501591E+02 -0.37647017485E+01  0.47787279263E+02  0.20000037474E+02 0.  0.
         12    1    3    3    0    0  0.39657681174E+02 -0.17225501591E+02  0.37647017485E+01  0.43400720737E+02  0.00000000000E+00 0. -1.
         11    1    4    4    0    0 -0.23301147542E+02  0.72606943339E+01  0.21240634534E+01  0.24498424537E+02  0.51100000000E-03 0. -1.
        -11    1    4    4    0    0 -0.10817744102E+02  0.11230824669E+02 -0.72342453650E+00  0.15610200304E+02  0.51100000000E-03 0.  1.
         12    1    4    4    0    0 -0.55387895298E+01 -0.12660174118E+01 -0.51653406654E+01  0.76786544220E+01  0.00000000000E+00 0. -1.
</event>
<event>
 8    1  0.5542925E-011  0.9118800E+02  0.7816164E-02  0.1184000E+00
        -11   -1    0    0    0    0  0.00000000000E+00  0.00000000000E+00  0.45593999997E+02  0.45594000000E+02  0.51100000000E-03 0. -1.
         11   -1    0    0    0    0 -0.00000000000E+00 -0.00000000000E+00 -0.45593999997E+02  0.45594000000E+02  0.51100000000E-03 0.  1.
         23    2    1    2    0    0  0.00000000000E+00 -0.71054273576E-14  0.00000000000E+00  0.91188000000E+02  0.91188000000E+02 0.  0.
    9900012    2    3    3    0    0  0.21273757427E+02 -0.33891838007E+02 -0.16804586987E+02  0.47787267490E+02  0.19999983795E+02 0.  0.
         12    1    3    3    0    0 -0.21273757427E+02  0.33891838007E+02  0.16804586987E+02  0.43400732510E+02  0.00000000000E+00 0. -1.
         11    1    4    4    0    0  0.10181712091E+02 -0.12334369848E+02 -0.11632114659E+02  0.19776502025E+02  0.51100000000E-03 0. -1.
        -11    1    4    4    0    0  0.13485476793E+02 -0.21044294844E+02 -0.53353983746E+01  0.25557521513E+02  0.51100000000E-03 0.  1.
         12    1    4    4    0    0 -0.23934314571E+01 -0.51317331561E+00  0.16292604705E+00  0.24532439520E+01  0.00000000000E+00 0. -1.
</event>
<event>
 8    1  0.5542925E-011  0.9118800E+02  0.7816164E-02  0.1184000E+00
        -11   -1    0    0    0    0  0.00000000000E+00  0.00000000000E+00  0.45593999997E+02  0.45594000000E+02  0.51100000000E-03 0. -1.
         11   -1    0    0    0    0 -0.00000000000E+00 -0.00000000000E+00 -0.45593999997E+02  0.45594000000E+02  0.51100000000E-03 0.  1.
         23    2    1    2    0    0  0.00000000000E+00  0.00000000000E+00  0.00000000000E+00  0.91188000000E+02  0.91188000000E+02 0.  0.
    9900012    2    3    3    0    0 -0.15596619103E+02 -0.63059790718E+01 -0.40007536702E+02  0.47787275438E+02  0.20000020033E+02 0.  0.
         12    1    3    3    0    0  0.15596619103E+02  0.63059790718E+01  0.40007536702E+02  0.43400724562E+02  0.00000000000E+00 0. -1.
         11    1    4    4    0    0 -0.88059802774E+01  0.23988888205E+01 -0.93688651424E+01  0.13079586788E+02  0.51100000000E-03 0. -1.
        -11    1    4    4    0    0 -0.12802304987E+01 -0.46236300618E+01 -0.18964784322E+01  0.51588347312E+01  0.51100000000E-03 0.  1.
        -12    1    4    4    0    0 -0.55104083270E+01 -0.40812378304E+01 -0.28742193128E+02  0.29548853919E+02  0.00000000000E+00 0.  1.
</event>
<event>
 8    1  0.5542925E-011  0.9118800E+02  0.7816164E-02  0.1184000E+00
        -11   -1    0    0    0    0  0.00000000000E+00  0.00000000000E+00  0.45593999997E+02  0.45594000000E+02  0.51100000000E-03 0. -1.
         11   -1    0    0    0    0 -0.00000000000E+00 -0.00000000000E+00 -0.45593999997E+02  0.45594000000E+02  0.51100000000E-03 0.  1.
         23    2    1    2    0    0  0.00000000000E+00  0.00000000000E+00  0.00000000000E+00  0.91188000000E+02  0.91188000000E+02 0.  0.
    9900012    2    3    3    0    0  0.35603727687E+02  0.12749962333E+02 -0.21294075840E+02  0.47787255414E+02  0.19999928735E+02 0.  0.
         12    1    3    3    0    0 -0.35603727687E+02 -0.12749962333E+02  0.21294075840E+02  0.43400744586E+02  0.00000000000E+00 0. -1.
         11    1    4    4    0    0  0.31325861683E+02  0.66239641861E+01 -0.11729810507E+02  0.34099486308E+02  0.51100000000E-03 0. -1.
        -11    1    4    4    0    0  0.26574032338E+01 -0.71499315726E+00 -0.24218941449E+01  0.36658667014E+01  0.51100000000E-03 0.  1.
         12    1    4    4    0    0  0.16204627710E+01  0.68409913045E+01 -0.71423711882E+01  0.10021902405E+02  0.00000000000E+00 0. -1.
</event>
<event>
 8    1  0.5542925E-011  0.9118800E+02  0.7816164E-02  0.1184000E+00
        -11   -1    0    0    0    0  0.00000000000E+00  0.00000000000E+00  0.45593999997E+02  0.45594000000E+02  0.51100000000E-03 0. -1.
         11   -1    0    0    0    0 -0.00000000000E+00 -0.00000000000E+00 -0.45593999997E+02  0.45594000000E+02  0.51100000000E-03 0.  1.
         23    2    1    2    0    0  0.00000000000E+00  0.00000000000E+00  0.00000000000E+00  0.91188000000E+02  0.91188000000E+02 0.  0.
    9900012    2    3    3    0    0  0.34784905025E+02  0.11055381199E+02 -0.23482174781E+02  0.47787267247E+02  0.19999982687E+02 0.  0.
         12    1    3    3    0    0 -0.34784905025E+02 -0.11055381199E+02  0.23482174781E+02  0.43400732753E+02  0.00000000000E+00 0. -1.
         11    1    4    4    0    0  0.20776129479E+01 -0.10450037792E+00  0.29657543874E+00  0.21012741711E+01  0.51100000000E-03 0. -1.
        -11    1    4    4    0    0  0.82902866280E+01  0.10524160081E+02 -0.32655544059E+01  0.13789512088E+02  0.51100000000E-03 0.  1.
        -12    1    4    4    0    0  0.24417005449E+02  0.63572149504E+00 -0.20513195814E+02  0.31896480988E+02  0.00000000000E+00 0.  1.
</event>
<event>
 8    1  0.5542925E-011  0.9118800E+02  0.7816164E-02  0.1184000E+00
        -11   -1    0    0    0    0  0.00000000000E+00  0.00000000000E+00  0.45593999997E+02  0.45594000000E+02  0.51100000000E-03 0. -1.
         11   -1    0    0    0    0 -0.00000000000E+00 -0.00000000000E+00 -0.45593999997E+02  0.45594000000E+02  0.51100000000E-03 0.  1.
         23    2    1    2    0    0  0.00000000000E+00  0.00000000000E+00  0.00000000000E+00  0.91188000000E+02  0.91188000000E+02 0.  0.
    9900012    2    3    3    0    0 -0.47061422767E+01 -0.39217283794E+02 -0.17985558119E+02  0.47787269314E+02  0.19999992108E+02 0.  0.
         12    1    3    3    0    0  0.47061422767E+01  0.39217283794E+02  0.17985558119E+02  0.43400730686E+02  0.00000000000E+00 0. -1.
         11    1    4    4    0    0  0.64730900238E+00  0.29807453565E+00 -0.33743051348E+01  0.34487378527E+01  0.51100000000E-03 0. -1.
        -11    1    4    4    0    0 -0.16422400443E+01 -0.64854371109E+01  0.22632210893E+01  0.70625786256E+01  0.51100000000E-03 0.  1.
        -12    1    4    4    0    0 -0.37112112348E+01 -0.33029921218E+02 -0.16874474073E+02  0.37275952835E+02  0.00000000000E+00 0.  1.
</event>
<event>
 8    1  0.5542925E-011  0.9118800E+02  0.7816164E-02  0.1184000E+00
        -11   -1    0    0    0    0  0.00000000000E+00  0.00000000000E+00  0.45593999997E+02  0.45594000000E+02  0.51100000000E-03 0. -1.
         11   -1    0    0    0    0 -0.00000000000E+00 -0.00000000000E+00 -0.45593999997E+02  0.45594000000E+02  0.51100000000E-03 0.  1.
         23    2    1    2    0    0  0.71054273576E-14  0.35527136788E-14  0.00000000000E+00  0.91188000000E+02  0.91188000000E+02 0.  0.
    9900012    2    3    3    0    0  0.32642357235E+02  0.28109162557E+02 -0.52891192608E+01  0.47787270881E+02  0.19999999253E+02 0.  0.
        -12    1    3    3    0    0 -0.32642357235E+02 -0.28109162557E+02  0.52891192608E+01  0.43400729119E+02  0.00000000000E+00 0.  1.
         11    1    4    4    0    0  0.22925496644E+00 -0.60811853381E+00 -0.15630917857E+01  0.16928148695E+01  0.51100000000E-03 0. -1.
        -11    1    4    4    0    0  0.21751230667E+02  0.10757725494E+02  0.22505490440E+01  0.24370261890E+02  0.51100000000E-03 0.  1.
         12    1    4    4    0    0  0.10661871601E+02  0.17959555598E+02 -0.59765765191E+01  0.21724194121E+02  0.00000000000E+00 0. -1.
</event>
<event>
 8    1  0.5542925E-011  0.9118800E+02  0.7816164E-02  0.1184000E+00
        -11   -1    0    0    0    0  0.00000000000E+00  0.00000000000E+00  0.45593999997E+02  0.45594000000E+02  0.51100000000E-03 0. -1.
         11   -1    0    0    0    0 -0.00000000000E+00 -0.00000000000E+00 -0.45593999997E+02  0.45594000000E+02  0.51100000000E-03 0.  1.
         23    2    1    2    0    0  0.17763568394E-14  0.00000000000E+00 -0.71054273576E-14  0.91188000000E+02  0.91188000000E+02 0.  0.
    9900012    2    3    3    0    0 -0.52196953214E+01  0.50307648158E+01 -0.42791006548E+02  0.47787262042E+02  0.19999958956E+02 0.  0.
         12    1    3    3    0    0  0.52196953214E+01 -0.50307648158E+01  0.42791006548E+02  0.43400737958E+02  0.00000000000E+00 0. -1.
         11    1    4    4    0    0 -0.12265747498E+02  0.21963245395E+01 -0.28893378244E+02  0.31465849898E+02  0.51100000000E-03 0. -1.
        -11    1    4    4    0    0  0.35594797529E+01  0.14181375285E+01 -0.10759633713E+02  0.11421502881E+02  0.51100000000E-03 0.  1.
         12    1    4    4    0    0  0.34865724237E+01  0.14163027477E+01 -0.31379945906E+01  0.48999092634E+01  0.00000000000E+00 0. -1.
</event>
<event>
 8    1  0.5542925E-011  0.9118800E+02  0.7816164E-02  0.1184000E+00
        -11   -1    0    0    0    0  0.00000000000E+00  0.00000000000E+00  0.45593999997E+02  0.45594000000E+02  0.51100000000E-03 0. -1.
         11   -1    0    0    0    0 -0.00000000000E+00 -0.00000000000E+00 -0.45593999997E+02  0.45594000000E+02  0.51100000000E-03 0.  1.
         23    2    1    2    0    0  0.00000000000E+00  0.00000000000E+00  0.00000000000E+00  0.91188000000E+02  0.91188000000E+02 0.  0.
    9900012    2    3    3    0    0  0.24158544638E+02 -0.19024838968E+02  0.30627495431E+02  0.47787271283E+02  0.20000001088E+02 0.  0.
        -12    1    3    3    0    0 -0.24158544638E+02  0.19024838968E+02 -0.30627495431E+02  0.43400728717E+02  0.00000000000E+00 0.  1.
         11    1    4    4    0    0  0.50359560199E+01 -0.97263625007E+01  0.11726319586E+02  0.16045857778E+02  0.51100000000E-03 0. -1.
        -11    1    4    4    0    0  0.99658245738E+01 -0.10583264146E+02  0.56789475899E+01  0.15606844185E+02  0.51100000000E-03 0.  1.
        -12    1    4    4    0    0  0.91567640444E+01  0.12847876778E+01  0.13222228255E+02  0.16134569321E+02  0.00000000000E+00 0.  1.
</event>
<event>
 8    1  0.5542925E-011  0.9118800E+02  0.7816164E-02  0.1184000E+00
        -11   -1    0    0    0    0  0.00000000000E+00  0.00000000000E+00  0.45593999997E+02  0.45594000000E+02  0.51100000000E-03 0.  1.
         11   -1    0    0    0    0 -0.00000000000E+00 -0.00000000000E+00 -0.45593999997E+02  0.45594000000E+02  0.51100000000E-03 0. -1.
         23    2    1    2    0    0  0.35527136788E-14  0.00000000000E+00  0.35527136788E-14  0.91188000000E+02  0.91188000000E+02 0.  0.
    9900012    2    3    3    0    0  0.26571716920E+02 -0.23433028964E+02  0.25069118833E+02  0.47787266072E+02  0.19999977327E+02 0.  0.
        -12    1    3    3    0    0 -0.26571716920E+02  0.23433028964E+02 -0.25069118833E+02  0.43400733928E+02  0.00000000000E+00 0.  1.
         11    1    4    4    0    0  0.13430265197E+02 -0.96366044013E+01  0.78882619859E+01  0.18315590219E+02  0.51100000000E-03 0. -1.
        -11    1    4    4    0    0  0.89802455475E+01 -0.12573014737E+02  0.45347872364E+01  0.16102478232E+02  0.51100000000E-03 0.  1.
        -12    1    4    4    0    0  0.41612061749E+01 -0.12234098259E+01  0.12646069611E+02  0.13369197621E+02  0.00000000000E+00 0.  1.
</event>
<event>
 8    1  0.5542925E-011  0.9118800E+02  0.7816164E-02  0.1184000E+00
        -11   -1    0    0    0    0  0.00000000000E+00  0.00000000000E+00  0.45593999997E+02  0.45594000000E+02  0.51100000000E-03 0. -1.
         11   -1    0    0    0    0 -0.00000000000E+00 -0.00000000000E+00 -0.45593999997E+02  0.45594000000E+02  0.51100000000E-03 0.  1.
         23    2    1    2    0    0  0.00000000000E+00  0.00000000000E+00  0.00000000000E+00  0.91188000000E+02  0.91188000000E+02 0.  0.
    9900012    2    3    3    0    0 -0.78707685922E+01  0.24094645557E+02 -0.35229563666E+02  0.47787273061E+02  0.20000009196E+02 0.  0.
         12    1    3    3    0    0  0.78707685922E+01 -0.24094645557E+02  0.35229563666E+02  0.43400726939E+02  0.00000000000E+00 0. -1.
         11    1    4    4    0    0  0.12173950275E+01  0.10492304694E+02 -0.89690297112E+01  0.13856911729E+02  0.51100000000E-03 0. -1.
        -11    1    4    4    0    0 -0.32439750099E+01  0.13354314385E+02 -0.24006280157E+02  0.27661572149E+02  0.51100000000E-03 0.  1.
        -12    1    4    4    0    0 -0.58441886098E+01  0.24802647813E+00 -0.22542537978E+01  0.62687891834E+01  0.00000000000E+00 0.  1.
</event>
<event>
 8    1  0.5542925E-011  0.9118800E+02  0.7816164E-02  0.1184000E+00
        -11   -1    0    0    0    0  0.00000000000E+00  0.00000000000E+00  0.45593999997E+02  0.45594000000E+02  0.51100000000E-03 0. -1.
         11   -1    0    0    0    0 -0.00000000000E+00 -0.00000000000E+00 -0.45593999997E+02  0.45594000000E+02  0.51100000000E-03 0.  1.
         23    2    1    2    0    0 -0.88817841970E-15 -0.35527136788E-14  0.00000000000E+00  0.91188000000E+02  0.91188000000E+02 0.  0.
    9900012    2    3    3    0    0  0.58224625220E+01  0.25516605555E+02 -0.34621163938E+02  0.47787271650E+02  0.20000002762E+02 0.  0.
         12    1    3    3    0    0 -0.58224625220E+01 -0.25516605555E+02  0.34621163938E+02  0.43400728350E+02  0.00000000000E+00 0. -1.
         11    1    4    4    0    0  0.50132785143E+01  0.14380274708E+02 -0.17428969728E+02  0.23145069630E+02  0.51100000000E-03 0.  1.
        -11    1    4    4    0    0  0.67075358720E+01  0.71066888184E+01 -0.63356366630E+01  0.11646302230E+02  0.51100000000E-03 0. -1.
         12    1    4    4    0    0 -0.58983518643E+01  0.40296420283E+01 -0.10856557547E+02  0.12995899790E+02  0.00000000000E+00 0. -1.
</event>
<event>
 8    1  0.5542925E-011  0.9118800E+02  0.7816164E-02  0.1184000E+00
        -11   -1    0    0    0    0  0.00000000000E+00  0.00000000000E+00  0.45593999997E+02  0.45594000000E+02  0.51100000000E-03 0. -1.
         11   -1    0    0    0    0 -0.00000000000E+00 -0.00000000000E+00 -0.45593999997E+02  0.45594000000E+02  0.51100000000E-03 0.  1.
         23    2    1    2    0    0  0.35527136788E-14  0.00000000000E+00  0.00000000000E+00  0.91188000000E+02  0.91188000000E+02 0.  0.
    9900012    2    3    3    0    0  0.17542712904E+02 -0.55459805013E+01 -0.39308000019E+02  0.47787267965E+02  0.19999985958E+02 0.  0.
         12    1    3    3    0    0 -0.17542712904E+02  0.55459805013E+01  0.39308000019E+02  0.43400732035E+02  0.00000000000E+00 0. -1.
         11    1    4    4    0    0  0.47479136488E+01  0.94982442655E-01 -0.77015135467E+01  0.90479288709E+01  0.51100000000E-03 0. -1.
        -11    1    4    4    0    0  0.97255372891E+01 -0.11515004958E+02 -0.17124947610E+02  0.22813269070E+02  0.51100000000E-03 0.  1.
         12    1    4    4    0    0  0.30692619659E+01  0.58740420141E+01 -0.14481538862E+02  0.15926070024E+02  0.00000000000E+00 0. -1.
</event>
<event>
 8    1  0.5542925E-011  0.9118800E+02  0.7816164E-02  0.1184000E+00
        -11   -1    0    0    0    0  0.00000000000E+00  0.00000000000E+00  0.45593999997E+02  0.45594000000E+02  0.51100000000E-03 0. -1.
         11   -1    0    0    0    0 -0.00000000000E+00 -0.00000000000E+00 -0.45593999997E+02  0.45594000000E+02  0.51100000000E-03 0.  1.
         23    2    1    2    0    0  0.00000000000E+00  0.17763568394E-14  0.71054273576E-14  0.91188000000E+02  0.91188000000E+02 0.  0.
    9900012    2    3    3    0    0 -0.10486326746E+02  0.15906031200E+02 -0.38995624629E+02  0.47787267088E+02  0.19999981959E+02 0.  0.
         12    1    3    3    0    0  0.10486326746E+02 -0.15906031200E+02  0.38995624629E+02  0.43400732912E+02  0.00000000000E+00 0. -1.
         11    1    4    4    0    0 -0.26263295866E+01  0.58674888584E+00 -0.70076379623E+01  0.75065885343E+01  0.51100000000E-03 0. -1.
        -11    1    4    4    0    0 -0.90368053155E+01  0.12875196498E+01 -0.19200190055E+02  0.21259559157E+02  0.51100000000E-03 0.  1.
         12    1    4    4    0    0  0.11768081560E+01  0.14031762664E+02 -0.12787796612E+02  0.19021119396E+02  0.00000000000E+00 0. -1.
</event>
<event>
 8    1  0.5542925E-011  0.9118800E+02  0.7816164E-02  0.1184000E+00
        -11   -1    0    0    0    0  0.00000000000E+00  0.00000000000E+00  0.45593999997E+02  0.45594000000E+02  0.51100000000E-03 0.  1.
         11   -1    0    0    0    0 -0.00000000000E+00 -0.00000000000E+00 -0.45593999997E+02  0.45594000000E+02  0.51100000000E-03 0. -1.
         23    2    1    2    0    0  0.00000000000E+00 -0.17763568394E-14  0.00000000000E+00  0.91188000000E+02  0.91188000000E+02 0.  0.
    9900012    2    3    3    0    0  0.39919794494E+02  0.14812477409E+02 -0.84038457412E+01  0.47787261496E+02  0.19999956464E+02 0.  0.
         12    1    3    3    0    0 -0.39919794494E+02 -0.14812477409E+02  0.84038457412E+01  0.43400738504E+02  0.00000000000E+00 0. -1.
         11    1    4    4    0    0  0.89027106019E+01  0.19070858706E+01 -0.33974513452E+01  0.97179168798E+01  0.51100000000E-03 0. -1.
        -11    1    4    4    0    0  0.25990559463E+02  0.45754412931E+01 -0.85104453122E+01  0.27728532668E+02  0.51100000000E-03 0.  1.
         12    1    4    4    0    0  0.50265244294E+01  0.83299502451E+01  0.35040509162E+01  0.10340811948E+02  0.00000000000E+00 0. -1.
</event>
<event>
 8    1  0.5542925E-011  0.9118800E+02  0.7816164E-02  0.1184000E+00
        -11   -1    0    0    0    0  0.00000000000E+00  0.00000000000E+00  0.45593999997E+02  0.45594000000E+02  0.51100000000E-03 0. -1.
         11   -1    0    0    0    0 -0.00000000000E+00 -0.00000000000E+00 -0.45593999997E+02  0.45594000000E+02  0.51100000000E-03 0.  1.
         23    2    1    2    0    0  0.35527136788E-14  0.00000000000E+00  0.35527136788E-14  0.91188000000E+02  0.91188000000E+02 0.  0.
    9900012    2    3    3    0    0 -0.23211690835E+02  0.21066565295E+02 -0.30017338971E+02  0.47787269550E+02  0.19999993184E+02 0.  0.
         12    1    3    3    0    0  0.23211690835E+02 -0.21066565295E+02  0.30017338971E+02  0.43400730450E+02  0.00000000000E+00 0. -1.
         11    1    4    4    0    0 -0.60189979907E+01  0.20250648234E+01 -0.49565352766E+00  0.63698427792E+01  0.51100000000E-03 0. -1.
        -11    1    4    4    0    0 -0.18675184055E+02  0.13579993947E+02 -0.21153438505E+02  0.31315278953E+02  0.51100000000E-03 0.  1.
        -12    1    4    4    0    0  0.14824912098E+01  0.54615065242E+01 -0.83682469384E+01  0.10102147817E+02  0.00000000000E+00 0.  1.
</event>
<event>
 8    1  0.5542925E-011  0.9118800E+02  0.7816164E-02  0.1184000E+00
        -11   -1    0    0    0    0  0.00000000000E+00  0.00000000000E+00  0.45593999997E+02  0.45594000000E+02  0.51100000000E-03 0. -1.
         11   -1    0    0    0    0 -0.00000000000E+00 -0.00000000000E+00 -0.45593999997E+02  0.45594000000E+02  0.51100000000E-03 0.  1.
         23    2    1    2    0    0 -0.17763568394E-14  0.13322676296E-14  0.00000000000E+00  0.91188000000E+02  0.91188000000E+02 0.  0.
    9900012    2    3    3    0    0  0.14722708319E+02 -0.36887093834E+01  0.40660276976E+02  0.47787276032E+02  0.20000022742E+02 0.  0.
        -12    1    3    3    0    0 -0.14722708319E+02  0.36887093834E+01 -0.40660276976E+02  0.43400723968E+02  0.00000000000E+00 0.  1.
         11    1    4    4    0    0  0.69939494723E+01  0.21754316331E+01  0.25504169012E+02  0.26535079975E+02  0.51100000000E-03 0. -1.
        -11    1    4    4    0    0  0.98339121752E+01 -0.16691022929E+01  0.11961145846E+02  0.15574361667E+02  0.51100000000E-03 0.  1.
        -12    1    4    4    0    0 -0.21051533285E+01 -0.41950387236E+01  0.31949621183E+01  0.56778343906E+01  0.00000000000E+00 0.  1.
</event>
<event>
 8    1  0.5542925E-011  0.9118800E+02  0.7816164E-02  0.1184000E+00
        -11   -1    0    0    0    0  0.00000000000E+00  0.00000000000E+00  0.45593999997E+02  0.45594000000E+02  0.51100000000E-03 0. -1.
         11   -1    0    0    0    0 -0.00000000000E+00 -0.00000000000E+00 -0.45593999997E+02  0.45594000000E+02  0.51100000000E-03 0.  1.
         23    2    1    2    0    0  0.00000000000E+00  0.71054273576E-14  0.71054273576E-14  0.91188000000E+02  0.91188000000E+02 0.  0.
    9900012    2    3    3    0    0 -0.38357210110E+01 -0.32338765579E+02 -0.28689972500E+02  0.47787273775E+02  0.20000012450E+02 0.  0.
         12    1    3    3    0    0  0.38357210110E+01  0.32338765579E+02  0.28689972500E+02  0.43400726225E+02  0.00000000000E+00 0. -1.
         11    1    4    4    0    0 -0.88779604557E+00 -0.15060809397E+02 -0.95965946497E+01  0.17880458346E+02  0.51100000000E-03 0.  1.
        -11    1    4    4    0    0 -0.19148932392E+01 -0.14566720572E+02 -0.50025167996E+01  0.15520352410E+02  0.51100000000E-03 0. -1.
         12    1    4    4    0    0 -0.10330317262E+01 -0.27112356095E+01 -0.14090861050E+02  0.14386463020E+02  0.00000000000E+00 0. -1.
</event>
<event>
 8    1  0.5542925E-011  0.9118800E+02  0.7816164E-02  0.1184000E+00
        -11   -1    0    0    0    0  0.00000000000E+00  0.00000000000E+00  0.45593999997E+02  0.45594000000E+02  0.51100000000E-03 0. -1.
         11   -1    0    0    0    0 -0.00000000000E+00 -0.00000000000E+00 -0.45593999997E+02  0.45594000000E+02  0.51100000000E-03 0.  1.
         23    2    1    2    0    0 -0.35527136788E-14  0.00000000000E+00  0.00000000000E+00  0.91188000000E+02  0.91188000000E+02 0.  0.
    9900012    2    3    3    0    0  0.19723568481E+02  0.11145776995E+02  0.37018588407E+02  0.47787269751E+02  0.19999994105E+02 0.  0.
        -12    1    3    3    0    0 -0.19723568481E+02 -0.11145776995E+02 -0.37018588407E+02  0.43400730249E+02  0.00000000000E+00 0.  1.
         11    1    4    4    0    0  0.29009281180E+01  0.27317127072E+00  0.15537145899E+01  0.33021259480E+01  0.51100000000E-03 0. -1.
        -11    1    4    4    0    0  0.95244956306E+01 -0.39375494320E+01  0.14785907328E+02  0.18023411673E+02  0.51100000000E-03 0.  1.
         12    1    4    4    0    0  0.72981447324E+01  0.14810155157E+02  0.20678966489E+02  0.26461732131E+02  0.00000000000E+00 0. -1.
</event>
<event>
 8    1  0.5542925E-011  0.9118800E+02  0.7816164E-02  0.1184000E+00
        -11   -1    0    0    0    0  0.00000000000E+00  0.00000000000E+00  0.45593999997E+02  0.45594000000E+02  0.51100000000E-03 0. -1.
         11   -1    0    0    0    0 -0.00000000000E+00 -0.00000000000E+00 -0.45593999997E+02  0.45594000000E+02  0.51100000000E-03 0.  1.
         23    2    1    2    0    0  0.00000000000E+00  0.44408920985E-15  0.00000000000E+00  0.91188000000E+02  0.91188000000E+02 0.  0.
    9900012    2    3    3    0    0  0.28460393159E+01  0.18602026183E+01  0.43267341633E+02  0.47787272523E+02  0.20000006742E+02 0.  0.
        -12    1    3    3    0    0 -0.28460393159E+01 -0.18602026183E+01 -0.43267341633E+02  0.43400727477E+02  0.00000000000E+00 0.  1.
         11    1    4    4    0    0 -0.53421948434E+01  0.52428970597E+00  0.18265695127E+02  0.19038107683E+02  0.51100000000E-03 0. -1.
        -11    1    4    4    0    0  0.37013148024E+01  0.53279534501E+01  0.19691136370E+02  0.20732285716E+02  0.51100000000E-03 0.  1.
        -12    1    4    4    0    0  0.44869193569E+01 -0.39920405378E+01  0.53105101360E+01  0.80168791232E+01  0.00000000000E+00 0.  1.
</event>
<event>
 8    1  0.5542925E-011  0.9118800E+02  0.7816164E-02  0.1184000E+00
        -11   -1    0    0    0    0  0.00000000000E+00  0.00000000000E+00  0.45593999997E+02  0.45594000000E+02  0.51100000000E-03 0. -1.
         11   -1    0    0    0    0 -0.00000000000E+00 -0.00000000000E+00 -0.45593999997E+02  0.45594000000E+02  0.51100000000E-03 0.  1.
         23    2    1    2    0    0  0.17763568394E-14 -0.17763568394E-14  0.00000000000E+00  0.91188000000E+02  0.91188000000E+02 0.  0.
    9900012    2    3    3    0    0  0.13998782232E+02 -0.14168291374E+02 -0.38560560550E+02  0.47787271730E+02  0.20000003124E+02 0.  0.
         12    1    3    3    0    0 -0.13998782232E+02  0.14168291374E+02  0.38560560550E+02  0.43400728270E+02  0.00000000000E+00 0. -1.
         11    1    4    4    0    0 -0.81125269154E+00  0.29879502800E+01 -0.31248149842E+01  0.43989142697E+01  0.51100000000E-03 0. -1.
        -11    1    4    4    0    0  0.89313755062E+01 -0.25903306459E+01 -0.14218952292E+02  0.16989934839E+02  0.51100000000E-03 0.  1.
         12    1    4    4    0    0  0.58786594174E+01 -0.14565911009E+02 -0.21216793274E+02  0.26398422621E+02  0.00000000000E+00 0. -1.
</event>
<event>
 8    1  0.5542925E-011  0.9118800E+02  0.7816164E-02  0.1184000E+00
        -11   -1    0    0    0    0  0.00000000000E+00  0.00000000000E+00  0.45593999997E+02  0.45594000000E+02  0.51100000000E-03 0. -1.
         11   -1    0    0    0    0 -0.00000000000E+00 -0.00000000000E+00 -0.45593999997E+02  0.45594000000E+02  0.51100000000E-03 0.  1.
         23    2    1    2    0    0 -0.34694469520E-15  0.00000000000E+00 -0.35527136788E-14  0.91188000000E+02  0.91188000000E+02 0.  0.
    9900012    2    3    3    0    0 -0.82208113626E-01 -0.39426418361E+02 -0.18143164034E+02  0.47787267010E+02  0.19999981604E+02 0.  0.
         12    1    3    3    0    0  0.82208113626E-01  0.39426418361E+02  0.18143164034E+02  0.43400732990E+02  0.00000000000E+00 0. -1.
         11    1    4    4    0    0  0.36564315312E+01 -0.48348317057E+01  0.31508672768E+00  0.60699562661E+01  0.51100000000E-03 0. -1.
        -11    1    4    4    0    0  0.38007511694E+01 -0.20115108411E+02 -0.13989447695E+02  0.24794514371E+02  0.51100000000E-03 0.  1.
        -12    1    4    4    0    0 -0.75393908142E+01 -0.14476478244E+02 -0.44688030660E+01  0.16922796372E+02  0.00000000000E+00 0.  1.
</event>
<event>
 8    1  0.5542925E-011  0.9118800E+02  0.7816164E-02  0.1184000E+00
        -11   -1    0    0    0    0  0.00000000000E+00  0.00000000000E+00  0.45593999997E+02  0.45594000000E+02  0.51100000000E-03 0.  1.
         11   -1    0    0    0    0 -0.00000000000E+00 -0.00000000000E+00 -0.45593999997E+02  0.45594000000E+02  0.51100000000E-03 0. -1.
         23    2    1    2    0    0  0.35527136788E-14  0.71054273576E-14  0.88817841970E-15  0.91188000000E+02  0.91188000000E+02 0.  0.
    9900012    2    3    3    0    0 -0.26815113518E+02 -0.33285161806E+02 -0.75280649493E+01  0.47787261857E+02  0.19999958113E+02 0.  0.
         12    1    3    3    0    0  0.26815113518E+02  0.33285161806E+02  0.75280649493E+01  0.43400738143E+02  0.00000000000E+00 0. -1.
         11    1    4    4    0    0 -0.14044080451E+02 -0.20130182385E+02 -0.61753643984E+01  0.25309989417E+02  0.51100000000E-03 0. -1.
        -11    1    4    4    0    0 -0.10507148732E+02 -0.12990967585E+02  0.35440941797E+01  0.17079988790E+02  0.51100000000E-03 0.  1.
         12    1    4    4    0    0 -0.22638843357E+01 -0.16401183579E+00 -0.48967947306E+01  0.53972836503E+01  0.00000000000E+00 0. -1.
</event>
<event>
 8    1  0.5542925E-011  0.9118800E+02  0.7816164E-02  0.1184000E+00
        -11   -1    0    0    0    0  0.00000000000E+00  0.00000000000E+00  0.45593999997E+02  0.45594000000E+02  0.51100000000E-03 0. -1.
         11   -1    0    0    0    0 -0.00000000000E+00 -0.00000000000E+00 -0.45593999997E+02  0.45594000000E+02  0.51100000000E-03 0.  1.
         23    2    1    2    0    0  0.44408920985E-15  0.00000000000E+00 -0.35527136788E-14  0.91188000000E+02  0.91188000000E+02 0.  0.
    9900012    2    3    3    0    0 -0.99795359967E+00 -0.35416759644E+02  0.25065534987E+02  0.47787264761E+02  0.19999971353E+02 0.  0.
        -12    1    3    3    0    0  0.99795359967E+00  0.35416759644E+02 -0.25065534987E+02  0.43400735239E+02  0.00000000000E+00 0.  1.
         11    1    4    4    0    0 -0.37707721261E+01 -0.12945709693E+02  0.17143534274E+02  0.21810797545E+02  0.51100000000E-03 0. -1.
        -11    1    4    4    0    0  0.20404066986E+00 -0.13951639839E+01  0.41877166518E+01  0.44187199678E+01  0.51100000000E-03 0.  1.
        -12    1    4    4    0    0  0.25687778566E+01 -0.21075885967E+02  0.37342840612E+01  0.21557747249E+02  0.00000000000E+00 0.  1.
</event>
<event>
 8    1  0.5542925E-011  0.9118800E+02  0.7816164E-02  0.1184000E+00
        -11   -1    0    0    0    0  0.00000000000E+00  0.00000000000E+00  0.45593999997E+02  0.45594000000E+02  0.51100000000E-03 0.  1.
         11   -1    0    0    0    0 -0.00000000000E+00 -0.00000000000E+00 -0.45593999997E+02  0.45594000000E+02  0.51100000000E-03 0. -1.
         23    2    1    2    0    0  0.00000000000E+00 -0.17763568394E-14  0.00000000000E+00  0.91188000000E+02  0.91188000000E+02 0.  0.
    9900012    2    3    3    0    0  0.41866438990E+02  0.96941318051E+01 -0.60702796951E+01  0.47787271887E+02  0.20000003841E+02 0.  0.
         12    1    3    3    0    0 -0.41866438990E+02 -0.96941318051E+01  0.60702796951E+01  0.43400728113E+02  0.00000000000E+00 0. -1.
         11    1    4    4    0    0  0.16404951279E+01  0.13413544129E+00 -0.35771197306E+01  0.39376391924E+01  0.51100000000E-03 0. -1.
        -11    1    4    4    0    0  0.14277873016E+02 -0.16170707007E+01 -0.56096265569E+01  0.15425319636E+02  0.51100000000E-03 0.  1.
        -12    1    4    4    0    0  0.25948070846E+02  0.11177067064E+02  0.31164665924E+01  0.28424313058E+02  0.00000000000E+00 0.  1.
</event>
<event>
 8    1  0.5542925E-011  0.9118800E+02  0.7816164E-02  0.1184000E+00
        -11   -1    0    0    0    0  0.00000000000E+00  0.00000000000E+00  0.45593999997E+02  0.45594000000E+02  0.51100000000E-03 0. -1.
         11   -1    0    0    0    0 -0.00000000000E+00 -0.00000000000E+00 -0.45593999997E+02  0.45594000000E+02  0.51100000000E-03 0.  1.
         23    2    1    2    0    0  0.00000000000E+00  0.00000000000E+00  0.00000000000E+00  0.91188000000E+02  0.91188000000E+02 0.  0.
    9900012    2    3    3    0    0  0.69148936957E+01  0.29358176426E+02  0.31207442272E+02  0.47787277298E+02  0.20000028513E+02 0.  0.
        -12    1    3    3    0    0 -0.69148936957E+01 -0.29358176426E+02 -0.31207442272E+02  0.43400722702E+02  0.00000000000E+00 0.  1.
         11    1    4    4    0    0  0.50614363014E+01  0.98232805231E+01  0.83472495295E+01  0.13848882722E+02  0.51100000000E-03 0. -1.
        -11    1    4    4    0    0  0.32059784638E+01  0.20505258460E-01  0.10067011985E+02  0.10565199901E+02  0.51100000000E-03 0.  1.
        -12    1    4    4    0    0 -0.13525210694E+01  0.19514390644E+02  0.12793180758E+02  0.23373194676E+02  0.00000000000E+00 0.  1.
</event>
<event>
 8    1  0.5542925E-011  0.9118800E+02  0.7816164E-02  0.1184000E+00
        -11   -1    0    0    0    0  0.00000000000E+00  0.00000000000E+00  0.45593999997E+02  0.45594000000E+02  0.51100000000E-03 0. -1.
         11   -1    0    0    0    0 -0.00000000000E+00 -0.00000000000E+00 -0.45593999997E+02  0.45594000000E+02  0.51100000000E-03 0.  1.
         23    2    1    2    0    0  0.17763568394E-14  0.00000000000E+00 -0.35527136788E-14  0.91188000000E+02  0.91188000000E+02 0.  0.
    9900012    2    3    3    0    0  0.15277587379E+02 -0.30838177273E+02 -0.26442864302E+02  0.47787275051E+02  0.20000018265E+02 0.  0.
         12    1    3    3    0    0 -0.15277587379E+02  0.30838177273E+02  0.26442864302E+02  0.43400724949E+02  0.00000000000E+00 0. -1.
         11    1    4    4    0    0  0.41104237094E+01 -0.93530100295E+01  0.16936982627E+01  0.10355819318E+02  0.51100000000E-03 0. -1.
        -11    1    4    4    0    0  0.41159183885E+01 -0.47430686855E+01 -0.50757159025E+01  0.80746750350E+01  0.51100000000E-03 0.  1.
        -12    1    4    4    0    0  0.70512452809E+01 -0.16742098558E+02 -0.23060846662E+02  0.29356780697E+02  0.00000000000E+00 0.  1.
</event>
<event>
 8    1  0.5542925E-011  0.9118800E+02  0.7816164E-02  0.1184000E+00
        -11   -1    0    0    0    0  0.00000000000E+00  0.00000000000E+00  0.45593999997E+02  0.45594000000E+02  0.51100000000E-03 0. -1.
         11   -1    0    0    0    0 -0.00000000000E+00 -0.00000000000E+00 -0.45593999997E+02  0.45594000000E+02  0.51100000000E-03 0.  1.
         23    2    1    2    0    0 -0.35527136788E-14 -0.71054273576E-14  0.00000000000E+00  0.91188000000E+02  0.91188000000E+02 0.  0.
    9900012    2    3    3    0    0  0.28976569269E+02 -0.31835248896E+02  0.55227733833E+01  0.47787243501E+02  0.19999874417E+02 0.  0.
        -12    1    3    3    0    0 -0.28976569269E+02  0.31835248896E+02 -0.55227733833E+01  0.43400756499E+02  0.00000000000E+00 0.  1.
         11    1    4    4    0    0  0.98178728960E+01 -0.18624726921E+02  0.67545508437E+01  0.22110970997E+02  0.51100000000E-03 0. -1.
        -11    1    4    4    0    0  0.83533900696E+01 -0.11376844820E+02 -0.33673229637E+01  0.14510361398E+02  0.51100000000E-03 0.  1.
         12    1    4    4    0    0  0.10805306303E+02 -0.18336771560E+01  0.21355455033E+01  0.11165911105E+02  0.00000000000E+00 0. -1.
</event>
<event>
 8    1  0.5542925E-011  0.9118800E+02  0.7816164E-02  0.1184000E+00
        -11   -1    0    0    0    0  0.00000000000E+00  0.00000000000E+00  0.45593999997E+02  0.45594000000E+02  0.51100000000E-03 0. -1.
         11   -1    0    0    0    0 -0.00000000000E+00 -0.00000000000E+00 -0.45593999997E+02  0.45594000000E+02  0.51100000000E-03 0.  1.
         23    2    1    2    0    0  0.00000000000E+00 -0.17763568394E-14  0.00000000000E+00  0.91188000000E+02  0.91188000000E+02 0.  0.
    9900012    2    3    3    0    0 -0.94420689032E+01  0.11572711613E+02  0.40749760859E+02  0.47787270405E+02  0.19999997087E+02 0.  0.
        -12    1    3    3    0    0  0.94420689032E+01 -0.11572711613E+02 -0.40749760859E+02  0.43400729595E+02  0.00000000000E+00 0.  1.
         11    1    4    4    0    0  0.71489338026E+00  0.97355461049E+01  0.83614658788E+01  0.12853250266E+02  0.51100000000E-03 0. -1.
        -11    1    4    4    0    0  0.58808493836E+00 -0.36885169661E+00  0.97860837959E+01  0.98106743800E+01  0.51100000000E-03 0.  1.
        -12    1    4    4    0    0 -0.10745047222E+02  0.22060172049E+01  0.22602211185E+02  0.25123345759E+02  0.00000000000E+00 0.  1.
</event>
<event>
 8    1  0.5542925E-011  0.9118800E+02  0.7816164E-02  0.1184000E+00
        -11   -1    0    0    0    0  0.00000000000E+00  0.00000000000E+00  0.45593999997E+02  0.45594000000E+02  0.51100000000E-03 0.  1.
         11   -1    0    0    0    0 -0.00000000000E+00 -0.00000000000E+00 -0.45593999997E+02  0.45594000000E+02  0.51100000000E-03 0. -1.
         23    2    1    2    0    0  0.00000000000E+00 -0.35527136788E-14 -0.88817841970E-15  0.91188000000E+02  0.91188000000E+02 0.  0.
    9900012    2    3    3    0    0  0.32435673958E+02  0.28052206651E+02 -0.66802476207E+01  0.47787251719E+02  0.19999911885E+02 0.  0.
         12    1    3    3    0    0 -0.32435673958E+02 -0.28052206651E+02  0.66802476207E+01  0.43400748281E+02  0.00000000000E+00 0. -1.
         11    1    4    4    0    0  0.93232936853E+01  0.85303028872E+01 -0.11184647688E+02  0.16875610112E+02  0.51100000000E-03 0. -1.
        -11    1    4    4    0    0  0.24906038038E+01  0.39527475737E+01  0.14549122037E+01  0.48932699160E+01  0.51100000000E-03 0.  1.
        -12    1    4    4    0    0  0.20621776469E+02  0.15569156190E+02  0.30494878632E+01  0.26018371691E+02  0.00000000000E+00 0.  1.
</event>
<event>
 8    1  0.5542925E-011  0.9118800E+02  0.7816164E-02  0.1184000E+00
        -11   -1    0    0    0    0  0.00000000000E+00  0.00000000000E+00  0.45593999997E+02  0.45594000000E+02  0.51100000000E-03 0. -1.
         11   -1    0    0    0    0 -0.00000000000E+00 -0.00000000000E+00 -0.45593999997E+02  0.45594000000E+02  0.51100000000E-03 0.  1.
         23    2    1    2    0    0  0.00000000000E+00  0.17763568394E-14  0.00000000000E+00  0.91188000000E+02  0.91188000000E+02 0.  0.
    9900012    2    3    3    0    0 -0.24022290262E+02  0.14265674783E+02 -0.33212095902E+02  0.47787271657E+02  0.20000002794E+02 0.  0.
         12    1    3    3    0    0  0.24022290262E+02 -0.14265674783E+02  0.33212095902E+02  0.43400728343E+02  0.00000000000E+00 0. -1.
         11    1    4    4    0    0  0.63825155898E+00  0.73885727171E+00  0.16017231867E+01  0.18758444894E+01  0.51100000000E-03 0. -1.
        -11    1    4    4    0    0 -0.17751700103E+01  0.42396499425E+01 -0.94540868051E+01  0.10512165228E+02  0.51100000000E-03 0.  1.
        -12    1    4    4    0    0 -0.22885371811E+02  0.92871675689E+01 -0.25359732284E+02  0.35399261940E+02  0.00000000000E+00 0.  1.
</event>
<event>
 8    1  0.5542925E-011  0.9118800E+02  0.7816164E-02  0.1184000E+00
        -11   -1    0    0    0    0  0.00000000000E+00  0.00000000000E+00  0.45593999997E+02  0.45594000000E+02  0.51100000000E-03 0. -1.
         11   -1    0    0    0    0 -0.00000000000E+00 -0.00000000000E+00 -0.45593999997E+02  0.45594000000E+02  0.51100000000E-03 0.  1.
         23    2    1    2    0    0  0.00000000000E+00  0.35527136788E-14  0.00000000000E+00  0.91188000000E+02  0.91188000000E+02 0.  0.
    9900012    2    3    3    0    0 -0.62203011921E+01 -0.18239787955E+02 -0.38887553451E+02  0.47787264696E+02  0.19999971053E+02 0.  0.
         12    1    3    3    0    0  0.62203011921E+01  0.18239787955E+02  0.38887553451E+02  0.43400735304E+02  0.00000000000E+00 0. -1.
         11    1    4    4    0    0 -0.27881094470E+01 -0.90327953085E+01 -0.96175450122E+01  0.13485626337E+02  0.51100000000E-03 0.  1.
        -11    1    4    4    0    0 -0.68816690776E+01 -0.92707958322E+00 -0.53827860420E+01  0.87858540667E+01  0.51100000000E-03 0. -1.
         12    1    4    4    0    0  0.34494773325E+01 -0.82799130634E+01 -0.23887222397E+02  0.25515784292E+02  0.00000000000E+00 0. -1.
</event>
<event>
 8    1  0.5542925E-011  0.9118800E+02  0.7816164E-02  0.1184000E+00
        -11   -1    0    0    0    0  0.00000000000E+00  0.00000000000E+00  0.45593999997E+02  0.45594000000E+02  0.51100000000E-03 0. -1.
         11   -1    0    0    0    0 -0.00000000000E+00 -0.00000000000E+00 -0.45593999997E+02  0.45594000000E+02  0.51100000000E-03 0.  1.
         23    2    1    2    0    0  0.00000000000E+00  0.00000000000E+00  0.00000000000E+00  0.91188000000E+02  0.91188000000E+02 0.  0.
    9900012    2    3    3    0    0 -0.32634384943E+02  0.28125004579E+02  0.52540234810E+01  0.47787265837E+02  0.19999976257E+02 0.  0.
        -12    1    3    3    0    0  0.32634384943E+02 -0.28125004579E+02 -0.52540234810E+01  0.43400734163E+02  0.00000000000E+00 0.  1.
         11    1    4    4    0    0 -0.79830705253E+01  0.61783876651E+01  0.66861351952E+01  0.12108108575E+02  0.51100000000E-03 0. -1.
        -11    1    4    4    0    0 -0.12724255744E+02  0.19033055579E+02  0.18530115500E+01  0.22969491526E+02  0.51100000000E-03 0.  1.
        -12    1    4    4    0    0 -0.11927058674E+02  0.29135613345E+01 -0.32851232641E+01  0.12709665736E+02  0.00000000000E+00 0.  1.
</event>
<event>
 8    1  0.5542925E-011  0.9118800E+02  0.7816164E-02  0.1184000E+00
        -11   -1    0    0    0    0  0.00000000000E+00  0.00000000000E+00  0.45593999997E+02  0.45594000000E+02  0.51100000000E-03 0. -1.
         11   -1    0    0    0    0 -0.00000000000E+00 -0.00000000000E+00 -0.45593999997E+02  0.45594000000E+02  0.51100000000E-03 0.  1.
         23    2    1    2    0    0  0.00000000000E+00  0.00000000000E+00  0.00000000000E+00  0.91188000000E+02  0.91188000000E+02 0.  0.
    9900012    2    3    3    0    0  0.33418634267E+02  0.21578156967E+02 -0.17355151383E+02  0.47787271274E+02  0.20000001048E+02 0.  0.
         12    1    3    3    0    0 -0.33418634267E+02 -0.21578156967E+02  0.17355151383E+02  0.43400728726E+02  0.00000000000E+00 0. -1.
         11    1    4    4    0    0  0.98475950032E+01  0.14209341715E+02 -0.28895400765E+01  0.17527976536E+02  0.51100000000E-03 0. -1.
        -11    1    4    4    0    0  0.87514576363E+00  0.24390681864E+01 -0.40443018675E+01  0.48032605158E+01  0.51100000000E-03 0.  1.
        -12    1    4    4    0    0  0.22695893501E+02  0.49297470648E+01 -0.10421309439E+02  0.25456034223E+02  0.00000000000E+00 0.  1.
</event>
<event>
 8    1  0.5542925E-011  0.9118800E+02  0.7816164E-02  0.1184000E+00
        -11   -1    0    0    0    0  0.00000000000E+00  0.00000000000E+00  0.45593999997E+02  0.45594000000E+02  0.51100000000E-03 0. -1.
         11   -1    0    0    0    0 -0.00000000000E+00 -0.00000000000E+00 -0.45593999997E+02  0.45594000000E+02  0.51100000000E-03 0.  1.
         23    2    1    2    0    0  0.00000000000E+00 -0.17763568394E-14  0.35527136788E-14  0.91188000000E+02  0.91188000000E+02 0.  0.
    9900012    2    3    3    0    0  0.31555165354E+02  0.12125845389E+02 -0.27218760533E+02  0.47787245261E+02  0.19999882443E+02 0.  0.
         12    1    3    3    0    0 -0.31555165354E+02 -0.12125845389E+02  0.27218760533E+02  0.43400754739E+02  0.00000000000E+00 0. -1.
         11    1    4    4    0    0  0.23160206965E+02  0.15681410175E+02 -0.26273883167E+02  0.38374714966E+02  0.51100000000E-03 0.  1.
        -11    1    4    4    0    0  0.28006482641E+00 -0.52992979071E+00  0.28736055795E+00  0.66470914050E+00  0.51100000000E-03 0. -1.
        -12    1    4    4    0    0  0.81148935625E+01 -0.30256349955E+01 -0.12322379241E+01  0.87478211549E+01  0.00000000000E+00 0.  1.
</event>
<event>
 8    1  0.5542925E-011  0.9118800E+02  0.7816164E-02  0.1184000E+00
        -11   -1    0    0    0    0  0.00000000000E+00  0.00000000000E+00  0.45593999997E+02  0.45594000000E+02  0.51100000000E-03 0. -1.
         11   -1    0    0    0    0 -0.00000000000E+00 -0.00000000000E+00 -0.45593999997E+02  0.45594000000E+02  0.51100000000E-03 0.  1.
         23    2    1    2    0    0  0.35527136788E-14 -0.71054273576E-14 -0.56898930012E-15  0.91188000000E+02  0.91188000000E+02 0.  0.
    9900012    2    3    3    0    0 -0.21312826015E+02  0.37807087903E+02 -0.10327546967E+00  0.47787272883E+02  0.20000008382E+02 0.  0.
        -12    1    3    3    0    0  0.21312826015E+02 -0.37807087903E+02  0.10327546967E+00  0.43400727117E+02  0.00000000000E+00 0.  1.
         11    1    4    4    0    0 -0.48444886846E+01  0.10880605837E+02  0.86087699247E+01  0.14695835256E+02  0.51100000000E-03 0. -1.
        -11    1    4    4    0    0 -0.90319560795E+01  0.10661451390E+02 -0.27623282755E+01  0.14243357544E+02  0.51100000000E-03 0.  1.
         12    1    4    4    0    0 -0.74363812514E+01  0.16265030677E+02 -0.59497171189E+01  0.18848080083E+02  0.00000000000E+00 0. -1.
</event>
<event>
 8    1  0.5542925E-011  0.9118800E+02  0.7816164E-02  0.1184000E+00
        -11   -1    0    0    0    0  0.00000000000E+00  0.00000000000E+00  0.45593999997E+02  0.45594000000E+02  0.51100000000E-03 0. -1.
         11   -1    0    0    0    0 -0.00000000000E+00 -0.00000000000E+00 -0.45593999997E+02  0.45594000000E+02  0.51100000000E-03 0.  1.
         23    2    1    2    0    0  0.00000000000E+00  0.00000000000E+00 -0.35527136788E-14  0.91188000000E+02  0.91188000000E+02 0.  0.
    9900012    2    3    3    0    0 -0.31864700976E+02 -0.18005575110E+02  0.23325187832E+02  0.47787259330E+02  0.19999946588E+02 0.  0.
        -12    1    3    3    0    0  0.31864700976E+02  0.18005575110E+02 -0.23325187832E+02  0.43400740670E+02  0.00000000000E+00 0.  1.
         11    1    4    4    0    0 -0.66277526224E+00 -0.63909583787E+01  0.23889155087E+01  0.68549644503E+01  0.51100000000E-03 0. -1.
        -11    1    4    4    0    0 -0.87106751844E+01 -0.50590696625E+01  0.12451615091E+02  0.16016015942E+02  0.51100000000E-03 0.  1.
         12    1    4    4    0    0 -0.22491250529E+02 -0.65555470685E+01  0.84846572322E+01  0.24916278938E+02  0.00000000000E+00 0. -1.
</event>
<event>
 8    1  0.5542925E-011  0.9118800E+02  0.7816164E-02  0.1184000E+00
        -11   -1    0    0    0    0  0.00000000000E+00  0.00000000000E+00  0.45593999997E+02  0.45594000000E+02  0.51100000000E-03 0. -1.
         11   -1    0    0    0    0 -0.00000000000E+00 -0.00000000000E+00 -0.45593999997E+02  0.45594000000E+02  0.51100000000E-03 0.  1.
         23    2    1    2    0    0  0.00000000000E+00 -0.66613381478E-15  0.71054273576E-14  0.91188000000E+02  0.91188000000E+02 0.  0.
    9900012    2    3    3    0    0  0.25558557591E+02  0.19091514359E+01 -0.35024829127E+02  0.47787269813E+02  0.19999994387E+02 0.  0.
         12    1    3    3    0    0 -0.25558557591E+02 -0.19091514359E+01  0.35024829127E+02  0.43400730187E+02  0.00000000000E+00 0. -1.
         11    1    4    4    0    0  0.15089560621E+01  0.40542621093E+01 -0.37836186045E+01  0.57471523082E+01  0.51100000000E-03 0. -1.
        -11    1    4    4    0    0  0.13166440676E+02  0.43795185610E+01 -0.23152659765E+02  0.26992239577E+02  0.51100000000E-03 0.  1.
         12    1    4    4    0    0  0.10883160852E+02 -0.65246292343E+01 -0.80885507577E+01  0.15047877928E+02  0.00000000000E+00 0. -1.
</event>
<event>
 8    1  0.5542925E-011  0.9118800E+02  0.7816164E-02  0.1184000E+00
        -11   -1    0    0    0    0  0.00000000000E+00  0.00000000000E+00  0.45593999997E+02  0.45594000000E+02  0.51100000000E-03 0.  1.
         11   -1    0    0    0    0 -0.00000000000E+00 -0.00000000000E+00 -0.45593999997E+02  0.45594000000E+02  0.51100000000E-03 0. -1.
         23    2    1    2    0    0  0.00000000000E+00  0.71054273576E-14  0.00000000000E+00  0.91188000000E+02  0.91188000000E+02 0.  0.
    9900012    2    3    3    0    0  0.42487279622E+01  0.41669811683E+02 -0.11366568702E+02  0.47787265224E+02  0.19999973462E+02 0.  0.
         12    1    3    3    0    0 -0.42487279622E+01 -0.41669811683E+02  0.11366568702E+02  0.43400734776E+02  0.00000000000E+00 0. -1.
         11    1    4    4    0    0  0.23614737719E+01  0.23328034394E+01 -0.15249805144E+01  0.36529571710E+01  0.51100000000E-03 0. -1.
        -11    1    4    4    0    0  0.85032804768E+01  0.19199655664E+02 -0.92077880442E+01  0.22928495751E+02  0.51100000000E-03 0.  1.
         12    1    4    4    0    0 -0.66160262866E+01  0.20137352580E+02 -0.63380014379E+00  0.21205812302E+02  0.00000000000E+00 0. -1.
</event>
<event>
 8    1  0.5542925E-011  0.9118800E+02  0.7816164E-02  0.1184000E+00
        -11   -1    0    0    0    0  0.00000000000E+00  0.00000000000E+00  0.45593999997E+02  0.45594000000E+02  0.51100000000E-03 0. -1.
         11   -1    0    0    0    0 -0.00000000000E+00 -0.00000000000E+00 -0.45593999997E+02  0.45594000000E+02  0.51100000000E-03 0.  1.
         23    2    1    2    0    0  0.00000000000E+00  0.00000000000E+00  0.00000000000E+00  0.91188000000E+02  0.91188000000E+02 0.  0.
    9900012    2    3    3    0    0 -0.31406480309E+02 -0.61177118362E+01 -0.29322850503E+02  0.47787274602E+02  0.20000016218E+02 0.  0.
         12    1    3    3    0    0  0.31406480309E+02  0.61177118362E+01  0.29322850503E+02  0.43400725398E+02  0.00000000000E+00 0. -1.
         11    1    4    4    0    0 -0.58651508210E+01 -0.24714600014E+01 -0.17705738145E+02  0.18814921530E+02  0.51100000000E-03 0. -1.
        -11    1    4    4    0    0 -0.83917688188E+01  0.14091349154E+01 -0.52223436744E+01  0.99840031467E+01  0.51100000000E-03 0.  1.
         12    1    4    4    0    0 -0.17149560669E+02 -0.50553867501E+01 -0.63947686840E+01  0.18988349924E+02  0.00000000000E+00 0. -1.
</event>
<event>
 8    1  0.5542925E-011  0.9118800E+02  0.7816164E-02  0.1184000E+00
        -11   -1    0    0    0    0  0.00000000000E+00  0.00000000000E+00  0.45593999997E+02  0.45594000000E+02  0.51100000000E-03 0. -1.
         11   -1    0    0    0    0 -0.00000000000E+00 -0.00000000000E+00 -0.45593999997E+02  0.45594000000E+02  0.51100000000E-03 0.  1.
         23    2    1    2    0    0  0.00000000000E+00  0.00000000000E+00  0.71054273576E-14  0.91188000000E+02  0.91188000000E+02 0.  0.
    9900012    2    3    3    0    0  0.56801527607E+01 -0.12056552182E+02 -0.41303738521E+02  0.47787269571E+02  0.19999993283E+02 0.  0.
         12    1    3    3    0    0 -0.56801527607E+01  0.12056552182E+02  0.41303738521E+02  0.43400730429E+02  0.00000000000E+00 0. -1.
         11    1    4    4    0    0 -0.19842123675E+01  0.21548421767E+01 -0.63775246481E+01  0.70180670006E+01  0.51100000000E-03 0. -1.
        -11    1    4    4    0    0 -0.12743665669E+01 -0.37675513316E+01 -0.20342899363E+02  0.20728048821E+02  0.51100000000E-03 0.  1.
        -12    1    4    4    0    0  0.89387316950E+01 -0.10443843027E+02 -0.14583314510E+02  0.20041153749E+02  0.00000000000E+00 0.  1.
</event>
<event>
 8    1  0.5542925E-011  0.9118800E+02  0.7816164E-02  0.1184000E+00
        -11   -1    0    0    0    0  0.00000000000E+00  0.00000000000E+00  0.45593999997E+02  0.45594000000E+02  0.51100000000E-03 0. -1.
         11   -1    0    0    0    0 -0.00000000000E+00 -0.00000000000E+00 -0.45593999997E+02  0.45594000000E+02  0.51100000000E-03 0.  1.
         23    2    1    2    0    0  0.00000000000E+00  0.35527136788E-14 -0.35527136788E-14  0.91188000000E+02  0.91188000000E+02 0.  0.
    9900012    2    3    3    0    0 -0.34149407496E+02  0.18007676594E+02  0.19828378564E+02  0.47787273680E+02  0.20000012016E+02 0.  0.
        -12    1    3    3    0    0  0.34149407496E+02 -0.18007676594E+02 -0.19828378564E+02  0.43400726320E+02  0.00000000000E+00 0.  1.
         11    1    4    4    0    0 -0.18925140142E+02  0.11627634312E+02  0.15753832804E+02  0.27231343290E+02  0.51100000000E-03 0. -1.
        -11    1    4    4    0    0 -0.26961174272E+01  0.67078224283E+01  0.34435472433E+01  0.80076181720E+01  0.51100000000E-03 0.  1.
         12    1    4    4    0    0 -0.12528149926E+02 -0.32778014588E+00  0.63099851714E+00  0.12548312218E+02  0.00000000000E+00 0. -1.
</event>
<event>
 8    1  0.5542925E-011  0.9118800E+02  0.7816164E-02  0.1184000E+00
        -11   -1    0    0    0    0  0.00000000000E+00  0.00000000000E+00  0.45593999997E+02  0.45594000000E+02  0.51100000000E-03 0. -1.
         11   -1    0    0    0    0 -0.00000000000E+00 -0.00000000000E+00 -0.45593999997E+02  0.45594000000E+02  0.51100000000E-03 0.  1.
         23    2    1    2    0    0  0.35527136788E-14  0.44408920985E-15  0.00000000000E+00  0.91188000000E+02  0.91188000000E+02 0.  0.
    9900012    2    3    3    0    0  0.22229070523E+02  0.27293170995E+01 -0.37175829554E+02  0.47787273610E+02  0.20000011697E+02 0.  0.
         12    1    3    3    0    0 -0.22229070523E+02 -0.27293170995E+01  0.37175829554E+02  0.43400726390E+02  0.00000000000E+00 0. -1.
         11    1    4    4    0    0  0.13126098472E+02 -0.22748992056E+01 -0.11885852016E+02  0.17853377997E+02  0.51100000000E-03 0. -1.
        -11    1    4    4    0    0  0.11342547447E+02  0.49609368790E+01 -0.15226993939E+02  0.19624617754E+02  0.51100000000E-03 0.  1.
        -12    1    4    4    0    0 -0.22395753960E+01  0.43279426082E-01 -0.10062983599E+02  0.10309277859E+02  0.00000000000E+00 0.  1.
</event>
<event>
 8    1  0.5542925E-011  0.9118800E+02  0.7816164E-02  0.1184000E+00
        -11   -1    0    0    0    0  0.00000000000E+00  0.00000000000E+00  0.45593999997E+02  0.45594000000E+02  0.51100000000E-03 0. -1.
         11   -1    0    0    0    0 -0.00000000000E+00 -0.00000000000E+00 -0.45593999997E+02  0.45594000000E+02  0.51100000000E-03 0.  1.
         23    2    1    2    0    0  0.35527136788E-14  0.00000000000E+00  0.35527136788E-14  0.91188000000E+02  0.91188000000E+02 0.  0.
    9900012    2    3    3    0    0  0.20650207038E+02  0.29531855188E+02  0.24188037607E+02  0.47787277830E+02  0.20000030939E+02 0.  0.
        -12    1    3    3    0    0 -0.20650207038E+02 -0.29531855188E+02 -0.24188037607E+02  0.43400722170E+02  0.00000000000E+00 0.  1.
         11    1    4    4    0    0  0.14400549263E+02  0.88956994269E+01  0.93082981671E+01  0.19317186710E+02  0.51100000000E-03 0. -1.
        -11    1    4    4    0    0  0.32843075071E+01  0.94468384553E+01  0.50529058936E+00  0.10014227451E+02  0.51100000000E-03 0.  1.
        -12    1    4    4    0    0  0.29653502675E+01  0.11189317306E+02  0.14374448851E+02  0.18455863669E+02  0.00000000000E+00 0.  1.
</event>
<event>
 8    1  0.5542925E-011  0.9118800E+02  0.7816164E-02  0.1184000E+00
        -11   -1    0    0    0    0  0.00000000000E+00  0.00000000000E+00  0.45593999997E+02  0.45594000000E+02  0.51100000000E-03 0.  1.
         11   -1    0    0    0    0 -0.00000000000E+00 -0.00000000000E+00 -0.45593999997E+02  0.45594000000E+02  0.51100000000E-03 0. -1.
         23    2    1    2    0    0  0.00000000000E+00 -0.17763568394E-14  0.00000000000E+00  0.91188000000E+02  0.91188000000E+02 0.  0.
    9900012    2    3    3    0    0  0.35958828661E+02 -0.12575401006E+02  0.20795336033E+02  0.47787261875E+02  0.19999958191E+02 0.  0.
         12    1    3    3    0    0 -0.35958828661E+02  0.12575401006E+02 -0.20795336033E+02  0.43400738125E+02  0.00000000000E+00 0. -1.
         11    1    4    4    0    0  0.88855382904E+01 -0.95117736510E+01  0.73621824745E+01  0.14954208764E+02  0.51100000000E-03 0. -1.
        -11    1    4    4    0    0  0.97388279490E+01 -0.63317092301E+01  0.19338545636E+01  0.11776039459E+02  0.51100000000E-03 0.  1.
         12    1    4    4    0    0  0.17334462421E+02  0.32680818754E+01  0.11499298995E+02  0.21057013652E+02  0.00000000000E+00 0. -1.
</event>
<event>
 8    1  0.5542925E-011  0.9118800E+02  0.7816164E-02  0.1184000E+00
        -11   -1    0    0    0    0  0.00000000000E+00  0.00000000000E+00  0.45593999997E+02  0.45594000000E+02  0.51100000000E-03 0. -1.
         11   -1    0    0    0    0 -0.00000000000E+00 -0.00000000000E+00 -0.45593999997E+02  0.45594000000E+02  0.51100000000E-03 0.  1.
         23    2    1    2    0    0  0.35527136788E-14  0.00000000000E+00 -0.35527136788E-14  0.91188000000E+02  0.91188000000E+02 0.  0.
    9900012    2    3    3    0    0  0.24279844917E+02 -0.22472378250E+02 -0.28091017965E+02  0.47787263328E+02  0.19999964816E+02 0.  0.
         12    1    3    3    0    0 -0.24279844917E+02  0.22472378250E+02  0.28091017965E+02  0.43400736672E+02  0.00000000000E+00 0. -1.
         11    1    4    4    0    0  0.17010244131E+02 -0.13513296920E+02 -0.10159844107E+02  0.23982911241E+02  0.51100000000E-03 0. -1.
        -11    1    4    4    0    0  0.95753186118E+01 -0.90636128062E+01 -0.16363204962E+02  0.21014049598E+02  0.51100000000E-03 0.  1.
         12    1    4    4    0    0 -0.23057178262E+01  0.10453147566E+00 -0.15679688956E+01  0.27903024891E+01  0.00000000000E+00 0. -1.
</event>
<event>
 8    1  0.5542925E-011  0.9118800E+02  0.7816164E-02  0.1184000E+00
        -11   -1    0    0    0    0  0.00000000000E+00  0.00000000000E+00  0.45593999997E+02  0.45594000000E+02  0.51100000000E-03 0. -1.
         11   -1    0    0    0    0 -0.00000000000E+00 -0.00000000000E+00 -0.45593999997E+02  0.45594000000E+02  0.51100000000E-03 0.  1.
         23    2    1    2    0    0 -0.71054273576E-14  0.00000000000E+00  0.00000000000E+00  0.91188000000E+02  0.91188000000E+02 0.  0.
    9900012    2    3    3    0    0 -0.33516694778E+02  0.20562048077E+02  0.18369988897E+02  0.47787272563E+02  0.20000006925E+02 0.  0.
        -12    1    3    3    0    0  0.33516694778E+02 -0.20562048077E+02 -0.18369988897E+02  0.43400727437E+02  0.00000000000E+00 0.  1.
         11    1    4    4    0    0 -0.11424881407E+02  0.12177499528E+02  0.30024321311E+01  0.16965671484E+02  0.51100000000E-03 0. -1.
        -11    1    4    4    0    0 -0.17032833955E+02  0.51613925494E+01  0.44199106358E+01  0.18338293701E+02  0.51100000000E-03 0.  1.
        -12    1    4    4    0    0 -0.50589794162E+01  0.32231559994E+01  0.10947646130E+02  0.12483307379E+02  0.00000000000E+00 0.  1.
</event>
<event>
 8    1  0.5542925E-011  0.9118800E+02  0.7816164E-02  0.1184000E+00
        -11   -1    0    0    0    0  0.00000000000E+00  0.00000000000E+00  0.45593999997E+02  0.45594000000E+02  0.51100000000E-03 0. -1.
         11   -1    0    0    0    0 -0.00000000000E+00 -0.00000000000E+00 -0.45593999997E+02  0.45594000000E+02  0.51100000000E-03 0.  1.
         23    2    1    2    0    0  0.00000000000E+00 -0.17763568394E-14  0.00000000000E+00  0.91188000000E+02  0.91188000000E+02 0.  0.
    9900012    2    3    3    0    0 -0.39356018177E+02 -0.15614491267E+02 -0.95349289042E+01  0.47787269896E+02  0.19999994766E+02 0.  0.
         12    1    3    3    0    0  0.39356018177E+02  0.15614491267E+02  0.95349289042E+01  0.43400730104E+02  0.00000000000E+00 0. -1.
         11    1    4    4    0    0 -0.33534580417E+02 -0.14161312741E+02 -0.28066958608E+01  0.36510113725E+02  0.51100000000E-03 0.  1.
        -11    1    4    4    0    0 -0.11158059289E+01 -0.16972963928E+01  0.97031033551E+00  0.22510753707E+01  0.51100000000E-03 0. -1.
        -12    1    4    4    0    0 -0.47056318312E+01  0.24411786633E+00 -0.76985433789E+01  0.90260808007E+01  0.00000000000E+00 0.  1.
</event>
<event>
 8    1  0.5542925E-011  0.9118800E+02  0.7816164E-02  0.1184000E+00
        -11   -1    0    0    0    0  0.00000000000E+00  0.00000000000E+00  0.45593999997E+02  0.45594000000E+02  0.51100000000E-03 0. -1.
         11   -1    0    0    0    0 -0.00000000000E+00 -0.00000000000E+00 -0.45593999997E+02  0.45594000000E+02  0.51100000000E-03 0.  1.
         23    2    1    2    0    0 -0.17763568394E-14 -0.35527136788E-14  0.00000000000E+00  0.91188000000E+02  0.91188000000E+02 0.  0.
    9900012    2    3    3    0    0 -0.14443803915E+02 -0.31177086789E+02  0.26513936488E+02  0.47787273736E+02  0.20000012271E+02 0.  0.
        -12    1    3    3    0    0  0.14443803915E+02  0.31177086789E+02 -0.26513936488E+02  0.43400726264E+02  0.00000000000E+00 0.  1.
         11    1    4    4    0    0 -0.34948358932E+01 -0.57130627738E+01  0.58721192535E+01  0.89070056117E+01  0.51100000000E-03 0. -1.
        -11    1    4    4    0    0 -0.37841376090E+01 -0.40875701439E+01  0.14470592107E+02  0.15505675197E+02  0.51100000000E-03 0.  1.
         12    1    4    4    0    0 -0.71648304125E+01 -0.21376453871E+02  0.61712251282E+01  0.23374592927E+02  0.00000000000E+00 0. -1.
</event>
<event>
 8    1  0.5542925E-011  0.9118800E+02  0.7816164E-02  0.1184000E+00
        -11   -1    0    0    0    0  0.00000000000E+00  0.00000000000E+00  0.45593999997E+02  0.45594000000E+02  0.51100000000E-03 0. -1.
         11   -1    0    0    0    0 -0.00000000000E+00 -0.00000000000E+00 -0.45593999997E+02  0.45594000000E+02  0.51100000000E-03 0.  1.
         23    2    1    2    0    0  0.35527136788E-14 -0.33306690739E-15  0.71054273576E-14  0.91188000000E+02  0.91188000000E+02 0.  0.
    9900012    2    3    3    0    0  0.20076317311E+02  0.68328476256E+00  0.38472029025E+02  0.47787280972E+02  0.20000045264E+02 0.  0.
        -12    1    3    3    0    0 -0.20076317311E+02 -0.68328476256E+00 -0.38472029025E+02  0.43400719028E+02  0.00000000000E+00 0.  1.
         11    1    4    4    0    0  0.11153230994E+02  0.25287052943E-01  0.18787648438E+02  0.21848819994E+02  0.51100000000E-03 0. -1.
        -11    1    4    4    0    0  0.56144159740E+01  0.72429910238E+01  0.82248665673E+01  0.12313854637E+02  0.51100000000E-03 0.  1.
        -12    1    4    4    0    0  0.33086703428E+01 -0.65849933142E+01  0.11459514020E+02  0.13624606342E+02  0.00000000000E+00 0.  1.
</event>
<event>
 8    1  0.5542925E-011  0.9118800E+02  0.7816164E-02  0.1184000E+00
        -11   -1    0    0    0    0  0.00000000000E+00  0.00000000000E+00  0.45593999997E+02  0.45594000000E+02  0.51100000000E-03 0. -1.
         11   -1    0    0    0    0 -0.00000000000E+00 -0.00000000000E+00 -0.45593999997E+02  0.45594000000E+02  0.51100000000E-03 0.  1.
         23    2    1    2    0    0  0.71054273576E-14  0.00000000000E+00  0.00000000000E+00  0.91188000000E+02  0.91188000000E+02 0.  0.
    9900012    2    3    3    0    0 -0.37840813092E+02 -0.19434922287E+02 -0.86011693607E+01  0.47787268968E+02  0.19999990531E+02 0.  0.
         12    1    3    3    0    0  0.37840813092E+02  0.19434922287E+02  0.86011693607E+01  0.43400731032E+02  0.00000000000E+00 0. -1.
         11    1    4    4    0    0 -0.20371253770E+02 -0.82334908558E+01  0.30630987790E+01  0.22184700273E+02  0.51100000000E-03 0. -1.
        -11    1    4    4    0    0 -0.11958850579E+02 -0.56115306440E+01 -0.23424506873E+01  0.13416052281E+02  0.51100000000E-03 0.  1.
        -12    1    4    4    0    0 -0.55107087433E+01 -0.55899007876E+01 -0.93218174524E+01  0.12186516413E+02  0.00000000000E+00 0.  1.
</event>
<event>
 8    1  0.5542925E-011  0.9118800E+02  0.7816164E-02  0.1184000E+00
        -11   -1    0    0    0    0  0.00000000000E+00  0.00000000000E+00  0.45593999997E+02  0.45594000000E+02  0.51100000000E-03 0. -1.
         11   -1    0    0    0    0 -0.00000000000E+00 -0.00000000000E+00 -0.45593999997E+02  0.45594000000E+02  0.51100000000E-03 0.  1.
         23    2    1    2    0    0 -0.35527136788E-14  0.71054273576E-14  0.00000000000E+00  0.91188000000E+02  0.91188000000E+02 0.  0.
    9900012    2    3    3    0    0 -0.16668332830E+02 -0.32912468881E+02  0.22859484621E+02  0.47787309173E+02  0.20000173841E+02 0.  0.
        -12    1    3    3    0    0  0.16668332830E+02  0.32912468881E+02 -0.22859484621E+02  0.43400690827E+02  0.00000000000E+00 0.  1.
         11    1    4    4    0    0  0.26673165405E+01 -0.95986431651E+00  0.35712779844E+01  0.45595990763E+01  0.51100000000E-03 0. -1.
        -11    1    4    4    0    0 -0.93223461906E+01 -0.76519357510E+01  0.87985265752E+01  0.14928909183E+02  0.51100000000E-03 0.  1.
         12    1    4    4    0    0 -0.10013303180E+02 -0.24300668814E+02  0.10489680061E+02  0.28298800914E+02  0.00000000000E+00 0. -1.
</event>
<event>
 8    1  0.5542925E-011  0.9118800E+02  0.7816164E-02  0.1184000E+00
        -11   -1    0    0    0    0  0.00000000000E+00  0.00000000000E+00  0.45593999997E+02  0.45594000000E+02  0.51100000000E-03 0. -1.
         11   -1    0    0    0    0 -0.00000000000E+00 -0.00000000000E+00 -0.45593999997E+02  0.45594000000E+02  0.51100000000E-03 0.  1.
         23    2    1    2    0    0  0.00000000000E+00  0.35527136788E-14  0.00000000000E+00  0.91188000000E+02  0.91188000000E+02 0.  0.
    9900012    2    3    3    0    0  0.43336440189E+01 -0.23559678623E+02 -0.36190937617E+02  0.47787275433E+02  0.20000020009E+02 0.  0.
         12    1    3    3    0    0 -0.43336440189E+01  0.23559678623E+02  0.36190937617E+02  0.43400724567E+02  0.00000000000E+00 0. -1.
         11    1    4    4    0    0  0.38645244223E+01 -0.92856105413E+01 -0.13964690211E+02  0.17209581200E+02  0.51100000000E-03 0. -1.
        -11    1    4    4    0    0  0.54817912286E+01 -0.34932592387E+01 -0.14805874753E+01  0.66667109368E+01  0.51100000000E-03 0.  1.
         12    1    4    4    0    0 -0.50126716319E+01 -0.10780808843E+02 -0.20745659931E+02  0.23910983296E+02  0.00000000000E+00 0. -1.
</event>
<event>
 8    1  0.5542925E-011  0.9118800E+02  0.7816164E-02  0.1184000E+00
        -11   -1    0    0    0    0  0.00000000000E+00  0.00000000000E+00  0.45593999997E+02  0.45594000000E+02  0.51100000000E-03 0.  1.
         11   -1    0    0    0    0 -0.00000000000E+00 -0.00000000000E+00 -0.45593999997E+02  0.45594000000E+02  0.51100000000E-03 0. -1.
         23    2    1    2    0    0  0.88817841970E-15  0.00000000000E+00  0.00000000000E+00  0.91188000000E+02  0.91188000000E+02 0.  0.
    9900012    2    3    3    0    0  0.49838630060E+01 -0.39604508295E+02 -0.17037221491E+02  0.47787275537E+02  0.20000020484E+02 0.  0.
        -12    1    3    3    0    0 -0.49838630060E+01  0.39604508295E+02  0.17037221491E+02  0.43400724463E+02  0.00000000000E+00 0.  1.
         11    1    4    4    0    0 -0.57493264563E+01 -0.15146540684E+02 -0.38503141592E+01  0.16652248160E+02  0.51100000000E-03 0.  1.
        -11    1    4    4    0    0  0.34339957138E+00 -0.73672627047E+01 -0.37978939620E+00  0.73850337354E+01  0.51100000000E-03 0. -1.
        -12    1    4    4    0    0  0.10389789891E+02 -0.17090704906E+02 -0.12807117936E+02  0.23749993642E+02  0.00000000000E+00 0.  1.
</event>
<event>
 8    1  0.5542925E-011  0.9118800E+02  0.7816164E-02  0.1184000E+00
        -11   -1    0    0    0    0  0.00000000000E+00  0.00000000000E+00  0.45593999997E+02  0.45594000000E+02  0.51100000000E-03 0.  1.
         11   -1    0    0    0    0 -0.00000000000E+00 -0.00000000000E+00 -0.45593999997E+02  0.45594000000E+02  0.51100000000E-03 0. -1.
         23    2    1    2    0    0 -0.17763568394E-14  0.71054273576E-14  0.00000000000E+00  0.91188000000E+02  0.91188000000E+02 0.  0.
    9900012    2    3    3    0    0  0.14122917500E+02 -0.37141958185E+02 -0.17453978332E+02  0.47787271709E+02  0.20000003031E+02 0.  0.
         12    1    3    3    0    0 -0.14122917500E+02  0.37141958185E+02  0.17453978332E+02  0.43400728291E+02  0.00000000000E+00 0. -1.
         11    1    4    4    0    0 -0.29001445869E+01 -0.99450261627E+01 -0.30575834336E+01  0.10801074054E+02  0.51100000000E-03 0. -1.
        -11    1    4    4    0    0 -0.14235944704E+01 -0.40553844071E+00 -0.19353112485E+00  0.14928285905E+01  0.51100000000E-03 0.  1.
        -12    1    4    4    0    0  0.18446656557E+02 -0.26791393582E+02 -0.14202863774E+02  0.35493369065E+02  0.00000000000E+00 0.  1.
</event>
<event>
 8    1  0.5542925E-011  0.9118800E+02  0.7816164E-02  0.1184000E+00
        -11   -1    0    0    0    0  0.00000000000E+00  0.00000000000E+00  0.45593999997E+02  0.45594000000E+02  0.51100000000E-03 0. -1.
         11   -1    0    0    0    0 -0.00000000000E+00 -0.00000000000E+00 -0.45593999997E+02  0.45594000000E+02  0.51100000000E-03 0.  1.
         23    2    1    2    0    0  0.17763568394E-14 -0.35527136788E-14  0.71054273576E-14  0.91188000000E+02  0.91188000000E+02 0.  0.
    9900012    2    3    3    0    0  0.13186590064E+02 -0.12284082761E+02  0.39482126328E+02  0.47787272515E+02  0.20000006707E+02 0.  0.
        -12    1    3    3    0    0 -0.13186590064E+02  0.12284082761E+02 -0.39482126328E+02  0.43400727485E+02  0.00000000000E+00 0.  1.
         11    1    4    4    0    0  0.12467004815E+02 -0.11132340952E+02  0.29184712012E+02  0.33631869404E+02  0.51100000000E-03 0. -1.
        -11    1    4    4    0    0  0.81773146686E+00 -0.53831434524E+01  0.63878064933E+01  0.83935088157E+01  0.51100000000E-03 0.  1.
        -12    1    4    4    0    0 -0.98146217640E-01  0.42314016433E+01  0.39096078231E+01  0.57618942960E+01  0.00000000000E+00 0.  1.
</event>
<event>
 8    1  0.5542925E-011  0.9118800E+02  0.7816164E-02  0.1184000E+00
        -11   -1    0    0    0    0  0.00000000000E+00  0.00000000000E+00  0.45593999997E+02  0.45594000000E+02  0.51100000000E-03 0. -1.
         11   -1    0    0    0    0 -0.00000000000E+00 -0.00000000000E+00 -0.45593999997E+02  0.45594000000E+02  0.51100000000E-03 0.  1.
         23    2    1    2    0    0  0.00000000000E+00 -0.17763568394E-14  0.00000000000E+00  0.91188000000E+02  0.91188000000E+02 0.  0.
    9900012    2    3    3    0    0 -0.20549915648E+02  0.14757609637E+02 -0.35263854328E+02  0.47787245429E+02  0.19999883207E+02 0.  0.
         12    1    3    3    0    0  0.20549915648E+02 -0.14757609637E+02  0.35263854328E+02  0.43400754571E+02  0.00000000000E+00 0. -1.
         11    1    4    4    0    0 -0.19792162352E+01  0.88451418998E+01 -0.65922547728E+01  0.11207660567E+02  0.51100000000E-03 0. -1.
        -11    1    4    4    0    0 -0.49208347878E+01 -0.50272893737E-02 -0.79938179223E+00  0.49853436986E+01  0.51100000000E-03 0.  1.
        -12    1    4    4    0    0 -0.13649864625E+02  0.59174950265E+01 -0.27872217763E+02  0.31594241163E+02  0.00000000000E+00 0.  1.
</event>
<event>
 8    1  0.6114095E-011  0.9118800E+02  0.7816164E-02  0.1184000E+00
        -11   -1    0    0    0    0  0.00000000000E+00  0.00000000000E+00  0.45593999997E+02  0.45594000000E+02  0.51100000000E-03 0. -1.
         11   -1    0    0    0    0 -0.00000000000E+00 -0.00000000000E+00 -0.45593999997E+02  0.45594000000E+02  0.51100000000E-03 0.  1.
         23    2    1    2    0    0  0.00000000000E+00  0.00000000000E+00  0.00000000000E+00  0.91188000000E+02  0.91188000000E+02 0.  0.
    9900012    2    3    3    0    0  0.96103622545E+00  0.11483841829E+02  0.41842812842E+02  0.47787271892E+02  0.20000003865E+02 0.  0.
        -12    1    3    3    0    0 -0.96103622545E+00 -0.11483841829E+02 -0.41842812842E+02  0.43400728108E+02  0.00000000000E+00 0.  1.
         11    1    4    4    0    0  0.29475924418E+01  0.62475876498E+01  0.27555449572E+02  0.28408158230E+02  0.51100000000E-03 0. -1.
        -11    1    4    4    0    0  0.27424640855E+01 -0.30201393301E+00 -0.58413690118E+00  0.28202017404E+01  0.51100000000E-03 0.  1.
         12    1    4    4    0    0 -0.47290203018E+01  0.55382681123E+01  0.14871500171E+02  0.16558911922E+02  0.00000000000E+00 0. -1.
</event>
<event>
 8    1  0.5542925E-011  0.9118800E+02  0.7816164E-02  0.1184000E+00
        -11   -1    0    0    0    0  0.00000000000E+00  0.00000000000E+00  0.45593999997E+02  0.45594000000E+02  0.51100000000E-03 0. -1.
         11   -1    0    0    0    0 -0.00000000000E+00 -0.00000000000E+00 -0.45593999997E+02  0.45594000000E+02  0.51100000000E-03 0.  1.
         23    2    1    2    0    0 -0.71054273576E-14 -0.17763568394E-14 -0.35527136788E-14  0.91188000000E+02  0.91188000000E+02 0.  0.
    9900012    2    3    3    0    0  0.35943365304E+02  0.11948338762E+02  0.21188089443E+02  0.47787269098E+02  0.19999991128E+02 0.  0.
        -12    1    3    3    0    0 -0.35943365304E+02 -0.11948338762E+02 -0.21188089443E+02  0.43400730902E+02  0.00000000000E+00 0.  1.
         11    1    4    4    0    0  0.15858046879E+02  0.14466845658E+01  0.61956602613E+01  0.17086742036E+02  0.51100000000E-03 0. -1.
        -11    1    4    4    0    0  0.11887602585E+02  0.97292923829E+00  0.13544587594E+02  0.18047646380E+02  0.51100000000E-03 0.  1.
        -12    1    4    4    0    0  0.81977158390E+01  0.95287249578E+01  0.14478415884E+01  0.12652880682E+02  0.00000000000E+00 0.  1.
</event>
<event>
 8    1  0.5542925E-011  0.9118800E+02  0.7816164E-02  0.1184000E+00
        -11   -1    0    0    0    0  0.00000000000E+00  0.00000000000E+00  0.45593999997E+02  0.45594000000E+02  0.51100000000E-03 0. -1.
         11   -1    0    0    0    0 -0.00000000000E+00 -0.00000000000E+00 -0.45593999997E+02  0.45594000000E+02  0.51100000000E-03 0.  1.
         23    2    1    2    0    0  0.88817841970E-15  0.00000000000E+00  0.00000000000E+00  0.91188000000E+02  0.91188000000E+02 0.  0.
    9900012    2    3    3    0    0 -0.72003858922E+01  0.19896715892E+02 -0.37893252148E+02  0.47787269377E+02  0.19999992395E+02 0.  0.
         12    1    3    3    0    0  0.72003858922E+01 -0.19896715892E+02  0.37893252148E+02  0.43400730623E+02  0.00000000000E+00 0. -1.
         11    1    4    4    0    0 -0.19654970455E+01  0.25048565480E+01 -0.41481357406E+00  0.32108496577E+01  0.51100000000E-03 0. -1.
        -11    1    4    4    0    0 -0.37669706066E+01  0.36408464696E+01 -0.70185731466E+00  0.52856820296E+01  0.51100000000E-03 0.  1.
        -12    1    4    4    0    0 -0.14679182401E+01  0.13751012875E+02 -0.36776581259E+02  0.39290737689E+02  0.00000000000E+00 0.  1.
</event>
<event>
 8    1  0.5542925E-011  0.9118800E+02  0.7816164E-02  0.1184000E+00
        -11   -1    0    0    0    0  0.00000000000E+00  0.00000000000E+00  0.45593999997E+02  0.45594000000E+02  0.51100000000E-03 0.  1.
         11   -1    0    0    0    0 -0.00000000000E+00 -0.00000000000E+00 -0.45593999997E+02  0.45594000000E+02  0.51100000000E-03 0. -1.
         23    2    1    2    0    0  0.00000000000E+00 -0.88817841970E-15  0.00000000000E+00  0.91188000000E+02  0.91188000000E+02 0.  0.
    9900012    2    3    3    0    0 -0.40225354600E+02 -0.52879233921E+01 -0.15413691690E+02  0.47787272149E+02  0.20000005036E+02 0.  0.
         12    1    3    3    0    0  0.40225354600E+02  0.52879233921E+01  0.15413691690E+02  0.43400727851E+02  0.00000000000E+00 0. -1.
         11    1    4    4    0    0 -0.10234884170E+02  0.19616146587E+01 -0.25591092010E+01  0.10730788703E+02  0.51100000000E-03 0.  1.
        -11    1    4    4    0    0  0.12311723942E+01 -0.49292103465E+00  0.15283171650E+01  0.20234896166E+01  0.51100000000E-03 0. -1.
         12    1    4    4    0    0 -0.31221642824E+02 -0.67566170162E+01 -0.14382899654E+02  0.35032993829E+02  0.00000000000E+00 0. -1.
</event>
<event>
 8    1  0.5542925E-011  0.9118800E+02  0.7816164E-02  0.1184000E+00
        -11   -1    0    0    0    0  0.00000000000E+00  0.00000000000E+00  0.45593999997E+02  0.45594000000E+02  0.51100000000E-03 0. -1.
         11   -1    0    0    0    0 -0.00000000000E+00 -0.00000000000E+00 -0.45593999997E+02  0.45594000000E+02  0.51100000000E-03 0.  1.
         23    2    1    2    0    0  0.00000000000E+00  0.00000000000E+00  0.00000000000E+00  0.91188000000E+02  0.91188000000E+02 0.  0.
    9900012    2    3    3    0    0 -0.21223695393E+02 -0.20073548574E+02 -0.32097206596E+02  0.47787271091E+02  0.20000000214E+02 0.  0.
         12    1    3    3    0    0  0.21223695393E+02  0.20073548574E+02  0.32097206596E+02  0.43400728909E+02  0.00000000000E+00 0. -1.
         11    1    4    4    0    0 -0.40749038219E+01 -0.25407736367E+01 -0.13440086985E+02  0.14272221630E+02  0.51100000000E-03 0. -1.
        -11    1    4    4    0    0  0.20156278018E+01 -0.31768575871E+01 -0.14657990435E+01  0.40377898238E+01  0.51100000000E-03 0.  1.
        -12    1    4    4    0    0 -0.19164419373E+02 -0.14355917350E+02 -0.17191320568E+02  0.29477259638E+02  0.00000000000E+00 0.  1.
</event>
<event>
 8    1  0.5542925E-011  0.9118800E+02  0.7816164E-02  0.1184000E+00
        -11   -1    0    0    0    0  0.00000000000E+00  0.00000000000E+00  0.45593999997E+02  0.45594000000E+02  0.51100000000E-03 0. -1.
         11   -1    0    0    0    0 -0.00000000000E+00 -0.00000000000E+00 -0.45593999997E+02  0.45594000000E+02  0.51100000000E-03 0.  1.
         23    2    1    2    0    0 -0.88817841970E-15  0.17763568394E-14  0.00000000000E+00  0.91188000000E+02  0.91188000000E+02 0.  0.
    9900012    2    3    3    0    0 -0.50456939583E+01  0.11530889933E+02 -0.41535560990E+02  0.47787271009E+02  0.19999999840E+02 0.  0.
         12    1    3    3    0    0  0.50456939583E+01 -0.11530889933E+02  0.41535560990E+02  0.43400728991E+02  0.00000000000E+00 0. -1.
         11    1    4    4    0    0 -0.51397952476E+01  0.38806697011E+01 -0.51123981143E+01  0.82227554540E+01  0.51100000000E-03 0. -1.
        -11    1    4    4    0    0 -0.65129425629E+01  0.53106853566E+01 -0.21220581014E+02  0.22823997429E+02  0.51100000000E-03 0.  1.
        -12    1    4    4    0    0  0.66070438522E+01  0.23395348752E+01 -0.15202581861E+02  0.16740518127E+02  0.00000000000E+00 0.  1.
</event>
<event>
 8    1  0.5542925E-011  0.9118800E+02  0.7816164E-02  0.1184000E+00
        -11   -1    0    0    0    0  0.00000000000E+00  0.00000000000E+00  0.45593999997E+02  0.45594000000E+02  0.51100000000E-03 0. -1.
         11   -1    0    0    0    0 -0.00000000000E+00 -0.00000000000E+00 -0.45593999997E+02  0.45594000000E+02  0.51100000000E-03 0.  1.
         23    2    1    2    0    0 -0.35527136788E-14  0.00000000000E+00  0.00000000000E+00  0.91188000000E+02  0.91188000000E+02 0.  0.
    9900012    2    3    3    0    0 -0.24148652148E+02  0.11448088040E+02  0.34196558051E+02  0.47787300664E+02  0.20000135047E+02 0.  0.
        -12    1    3    3    0    0  0.24148652148E+02 -0.11448088040E+02 -0.34196558051E+02  0.43400699336E+02  0.00000000000E+00 0.  1.
         11    1    4    4    0    0 -0.66891689278E+01  0.15774689936E+00  0.85764035338E+01  0.10877709449E+02  0.51100000000E-03 0. -1.
        -11    1    4    4    0    0 -0.94695978581E+01  0.11407990703E+02  0.65030675250E+01  0.16189670255E+02  0.51100000000E-03 0.  1.
         12    1    4    4    0    0 -0.79898853623E+01 -0.11764956242E+00  0.19117086992E+02  0.20719920960E+02  0.00000000000E+00 0. -1.
</event>
<event>
 8    1  0.5542925E-011  0.9118800E+02  0.7816164E-02  0.1184000E+00
        -11   -1    0    0    0    0  0.00000000000E+00  0.00000000000E+00  0.45593999997E+02  0.45594000000E+02  0.51100000000E-03 0. -1.
         11   -1    0    0    0    0 -0.00000000000E+00 -0.00000000000E+00 -0.45593999997E+02  0.45594000000E+02  0.51100000000E-03 0.  1.
         23    2    1    2    0    0  0.00000000000E+00  0.00000000000E+00  0.00000000000E+00  0.91188000000E+02  0.91188000000E+02 0.  0.
    9900012    2    3    3    0    0 -0.25951537377E+02 -0.15907632953E+02  0.30936841597E+02  0.47787271361E+02  0.20000001444E+02 0.  0.
        -12    1    3    3    0    0  0.25951537377E+02  0.15907632953E+02 -0.30936841597E+02  0.43400728639E+02  0.00000000000E+00 0.  1.
         11    1    4    4    0    0 -0.13515420349E+02 -0.40890720288E+01  0.13475513363E+02  0.19518620800E+02  0.51100000000E-03 0. -1.
        -11    1    4    4    0    0 -0.62826088427E+01 -0.23026250945E+01  0.15345126036E+02  0.16740554038E+02  0.51100000000E-03 0.  1.
         12    1    4    4    0    0 -0.61535081848E+01 -0.95159358298E+01  0.21162021983E+01  0.11528096523E+02  0.00000000000E+00 0. -1.
</event>
<event>
 8    1  0.5542925E-011  0.9118800E+02  0.7816164E-02  0.1184000E+00
        -11   -1    0    0    0    0  0.00000000000E+00  0.00000000000E+00  0.45593999997E+02  0.45594000000E+02  0.51100000000E-03 0.  1.
         11   -1    0    0    0    0 -0.00000000000E+00 -0.00000000000E+00 -0.45593999997E+02  0.45594000000E+02  0.51100000000E-03 0. -1.
         23    2    1    2    0    0  0.00000000000E+00  0.00000000000E+00  0.00000000000E+00  0.91188000000E+02  0.91188000000E+02 0.  0.
    9900012    2    3    3    0    0 -0.23577669087E+02 -0.27908669392E+02  0.23426979499E+02  0.47787266420E+02  0.19999978915E+02 0.  0.
        -12    1    3    3    0    0  0.23577669087E+02  0.27908669392E+02 -0.23426979499E+02  0.43400733580E+02  0.00000000000E+00 0.  1.
         11    1    4    4    0    0 -0.10359844598E+01 -0.13736717683E+01 -0.13400614238E+01  0.21808261757E+01  0.51100000000E-03 0. -1.
        -11    1    4    4    0    0 -0.33639599422E+01 -0.15839270321E+02  0.85714003542E+01  0.18321233995E+02  0.51100000000E-03 0.  1.
         12    1    4    4    0    0 -0.19177724686E+02 -0.10695727302E+02  0.16195640569E+02  0.27285206249E+02  0.00000000000E+00 0. -1.
</event>
<event>
 8    1  0.5542925E-011  0.9118800E+02  0.7816164E-02  0.1184000E+00
        -11   -1    0    0    0    0  0.00000000000E+00  0.00000000000E+00  0.45593999997E+02  0.45594000000E+02  0.51100000000E-03 0. -1.
         11   -1    0    0    0    0 -0.00000000000E+00 -0.00000000000E+00 -0.45593999997E+02  0.45594000000E+02  0.51100000000E-03 0.  1.
         23    2    1    2    0    0  0.00000000000E+00  0.00000000000E+00  0.00000000000E+00  0.91188000000E+02  0.91188000000E+02 0.  0.
    9900012    2    3    3    0    0  0.69672874013E+01  0.20722597249E+02  0.37492054041E+02  0.47787271358E+02  0.20000001428E+02 0.  0.
        -12    1    3    3    0    0 -0.69672874013E+01 -0.20722597249E+02 -0.37492054041E+02  0.43400728642E+02  0.00000000000E+00 0.  1.
         11    1    4    4    0    0  0.24383408393E+01 -0.29366593844E+01  0.13184281475E+01  0.40382827328E+01  0.51100000000E-03 0. -1.
        -11    1    4    4    0    0  0.96074436459E+00  0.46692767342E+00  0.23660028120E+01  0.25959623945E+01  0.51100000000E-03 0.  1.
        -12    1    4    4    0    0  0.35682021973E+01  0.23192328960E+02  0.33807623081E+02  0.41153026230E+02  0.00000000000E+00 0.  1.
</event>
<event>
 8    1  0.5542925E-011  0.9118800E+02  0.7816164E-02  0.1184000E+00
        -11   -1    0    0    0    0  0.00000000000E+00  0.00000000000E+00  0.45593999997E+02  0.45594000000E+02  0.51100000000E-03 0. -1.
         11   -1    0    0    0    0 -0.00000000000E+00 -0.00000000000E+00 -0.45593999997E+02  0.45594000000E+02  0.51100000000E-03 0.  1.
         23    2    1    2    0    0  0.22204460493E-15  0.00000000000E+00  0.00000000000E+00  0.91188000000E+02  0.91188000000E+02 0.  0.
    9900012    2    3    3    0    0 -0.16255017469E+01 -0.97236632050E+01 -0.42266192991E+02  0.47787274752E+02  0.20000016905E+02 0.  0.
         12    1    3    3    0    0  0.16255017469E+01  0.97236632050E+01  0.42266192991E+02  0.43400725248E+02  0.00000000000E+00 0. -1.
         11    1    4    4    0    0  0.17219291458E+01 -0.26108453553E+01 -0.16659344781E+02  0.16950378233E+02  0.51100000000E-03 0. -1.
        -11    1    4    4    0    0  0.91573258417E+00 -0.10852495217E+02 -0.12644231262E+02  0.16688073678E+02  0.51100000000E-03 0.  1.
         12    1    4    4    0    0 -0.42631634769E+01  0.37396773675E+01 -0.12962616948E+02  0.14148822841E+02  0.00000000000E+00 0. -1.
</event>
<event>
 8    1  0.5542925E-011  0.9118800E+02  0.7816164E-02  0.1184000E+00
        -11   -1    0    0    0    0  0.00000000000E+00  0.00000000000E+00  0.45593999997E+02  0.45594000000E+02  0.51100000000E-03 0. -1.
         11   -1    0    0    0    0 -0.00000000000E+00 -0.00000000000E+00 -0.45593999997E+02  0.45594000000E+02  0.51100000000E-03 0.  1.
         23    2    1    2    0    0  0.00000000000E+00  0.71054273576E-14  0.00000000000E+00  0.91188000000E+02  0.91188000000E+02 0.  0.
    9900012    2    3    3    0    0 -0.17016651514E+02 -0.33536946699E+02 -0.21664019363E+02  0.47787274688E+02  0.20000016611E+02 0.  0.
         12    1    3    3    0    0  0.17016651514E+02  0.33536946699E+02  0.21664019363E+02  0.43400725312E+02  0.00000000000E+00 0. -1.
         11    1    4    4    0    0 -0.30582981571E+01 -0.23684463377E-01 -0.60078453637E+01  0.67415098270E+01  0.51100000000E-03 0. -1.
        -11    1    4    4    0    0  0.45998773504E+00 -0.73424701043E+01 -0.64389206619E+01  0.97766638227E+01  0.51100000000E-03 0.  1.
        -12    1    4    4    0    0 -0.14418341092E+02 -0.26170792131E+02 -0.92172533378E+01  0.31269101038E+02  0.00000000000E+00 0.  1.
</event>
<event>
 8    1  0.5542925E-011  0.9118800E+02  0.7816164E-02  0.1184000E+00
        -11   -1    0    0    0    0  0.00000000000E+00  0.00000000000E+00  0.45593999997E+02  0.45594000000E+02  0.51100000000E-03 0. -1.
         11   -1    0    0    0    0 -0.00000000000E+00 -0.00000000000E+00 -0.45593999997E+02  0.45594000000E+02  0.51100000000E-03 0.  1.
         23    2    1    2    0    0  0.00000000000E+00 -0.17763568394E-14  0.00000000000E+00  0.91188000000E+02  0.91188000000E+02 0.  0.
    9900012    2    3    3    0    0 -0.16273118561E+02 -0.15977096237E+02  0.36926157927E+02  0.47787272688E+02  0.20000007495E+02 0.  0.
        -12    1    3    3    0    0  0.16273118561E+02  0.15977096237E+02 -0.36926157927E+02  0.43400727312E+02  0.00000000000E+00 0.  1.
         11    1    4    4    0    0 -0.18792049375E+01  0.27116513815E+01  0.26635981122E+01  0.42401909835E+01  0.51100000000E-03 0. -1.
        -11    1    4    4    0    0 -0.90720908837E+01 -0.56767495209E+01  0.67550804702E+01  0.12655411117E+02  0.51100000000E-03 0.  1.
        -12    1    4    4    0    0 -0.53218227402E+01 -0.13011998098E+02  0.27507479345E+02  0.30891670588E+02  0.00000000000E+00 0.  1.
</event>
<event>
 8    1  0.5542925E-011  0.9118800E+02  0.7816164E-02  0.1184000E+00
        -11   -1    0    0    0    0  0.00000000000E+00  0.00000000000E+00  0.45593999997E+02  0.45594000000E+02  0.51100000000E-03 0. -1.
         11   -1    0    0    0    0 -0.00000000000E+00 -0.00000000000E+00 -0.45593999997E+02  0.45594000000E+02  0.51100000000E-03 0.  1.
         23    2    1    2    0    0 -0.35527136788E-14  0.00000000000E+00  0.71054273576E-14  0.91188000000E+02  0.91188000000E+02 0.  0.
    9900012    2    3    3    0    0 -0.22428012191E+02  0.13182683270E+02  0.34739391879E+02  0.47787260177E+02  0.19999950452E+02 0.  0.
        -12    1    3    3    0    0  0.22428012191E+02 -0.13182683270E+02 -0.34739391879E+02  0.43400739823E+02  0.00000000000E+00 0.  1.
         11    1    4    4    0    0 -0.16295806515E+02  0.13795271435E+01  0.17014229124E+02  0.23599584701E+02  0.51100000000E-03 0. -1.
        -11    1    4    4    0    0 -0.55628238087E+01  0.91389452758E+01  0.18486242342E+02  0.21358990745E+02  0.51100000000E-03 0.  1.
         12    1    4    4    0    0 -0.56938186739E+00  0.26642108505E+01 -0.76107958701E+00  0.28286847305E+01  0.00000000000E+00 0. -1.
</event>
<event>
 8    1  0.5542925E-011  0.9118800E+02  0.7816164E-02  0.1184000E+00
        -11   -1    0    0    0    0  0.00000000000E+00  0.00000000000E+00  0.45593999997E+02  0.45594000000E+02  0.51100000000E-03 0. -1.
         11   -1    0    0    0    0 -0.00000000000E+00 -0.00000000000E+00 -0.45593999997E+02  0.45594000000E+02  0.51100000000E-03 0.  1.
         23    2    1    2    0    0  0.00000000000E+00  0.00000000000E+00  0.00000000000E+00  0.91188000000E+02  0.91188000000E+02 0.  0.
    9900012    2    3    3    0    0 -0.20350908872E+02  0.32255018548E+02  0.20714225611E+02  0.47787252816E+02  0.19999916890E+02 0.  0.
        -12    1    3    3    0    0  0.20350908872E+02 -0.32255018548E+02 -0.20714225611E+02  0.43400747184E+02  0.00000000000E+00 0.  1.
         11    1    4    4    0    0  0.15183210975E+01  0.72344066017E+01 -0.13056364263E+01  0.75064388742E+01  0.51100000000E-03 0.  1.
        -11    1    4    4    0    0 -0.11321354387E+01  0.34770774089E+01  0.12166351311E+01  0.38538291688E+01  0.51100000000E-03 0. -1.
        -12    1    4    4    0    0 -0.20737094531E+02  0.21543534537E+02  0.20803226906E+02  0.36426984773E+02  0.00000000000E+00 0.  1.
</event>
<event>
 8    1  0.5542925E-011  0.9118800E+02  0.7816164E-02  0.1184000E+00
        -11   -1    0    0    0    0  0.00000000000E+00  0.00000000000E+00  0.45593999997E+02  0.45594000000E+02  0.51100000000E-03 0. -1.
         11   -1    0    0    0    0 -0.00000000000E+00 -0.00000000000E+00 -0.45593999997E+02  0.45594000000E+02  0.51100000000E-03 0.  1.
         23    2    1    2    0    0  0.44408920985E-15  0.00000000000E+00  0.00000000000E+00  0.91188000000E+02  0.91188000000E+02 0.  0.
    9900012    2    3    3    0    0 -0.27546349382E+01 -0.40798578859E+02  0.14543420724E+02  0.47787272623E+02  0.20000007196E+02 0.  0.
        -12    1    3    3    0    0  0.27546349382E+01  0.40798578859E+02 -0.14543420724E+02  0.43400727377E+02  0.00000000000E+00 0.  1.
         11    1    4    4    0    0  0.12930613966E+01 -0.15284048438E+02  0.93828823801E+01  0.17980896152E+02  0.51100000000E-03 0. -1.
        -11    1    4    4    0    0  0.33383515015E+01 -0.96964004467E+00 -0.61837650870E+00  0.35308897366E+01  0.51100000000E-03 0.  1.
        -12    1    4    4    0    0 -0.73860478363E+01 -0.24544890376E+02  0.57789148523E+01  0.26275486734E+02  0.00000000000E+00 0.  1.
</event>
<event>
 8    1  0.5542925E-011  0.9118800E+02  0.7816164E-02  0.1184000E+00
        -11   -1    0    0    0    0  0.00000000000E+00  0.00000000000E+00  0.45593999997E+02  0.45594000000E+02  0.51100000000E-03 0.  1.
         11   -1    0    0    0    0 -0.00000000000E+00 -0.00000000000E+00 -0.45593999997E+02  0.45594000000E+02  0.51100000000E-03 0. -1.
         23    2    1    2    0    0  0.00000000000E+00 -0.35527136788E-14  0.00000000000E+00  0.91188000000E+02  0.91188000000E+02 0.  0.
    9900012    2    3    3    0    0  0.50633007746E+01 -0.28975765909E+02 -0.31912233291E+02  0.47787278136E+02  0.20000032331E+02 0.  0.
         12    1    3    3    0    0 -0.50633007746E+01  0.28975765909E+02  0.31912233291E+02  0.43400721864E+02  0.00000000000E+00 0. -1.
         11    1    4    4    0    0  0.49914265345E-01 -0.16624566361E+02 -0.23441479051E+02  0.28738156491E+02  0.51100000000E-03 0. -1.
        -11    1    4    4    0    0 -0.22479785203E+01 -0.25704003374E+01 -0.55595401902E+01  0.65244810299E+01  0.51100000000E-03 0.  1.
         12    1    4    4    0    0  0.72613650296E+01 -0.97807992100E+01 -0.29112140496E+01  0.12524640615E+02  0.00000000000E+00 0. -1.
</event>
<event>
 8    1  0.5542925E-011  0.9118800E+02  0.7816164E-02  0.1184000E+00
        -11   -1    0    0    0    0  0.00000000000E+00  0.00000000000E+00  0.45593999997E+02  0.45594000000E+02  0.51100000000E-03 0. -1.
         11   -1    0    0    0    0 -0.00000000000E+00 -0.00000000000E+00 -0.45593999997E+02  0.45594000000E+02  0.51100000000E-03 0.  1.
         23    2    1    2    0    0 -0.71054273576E-14 -0.88817841970E-15  0.35527136788E-14  0.91188000000E+02  0.91188000000E+02 0.  0.
    9900012    2    3    3    0    0 -0.34564971874E+02 -0.60515288598E+01  0.25539481645E+02  0.47787269535E+02  0.19999993118E+02 0.  0.
        -12    1    3    3    0    0  0.34564971874E+02  0.60515288598E+01 -0.25539481645E+02  0.43400730465E+02  0.00000000000E+00 0.  1.
         11    1    4    4    0    0 -0.19931156639E+02  0.35336463314E+00  0.11417936598E+02  0.22972704410E+02  0.51100000000E-03 0. -1.
        -11    1    4    4    0    0 -0.13117337400E+02 -0.60653259301E+00  0.53242174023E+01  0.14169675841E+02  0.51100000000E-03 0.  1.
         12    1    4    4    0    0 -0.15164778358E+01 -0.57983609000E+01  0.87973276453E+01  0.10644889283E+02  0.00000000000E+00 0. -1.
</event>
<event>
 8    1  0.5542925E-011  0.9118800E+02  0.7816164E-02  0.1184000E+00
        -11   -1    0    0    0    0  0.00000000000E+00  0.00000000000E+00  0.45593999997E+02  0.45594000000E+02  0.51100000000E-03 0. -1.
         11   -1    0    0    0    0 -0.00000000000E+00 -0.00000000000E+00 -0.45593999997E+02  0.45594000000E+02  0.51100000000E-03 0.  1.
         23    2    1    2    0    0  0.00000000000E+00 -0.35527136788E-14  0.00000000000E+00  0.91188000000E+02  0.91188000000E+02 0.  0.
    9900012    2    3    3    0    0  0.14180414626E+02  0.22040870152E+02  0.34593906520E+02  0.47787280140E+02  0.20000041471E+02 0.  0.
        -12    1    3    3    0    0 -0.14180414626E+02 -0.22040870152E+02 -0.34593906520E+02  0.43400719860E+02  0.00000000000E+00 0.  1.
         11    1    4    4    0    0 -0.18103391151E+00 -0.16633444978E+01  0.11329870109E+02  0.11452748366E+02  0.51100000000E-03 0. -1.
        -11    1    4    4    0    0  0.23304300093E+01  0.47552810832E+01  0.29529316224E+01  0.60632835688E+01  0.51100000000E-03 0.  1.
         12    1    4    4    0    0  0.12031018528E+02  0.18948933567E+02  0.20311104788E+02  0.30271248205E+02  0.00000000000E+00 0. -1.
</event>
<event>
 8    1  0.5542925E-011  0.9118800E+02  0.7816164E-02  0.1184000E+00
        -11   -1    0    0    0    0  0.00000000000E+00  0.00000000000E+00  0.45593999997E+02  0.45594000000E+02  0.51100000000E-03 0. -1.
         11   -1    0    0    0    0 -0.00000000000E+00 -0.00000000000E+00 -0.45593999997E+02  0.45594000000E+02  0.51100000000E-03 0.  1.
         23    2    1    2    0    0  0.00000000000E+00  0.00000000000E+00  0.00000000000E+00  0.91188000000E+02  0.91188000000E+02 0.  0.
    9900012    2    3    3    0    0 -0.30474244000E+02  0.19635313419E+02  0.23862068201E+02  0.47787269830E+02  0.19999994465E+02 0.  0.
        -12    1    3    3    0    0  0.30474244000E+02 -0.19635313419E+02 -0.23862068201E+02  0.43400730170E+02  0.00000000000E+00 0.  1.
         11    1    4    4    0    0 -0.16300849589E+01  0.52210548257E+00  0.32248813692E+01  0.36509767480E+01  0.51100000000E-03 0. -1.
        -11    1    4    4    0    0 -0.42989830305E+01  0.28229811544E+01 -0.33573838256E+01  0.61418648722E+01  0.51100000000E-03 0.  1.
        -12    1    4    4    0    0 -0.24545176011E+02  0.16290226782E+02  0.23994570658E+02  0.37994428210E+02  0.00000000000E+00 0.  1.
</event>
<event>
 8    1  0.5542925E-011  0.9118800E+02  0.7816164E-02  0.1184000E+00
        -11   -1    0    0    0    0  0.00000000000E+00  0.00000000000E+00  0.45593999997E+02  0.45594000000E+02  0.51100000000E-03 0. -1.
         11   -1    0    0    0    0 -0.00000000000E+00 -0.00000000000E+00 -0.45593999997E+02  0.45594000000E+02  0.51100000000E-03 0.  1.
         23    2    1    2    0    0 -0.17763568394E-14  0.22204460493E-15  0.00000000000E+00  0.91188000000E+02  0.91188000000E+02 0.  0.
    9900012    2    3    3    0    0  0.74641151650E+01  0.11063180985E+01 -0.42739755816E+02  0.47787266340E+02  0.19999978553E+02 0.  0.
         12    1    3    3    0    0 -0.74641151650E+01 -0.11063180985E+01  0.42739755816E+02  0.43400733660E+02  0.00000000000E+00 0. -1.
         11    1    4    4    0    0  0.26938313618E+01 -0.70545100902E+01 -0.92768786978E+01  0.11961743964E+02  0.51100000000E-03 0.  1.
        -11    1    4    4    0    0  0.28468616759E+01  0.58115364956E+00 -0.23266506468E+01  0.37223197686E+01  0.51100000000E-03 0. -1.
        -12    1    4    4    0    0  0.19234221273E+01  0.75796745391E+01 -0.31136226472E+02  0.32103202608E+02  0.00000000000E+00 0.  1.
</event>
<event>
 8    1  0.5542925E-011  0.9118800E+02  0.7816164E-02  0.1184000E+00
        -11   -1    0    0    0    0  0.00000000000E+00  0.00000000000E+00  0.45593999997E+02  0.45594000000E+02  0.51100000000E-03 0.  1.
         11   -1    0    0    0    0 -0.00000000000E+00 -0.00000000000E+00 -0.45593999997E+02  0.45594000000E+02  0.51100000000E-03 0. -1.
         23    2    1    2    0    0  0.00000000000E+00  0.44408920985E-15  0.35527136788E-14  0.91188000000E+02  0.91188000000E+02 0.  0.
    9900012    2    3    3    0    0 -0.38703092213E+02  0.39388546768E+01  0.19240042271E+02  0.47787272477E+02  0.20000006529E+02 0.  0.
        -12    1    3    3    0    0  0.38703092213E+02 -0.39388546768E+01 -0.19240042271E+02  0.43400727523E+02  0.00000000000E+00 0.  1.
         11    1    4    4    0    0 -0.19387588547E+02  0.20335656304E+01  0.64359990482E+01  0.20528907980E+02  0.51100000000E-03 0. -1.
        -11    1    4    4    0    0 -0.79107449679E+01  0.47599961524E+01 -0.81321186061E+00  0.92681585608E+01  0.51100000000E-03 0.  1.
        -12    1    4    4    0    0 -0.11404758698E+02 -0.28547071059E+01  0.13617255083E+02  0.17990205936E+02  0.00000000000E+00 0.  1.
</event>
<event>
 8    1  0.5542925E-011  0.9118800E+02  0.7816164E-02  0.1184000E+00
        -11   -1    0    0    0    0  0.00000000000E+00  0.00000000000E+00  0.45593999997E+02  0.45594000000E+02  0.51100000000E-03 0. -1.
         11   -1    0    0    0    0 -0.00000000000E+00 -0.00000000000E+00 -0.45593999997E+02  0.45594000000E+02  0.51100000000E-03 0.  1.
         23    2    1    2    0    0  0.17763568394E-14  0.00000000000E+00  0.00000000000E+00  0.91188000000E+02  0.91188000000E+02 0.  0.
    9900012    2    3    3    0    0  0.15570007139E+02 -0.31567535829E+02  0.25390714839E+02  0.47787276035E+02  0.20000022754E+02 0.  0.
        -12    1    3    3    0    0 -0.15570007139E+02  0.31567535829E+02 -0.25390714839E+02  0.43400723965E+02  0.00000000000E+00 0.  1.
         11    1    4    4    0    0  0.13969936049E+01 -0.48961298664E+01 -0.17954299551E+00  0.50946947651E+01  0.51100000000E-03 0. -1.
        -11    1    4    4    0    0  0.36502986444E+01 -0.49184558081E+01 -0.16007685905E+01  0.63307462492E+01  0.51100000000E-03 0.  1.
         12    1    4    4    0    0  0.10522714890E+02 -0.21752950155E+02  0.27171026425E+02  0.36361835021E+02  0.00000000000E+00 0. -1.
</event>
<event>
 8    1  0.5542925E-011  0.9118800E+02  0.7816164E-02  0.1184000E+00
        -11   -1    0    0    0    0  0.00000000000E+00  0.00000000000E+00  0.45593999997E+02  0.45594000000E+02  0.51100000000E-03 0. -1.
         11   -1    0    0    0    0 -0.00000000000E+00 -0.00000000000E+00 -0.45593999997E+02  0.45594000000E+02  0.51100000000E-03 0.  1.
         23    2    1    2    0    0  0.00000000000E+00  0.00000000000E+00 -0.35527136788E-14  0.91188000000E+02  0.91188000000E+02 0.  0.
    9900012    2    3    3    0    0  0.91044104188E+01  0.35517562563E+02  0.23221448336E+02  0.47787271869E+02  0.20000003758E+02 0.  0.
        -12    1    3    3    0    0 -0.91044104188E+01 -0.35517562563E+02 -0.23221448336E+02  0.43400728131E+02  0.00000000000E+00 0.  1.
         11    1    4    4    0    0 -0.27132025898E+00  0.15995516889E+02  0.18657082943E+02  0.24576755673E+02  0.51100000000E-03 0. -1.
        -11    1    4    4    0    0 -0.43067595764E+00  0.42244654266E+01 -0.67422912037E+00  0.42995552199E+01  0.51100000000E-03 0.  1.
         12    1    4    4    0    0  0.98064066354E+01  0.15297580248E+02  0.52385945133E+01  0.18910960975E+02  0.00000000000E+00 0. -1.
</event>
<event>
 8    1  0.5542925E-011  0.9118800E+02  0.7816164E-02  0.1184000E+00
        -11   -1    0    0    0    0  0.00000000000E+00  0.00000000000E+00  0.45593999997E+02  0.45594000000E+02  0.51100000000E-03 0.  1.
         11   -1    0    0    0    0 -0.00000000000E+00 -0.00000000000E+00 -0.45593999997E+02  0.45594000000E+02  0.51100000000E-03 0. -1.
         23    2    1    2    0    0 -0.71054273576E-14  0.35527136788E-14  0.00000000000E+00  0.91188000000E+02  0.91188000000E+02 0.  0.
    9900012    2    3    3    0    0  0.35245378728E+02 -0.22735650857E+02  0.11156905136E+02  0.47787273349E+02  0.20000010509E+02 0.  0.
        -12    1    3    3    0    0 -0.35245378728E+02  0.22735650857E+02 -0.11156905136E+02  0.43400726651E+02  0.00000000000E+00 0.  1.
         11    1    4    4    0    0  0.19072746952E+02 -0.14424380066E+02  0.11073471965E+02  0.26352498899E+02  0.51100000000E-03 0. -1.
        -11    1    4    4    0    0  0.64786290329E+01  0.70977839798E+00  0.39734521936E+01  0.76331344882E+01  0.51100000000E-03 0.  1.
         12    1    4    4    0    0  0.96940027437E+01 -0.90210491886E+01 -0.38900190225E+01  0.13801639962E+02  0.00000000000E+00 0. -1.
</event>
<event>
 8    1  0.5542925E-011  0.9118800E+02  0.7816164E-02  0.1184000E+00
        -11   -1    0    0    0    0  0.00000000000E+00  0.00000000000E+00  0.45593999997E+02  0.45594000000E+02  0.51100000000E-03 0. -1.
         11   -1    0    0    0    0 -0.00000000000E+00 -0.00000000000E+00 -0.45593999997E+02  0.45594000000E+02  0.51100000000E-03 0.  1.
         23    2    1    2    0    0  0.00000000000E+00 -0.71054273576E-14 -0.35527136788E-14  0.91188000000E+02  0.91188000000E+02 0.  0.
    9900012    2    3    3    0    0 -0.12348411093E+02  0.36399162959E+02  0.20155417737E+02  0.47787272071E+02  0.20000004679E+02 0.  0.
        -12    1    3    3    0    0  0.12348411093E+02 -0.36399162959E+02 -0.20155417737E+02  0.43400727929E+02  0.00000000000E+00 0.  1.
         11    1    4    4    0    0 -0.55384343569E+01  0.44455916225E+01 -0.18384626222E+00  0.71043183845E+01  0.51100000000E-03 0. -1.
        -11    1    4    4    0    0  0.17969089353E-01 -0.12453789152E+01  0.21194227222E+00  0.12634125686E+01  0.51100000000E-03 0.  1.
        -12    1    4    4    0    0 -0.68279458250E+01  0.33198950252E+02  0.20127321727E+02  0.39419541118E+02  0.00000000000E+00 0.  1.
</event>
<event>
 8    1  0.5542925E-011  0.9118800E+02  0.7816164E-02  0.1184000E+00
        -11   -1    0    0    0    0  0.00000000000E+00  0.00000000000E+00  0.45593999997E+02  0.45594000000E+02  0.51100000000E-03 0. -1.
         11   -1    0    0    0    0 -0.00000000000E+00 -0.00000000000E+00 -0.45593999997E+02  0.45594000000E+02  0.51100000000E-03 0.  1.
         23    2    1    2    0    0  0.00000000000E+00  0.00000000000E+00  0.00000000000E+00  0.91188000000E+02  0.91188000000E+02 0.  0.
    9900012    2    3    3    0    0 -0.29687917126E+02  0.17056649702E+02 -0.26670609343E+02  0.47787272758E+02  0.20000007815E+02 0.  0.
         12    1    3    3    0    0  0.29687917126E+02 -0.17056649702E+02  0.26670609343E+02  0.43400727242E+02  0.00000000000E+00 0. -1.
         11    1    4    4    0    0 -0.27921691794E+01  0.64594943987E+01 -0.12214343944E+02  0.14096505767E+02  0.51100000000E-03 0. -1.
        -11    1    4    4    0    0 -0.43338283684E+01  0.26880103930E+01 -0.69731231784E+01  0.86389765205E+01  0.51100000000E-03 0.  1.
        -12    1    4    4    0    0 -0.22561919579E+02  0.79091449107E+01 -0.74831422209E+01  0.25051790471E+02  0.00000000000E+00 0.  1.
</event>
<event>
 8    1  0.5542925E-011  0.9118800E+02  0.7816164E-02  0.1184000E+00
        -11   -1    0    0    0    0  0.00000000000E+00  0.00000000000E+00  0.45593999997E+02  0.45594000000E+02  0.51100000000E-03 0. -1.
         11   -1    0    0    0    0 -0.00000000000E+00 -0.00000000000E+00 -0.45593999997E+02  0.45594000000E+02  0.51100000000E-03 0.  1.
         23    2    1    2    0    0  0.77715611724E-15 -0.35527136788E-14  0.00000000000E+00  0.91188000000E+02  0.91188000000E+02 0.  0.
    9900012    2    3    3    0    0 -0.99733061613E+00  0.28136326907E+02 -0.33029923043E+02  0.47787269863E+02  0.19999994615E+02 0.  0.
         12    1    3    3    0    0  0.99733061613E+00 -0.28136326907E+02  0.33029923043E+02  0.43400730137E+02  0.00000000000E+00 0. -1.
         11    1    4    4    0    0 -0.45788768387E+00  0.51771226799E+01 -0.15570694506E+01  0.54255622666E+01  0.51100000000E-03 0. -1.
        -11    1    4    4    0    0  0.48271140795E+01  0.64389648622E+01 -0.19963959232E+02  0.21524891808E+02  0.51100000000E-03 0.  1.
         12    1    4    4    0    0 -0.53665570117E+01  0.16520239365E+02 -0.11508894360E+02  0.20836815789E+02  0.00000000000E+00 0. -1.
</event>
<event>
 8    1  0.5542925E-011  0.9118800E+02  0.7816164E-02  0.1184000E+00
        -11   -1    0    0    0    0  0.00000000000E+00  0.00000000000E+00  0.45593999997E+02  0.45594000000E+02  0.51100000000E-03 0. -1.
         11   -1    0    0    0    0 -0.00000000000E+00 -0.00000000000E+00 -0.45593999997E+02  0.45594000000E+02  0.51100000000E-03 0.  1.
         23    2    1    2    0    0  0.00000000000E+00 -0.35527136788E-14  0.00000000000E+00  0.91188000000E+02  0.91188000000E+02 0.  0.
    9900012    2    3    3    0    0 -0.17103985076E+02 -0.24899284856E+02 -0.31162523276E+02  0.47787267877E+02  0.19999985559E+02 0.  0.
         12    1    3    3    0    0  0.17103985076E+02  0.24899284856E+02  0.31162523276E+02  0.43400732123E+02  0.00000000000E+00 0. -1.
         11    1    4    4    0    0 -0.82719496510E+00 -0.10177461225E+02 -0.12895497375E+02  0.16448672327E+02  0.51100000000E-03 0. -1.
        -11    1    4    4    0    0 -0.52292548502E+01 -0.53091809070E+01 -0.14564334853E+02  0.16360084296E+02  0.51100000000E-03 0.  1.
         12    1    4    4    0    0 -0.11047535261E+02 -0.94126427242E+01 -0.37026910479E+01  0.14978511254E+02  0.00000000000E+00 0. -1.
</event>
<event>
 8    1  0.5542925E-011  0.9118800E+02  0.7816164E-02  0.1184000E+00
        -11   -1    0    0    0    0  0.00000000000E+00  0.00000000000E+00  0.45593999997E+02  0.45594000000E+02  0.51100000000E-03 0. -1.
         11   -1    0    0    0    0 -0.00000000000E+00 -0.00000000000E+00 -0.45593999997E+02  0.45594000000E+02  0.51100000000E-03 0.  1.
         23    2    1    2    0    0  0.00000000000E+00  0.00000000000E+00  0.71054273576E-14  0.91188000000E+02  0.91188000000E+02 0.  0.
    9900012    2    3    3    0    0  0.19404725156E+02  0.19459041905E+02  0.33592072271E+02  0.47787251277E+02  0.19999909872E+02 0.  0.
        -12    1    3    3    0    0 -0.19404725156E+02 -0.19459041905E+02 -0.33592072271E+02  0.43400748723E+02  0.00000000000E+00 0.  1.
         11    1    4    4    0    0  0.16469648338E+02  0.23012692963E+02  0.23898921905E+02  0.37040407966E+02  0.51100000000E-03 0. -1.
        -11    1    4    4    0    0  0.69377834884E+00 -0.85658258635E+00  0.28894179953E+01  0.30925392055E+01  0.51100000000E-03 0.  1.
         12    1    4    4    0    0  0.22412984698E+01 -0.26970684716E+01  0.68037323707E+01  0.76543041058E+01  0.00000000000E+00 0. -1.
</event>
<event>
 8    1  0.5542925E-011  0.9118800E+02  0.7816164E-02  0.1184000E+00
        -11   -1    0    0    0    0  0.00000000000E+00  0.00000000000E+00  0.45593999997E+02  0.45594000000E+02  0.51100000000E-03 0. -1.
         11   -1    0    0    0    0 -0.00000000000E+00 -0.00000000000E+00 -0.45593999997E+02  0.45594000000E+02  0.51100000000E-03 0.  1.
         23    2    1    2    0    0  0.00000000000E+00  0.00000000000E+00  0.00000000000E+00  0.91188000000E+02  0.91188000000E+02 0.  0.
    9900012    2    3    3    0    0 -0.74265414028E+01 -0.23815185620E+02  0.35514875668E+02  0.47787274464E+02  0.20000015592E+02 0.  0.
        -12    1    3    3    0    0  0.74265414028E+01  0.23815185620E+02 -0.35514875668E+02  0.43400725536E+02  0.00000000000E+00 0.  1.
         11    1    4    4    0    0 -0.99290281412E+01 -0.19375653191E+02  0.28166584138E+02  0.35599971891E+02  0.51100000000E-03 0. -1.
        -11    1    4    4    0    0 -0.26480433646E+01  0.33574038477E+00  0.24610363788E+01  0.36306412086E+01  0.51100000000E-03 0.  1.
        -12    1    4    4    0    0  0.51505301030E+01 -0.47752728146E+01  0.48872551511E+01  0.85566613646E+01  0.00000000000E+00 0.  1.
</event>
<event>
 8    1  0.5542925E-011  0.9118800E+02  0.7816164E-02  0.1184000E+00
        -11   -1    0    0    0    0  0.00000000000E+00  0.00000000000E+00  0.45593999997E+02  0.45594000000E+02  0.51100000000E-03 0. -1.
         11   -1    0    0    0    0 -0.00000000000E+00 -0.00000000000E+00 -0.45593999997E+02  0.45594000000E+02  0.51100000000E-03 0.  1.
         23    2    1    2    0    0  0.00000000000E+00  0.00000000000E+00  0.00000000000E+00  0.91188000000E+02  0.91188000000E+02 0.  0.
    9900012    2    3    3    0    0  0.34741045072E+02 -0.84670135334E+01 -0.24596581085E+02  0.47787281896E+02  0.20000049478E+02 0.  0.
         12    1    3    3    0    0 -0.34741045072E+02  0.84670135334E+01  0.24596581085E+02  0.43400718104E+02  0.00000000000E+00 0. -1.
         11    1    4    4    0    0  0.35612375574E+01 -0.27199411786E+00  0.14426666090E+01  0.38519710469E+01  0.51100000000E-03 0. -1.
        -11    1    4    4    0    0  0.10761863996E+02 -0.10239846116E+02 -0.10364519820E+02  0.18113404884E+02  0.51100000000E-03 0.  1.
        -12    1    4    4    0    0  0.20417943519E+02  0.20448267004E+01 -0.15674727874E+02  0.25821905965E+02  0.00000000000E+00 0.  1.
</event>
<event>
 8    1  0.5542925E-011  0.9118800E+02  0.7816164E-02  0.1184000E+00
        -11   -1    0    0    0    0  0.00000000000E+00  0.00000000000E+00  0.45593999997E+02  0.45594000000E+02  0.51100000000E-03 0. -1.
         11   -1    0    0    0    0 -0.00000000000E+00 -0.00000000000E+00 -0.45593999997E+02  0.45594000000E+02  0.51100000000E-03 0.  1.
         23    2    1    2    0    0  0.17763568394E-14  0.00000000000E+00  0.71054273576E-14  0.91188000000E+02  0.91188000000E+02 0.  0.
    9900012    2    3    3    0    0 -0.13876115115E+02  0.14564214991E+02 -0.38457257544E+02  0.47787267440E+02  0.19999983565E+02 0.  0.
         12    1    3    3    0    0  0.13876115115E+02 -0.14564214991E+02  0.38457257544E+02  0.43400732560E+02  0.00000000000E+00 0. -1.
         11    1    4    4    0    0 -0.30133584598E+01 -0.25063377512E+01  0.11671043710E+00  0.39211834588E+01  0.51100000000E-03 0. -1.
        -11    1    4    4    0    0  0.87510711597E-01  0.26693808650E+01 -0.67495666236E+01  0.72587810406E+01  0.51100000000E-03 0.  1.
        -12    1    4    4    0    0 -0.10950267366E+02  0.14401171877E+02 -0.31824401357E+02  0.36607302940E+02  0.00000000000E+00 0.  1.
</event>
<event>
 8    1  0.5542925E-011  0.9118800E+02  0.7816164E-02  0.1184000E+00
        -11   -1    0    0    0    0  0.00000000000E+00  0.00000000000E+00  0.45593999997E+02  0.45594000000E+02  0.51100000000E-03 0. -1.
         11   -1    0    0    0    0 -0.00000000000E+00 -0.00000000000E+00 -0.45593999997E+02  0.45594000000E+02  0.51100000000E-03 0.  1.
         23    2    1    2    0    0  0.00000000000E+00  0.00000000000E+00  0.44408920985E-15  0.91188000000E+02  0.91188000000E+02 0.  0.
    9900012    2    3    3    0    0 -0.16872698922E+02 -0.39964624369E+02 -0.13276996248E+01  0.47787286225E+02  0.20000069216E+02 0.  0.
         12    1    3    3    0    0  0.16872698922E+02  0.39964624369E+02  0.13276996248E+01  0.43400713775E+02  0.00000000000E+00 0. -1.
         11    1    4    4    0    0 -0.12525663443E+02 -0.21591819077E+02 -0.50822941831E+01  0.25474077219E+02  0.51100000000E-03 0. -1.
        -11    1    4    4    0    0 -0.28279746267E+01 -0.16020716258E+02 -0.15223091390E+01  0.16339468024E+02  0.51100000000E-03 0.  1.
         12    1    4    4    0    0 -0.15190608525E+01 -0.23520890334E+01  0.52769036974E+01  0.59737409825E+01  0.00000000000E+00 0. -1.
</event>
<event>
 8    1  0.5542925E-011  0.9118800E+02  0.7816164E-02  0.1184000E+00
        -11   -1    0    0    0    0  0.00000000000E+00  0.00000000000E+00  0.45593999997E+02  0.45594000000E+02  0.51100000000E-03 0. -1.
         11   -1    0    0    0    0 -0.00000000000E+00 -0.00000000000E+00 -0.45593999997E+02  0.45594000000E+02  0.51100000000E-03 0.  1.
         23    2    1    2    0    0 -0.17763568394E-14  0.35527136788E-14 -0.71054273576E-14  0.91188000000E+02  0.91188000000E+02 0.  0.
    9900012    2    3    3    0    0  0.81521215272E+01  0.16572787421E+02 -0.39274786282E+02  0.47787271829E+02  0.20000003577E+02 0.  0.
         12    1    3    3    0    0 -0.81521215272E+01 -0.16572787421E+02  0.39274786282E+02  0.43400728171E+02  0.00000000000E+00 0. -1.
         11    1    4    4    0    0  0.86375572356E+00 -0.47258256522E+00 -0.56131864586E+01  0.56988832864E+01  0.51100000000E-03 0. -1.
        -11    1    4    4    0    0  0.89902169997E+01  0.17911899415E+02 -0.20069357917E+02  0.28362638626E+02  0.51100000000E-03 0.  1.
        -12    1    4    4    0    0 -0.17018511960E+01 -0.86652942884E+00 -0.13592241906E+02  0.13725749917E+02  0.00000000000E+00 0.  1.
</event>
<event>
 8    1  0.5542925E-011  0.9118800E+02  0.7816164E-02  0.1184000E+00
        -11   -1    0    0    0    0  0.00000000000E+00  0.00000000000E+00  0.45593999997E+02  0.45594000000E+02  0.51100000000E-03 0. -1.
         11   -1    0    0    0    0 -0.00000000000E+00 -0.00000000000E+00 -0.45593999997E+02  0.45594000000E+02  0.51100000000E-03 0.  1.
         23    2    1    2    0    0  0.00000000000E+00 -0.44408920985E-15 -0.71054273576E-14  0.91188000000E+02  0.91188000000E+02 0.  0.
    9900012    2    3    3    0    0  0.35221730916E+01  0.24626505014E+01  0.43187457455E+02  0.47787230050E+02  0.19999813090E+02 0.  0.
        -12    1    3    3    0    0 -0.35221730916E+01 -0.24626505014E+01 -0.43187457455E+02  0.43400769950E+02  0.00000000000E+00 0.  1.
         11    1    4    4    0    0 -0.55923998548E+00  0.66317319593E+01  0.22627290942E+02  0.23585735387E+02  0.51100000000E-03 0. -1.
        -11    1    4    4    0    0 -0.89076431306E-01  0.35627433565E+01  0.90165230012E+01  0.96952958762E+01  0.51100000000E-03 0.  1.
        -12    1    4    4    0    0  0.41704895084E+01 -0.77318248143E+01  0.11543643513E+02  0.14506198787E+02  0.00000000000E+00 0.  1.
</event>
<event>
 8    1  0.5542925E-011  0.9118800E+02  0.7816164E-02  0.1184000E+00
        -11   -1    0    0    0    0  0.00000000000E+00  0.00000000000E+00  0.45593999997E+02  0.45594000000E+02  0.51100000000E-03 0. -1.
         11   -1    0    0    0    0 -0.00000000000E+00 -0.00000000000E+00 -0.45593999997E+02  0.45594000000E+02  0.51100000000E-03 0.  1.
         23    2    1    2    0    0  0.17763568394E-14  0.17763568394E-14  0.00000000000E+00  0.91188000000E+02  0.91188000000E+02 0.  0.
    9900012    2    3    3    0    0  0.11578322584E+02  0.88032510716E+01  0.40890925018E+02  0.47787279590E+02  0.20000038963E+02 0.  0.
        -12    1    3    3    0    0 -0.11578322584E+02 -0.88032510716E+01 -0.40890925018E+02  0.43400720410E+02  0.00000000000E+00 0.  1.
         11    1    4    4    0    0 -0.46368279853E+01  0.51306194684E+01  0.12541380793E+02  0.14321650127E+02  0.51100000000E-03 0. -1.
        -11    1    4    4    0    0 -0.93261246724E-01 -0.16861221992E+00 -0.25244505182E+00  0.31757913369E+00  0.51100000000E-03 0.  1.
        -12    1    4    4    0    0  0.16308411816E+02  0.38412438231E+01  0.28601989277E+02  0.33148050330E+02  0.00000000000E+00 0.  1.
</event>
<event>
 8    1  0.5542925E-011  0.9118800E+02  0.7816164E-02  0.1184000E+00
        -11   -1    0    0    0    0  0.00000000000E+00  0.00000000000E+00  0.45593999997E+02  0.45594000000E+02  0.51100000000E-03 0. -1.
         11   -1    0    0    0    0 -0.00000000000E+00 -0.00000000000E+00 -0.45593999997E+02  0.45594000000E+02  0.51100000000E-03 0.  1.
         23    2    1    2    0    0  0.00000000000E+00 -0.35527136788E-14  0.00000000000E+00  0.91188000000E+02  0.91188000000E+02 0.  0.
    9900012    2    3    3    0    0  0.32452625318E+02  0.22276659165E+02  0.18281158602E+02  0.47787271972E+02  0.20000004228E+02 0.  0.
        -12    1    3    3    0    0 -0.32452625318E+02 -0.22276659165E+02 -0.18281158602E+02  0.43400728028E+02  0.00000000000E+00 0.  1.
         11    1    4    4    0    0  0.71292194840E+01  0.52432873499E+01  0.38006578587E+01  0.96313463807E+01  0.51100000000E-03 0. -1.
        -11    1    4    4    0    0  0.24304254859E+01  0.33575254876E+01  0.10378410148E+02  0.11175479538E+02  0.51100000000E-03 0.  1.
        -12    1    4    4    0    0  0.22892980348E+02  0.13675846328E+02  0.41020905953E+01  0.26980446053E+02  0.00000000000E+00 0.  1.
</event>
<event>
 8    1  0.5542925E-011  0.9118800E+02  0.7816164E-02  0.1184000E+00
        -11   -1    0    0    0    0  0.00000000000E+00  0.00000000000E+00  0.45593999997E+02  0.45594000000E+02  0.51100000000E-03 0. -1.
         11   -1    0    0    0    0 -0.00000000000E+00 -0.00000000000E+00 -0.45593999997E+02  0.45594000000E+02  0.51100000000E-03 0.  1.
         23    2    1    2    0    0  0.00000000000E+00  0.35527136788E-14  0.00000000000E+00  0.91188000000E+02  0.91188000000E+02 0.  0.
    9900012    2    3    3    0    0  0.17749601545E+01  0.29324567195E+02  0.31945943131E+02  0.47787262596E+02  0.19999961478E+02 0.  0.
        -12    1    3    3    0    0 -0.17749601545E+01 -0.29324567195E+02 -0.31945943131E+02  0.43400737404E+02  0.00000000000E+00 0.  1.
         11    1    4    4    0    0  0.18864874012E+01  0.18033802741E+02  0.15698214405E+02  0.23983552943E+02  0.51100000000E-03 0. -1.
        -11    1    4    4    0    0 -0.12921139667E+01  0.13870775320E+02  0.15558616170E+02  0.20883929320E+02  0.51100000000E-03 0.  1.
        -12    1    4    4    0    0  0.11805867200E+01 -0.25800108659E+01  0.68911255595E+00  0.29197803319E+01  0.00000000000E+00 0.  1.
</event>
<event>
 8    1  0.5542925E-011  0.9118800E+02  0.7816164E-02  0.1184000E+00
        -11   -1    0    0    0    0  0.00000000000E+00  0.00000000000E+00  0.45593999997E+02  0.45594000000E+02  0.51100000000E-03 0. -1.
         11   -1    0    0    0    0 -0.00000000000E+00 -0.00000000000E+00 -0.45593999997E+02  0.45594000000E+02  0.51100000000E-03 0.  1.
         23    2    1    2    0    0 -0.88817841970E-15  0.00000000000E+00  0.00000000000E+00  0.91188000000E+02  0.91188000000E+02 0.  0.
    9900012    2    3    3    0    0  0.76312356930E+01 -0.21146141335E+02  0.37124496427E+02  0.47787270898E+02  0.19999999334E+02 0.  0.
        -12    1    3    3    0    0 -0.76312356930E+01  0.21146141335E+02 -0.37124496427E+02  0.43400729102E+02  0.00000000000E+00 0.  1.
         11    1    4    4    0    0  0.41047049239E+01 -0.74125397594E+01  0.88310248740E+01  0.12238519060E+02  0.51100000000E-03 0. -1.
        -11    1    4    4    0    0  0.66538734671E+01 -0.82269667259E+01  0.55662733371E+01  0.11955769015E+02  0.51100000000E-03 0.  1.
        -12    1    4    4    0    0 -0.31273426981E+01 -0.55066348501E+01  0.22727198216E+02  0.23592982823E+02  0.00000000000E+00 0.  1.
</event>
<event>
 8    1  0.5542925E-011  0.9118800E+02  0.7816164E-02  0.1184000E+00
        -11   -1    0    0    0    0  0.00000000000E+00  0.00000000000E+00  0.45593999997E+02  0.45594000000E+02  0.51100000000E-03 0. -1.
         11   -1    0    0    0    0 -0.00000000000E+00 -0.00000000000E+00 -0.45593999997E+02  0.45594000000E+02  0.51100000000E-03 0.  1.
         23    2    1    2    0    0  0.35527136788E-14  0.00000000000E+00  0.00000000000E+00  0.91188000000E+02  0.91188000000E+02 0.  0.
    9900012    2    3    3    0    0  0.19523389421E+02  0.21194946756E+02  0.32453613225E+02  0.47787245239E+02  0.19999882342E+02 0.  0.
        -12    1    3    3    0    0 -0.19523389421E+02 -0.21194946756E+02 -0.32453613225E+02  0.43400754761E+02  0.00000000000E+00 0.  1.
         11    1    4    4    0    0  0.21412492960E+02  0.17260346693E+02  0.26603554192E+02  0.38264389694E+02  0.51100000000E-03 0. -1.
        -11    1    4    4    0    0  0.17776013442E+01 -0.19798190293E+00  0.56098360207E+00  0.18745042640E+01  0.51100000000E-03 0.  1.
         12    1    4    4    0    0 -0.36667048833E+01  0.41325819655E+01  0.52890754303E+01  0.76483512805E+01  0.00000000000E+00 0. -1.
</event>
<event>
 8    1  0.5542925E-011  0.9118800E+02  0.7816164E-02  0.1184000E+00
        -11   -1    0    0    0    0  0.00000000000E+00  0.00000000000E+00  0.45593999997E+02  0.45594000000E+02  0.51100000000E-03 0. -1.
         11   -1    0    0    0    0 -0.00000000000E+00 -0.00000000000E+00 -0.45593999997E+02  0.45594000000E+02  0.51100000000E-03 0.  1.
         23    2    1    2    0    0 -0.35527136788E-14 -0.35527136788E-14  0.35527136788E-14  0.91188000000E+02  0.91188000000E+02 0.  0.
    9900012    2    3    3    0    0  0.17476389095E+02 -0.27151692667E+02 -0.28999735897E+02  0.47787271059E+02  0.20000000068E+02 0.  0.
         12    1    3    3    0    0 -0.17476389095E+02  0.27151692667E+02  0.28999735897E+02  0.43400728941E+02  0.00000000000E+00 0. -1.
         11    1    4    4    0    0 -0.84811037542E+00 -0.59665680755E+01 -0.12408480974E+02  0.13794550596E+02  0.51100000000E-03 0. -1.
        -11    1    4    4    0    0  0.35800392849E+00 -0.48461479916E+01 -0.55520622833E+00  0.48909683486E+01  0.51100000000E-03 0.  1.
        -12    1    4    4    0    0  0.17966495542E+02 -0.16338976600E+02 -0.16036048695E+02  0.29101752114E+02  0.00000000000E+00 0.  1.
</event>
<event>
 8    1  0.5542925E-011  0.9118800E+02  0.7816164E-02  0.1184000E+00
        -11   -1    0    0    0    0  0.00000000000E+00  0.00000000000E+00  0.45593999997E+02  0.45594000000E+02  0.51100000000E-03 0. -1.
         11   -1    0    0    0    0 -0.00000000000E+00 -0.00000000000E+00 -0.45593999997E+02  0.45594000000E+02  0.51100000000E-03 0.  1.
         23    2    1    2    0    0 -0.44408920985E-15  0.00000000000E+00  0.00000000000E+00  0.91188000000E+02  0.91188000000E+02 0.  0.
    9900012    2    3    3    0    0  0.37944777591E+01 -0.41358060232E+02 -0.12599040660E+02  0.47787273817E+02  0.20000012643E+02 0.  0.
        -12    1    3    3    0    0 -0.37944777591E+01  0.41358060232E+02  0.12599040660E+02  0.43400726183E+02  0.00000000000E+00 0.  1.
         11    1    4    4    0    0  0.47071860423E+01 -0.36004276554E+01 -0.28842154559E+01  0.65908556953E+01  0.51100000000E-03 0.  1.
        -11    1    4    4    0    0  0.41227825080E+01 -0.27852161114E+02 -0.10516648260E+02  0.30055616866E+02  0.51100000000E-03 0. -1.
        -12    1    4    4    0    0 -0.50354907911E+01 -0.99054714629E+01  0.80182305605E+00  0.11140801256E+02  0.00000000000E+00 0.  1.
</event>
<event>
 8    1  0.5542925E-011  0.9118800E+02  0.7816164E-02  0.1184000E+00
        -11   -1    0    0    0    0  0.00000000000E+00  0.00000000000E+00  0.45593999997E+02  0.45594000000E+02  0.51100000000E-03 0. -1.
         11   -1    0    0    0    0 -0.00000000000E+00 -0.00000000000E+00 -0.45593999997E+02  0.45594000000E+02  0.51100000000E-03 0.  1.
         23    2    1    2    0    0  0.00000000000E+00 -0.35527136788E-14  0.00000000000E+00  0.91188000000E+02  0.91188000000E+02 0.  0.
    9900012    2    3    3    0    0  0.54965557244E+01 -0.29244764905E+02 -0.31593587961E+02  0.47787271902E+02  0.20000003912E+02 0.  0.
         12    1    3    3    0    0 -0.54965557244E+01  0.29244764905E+02  0.31593587961E+02  0.43400728098E+02  0.00000000000E+00 0. -1.
         11    1    4    4    0    0  0.56355767941E+01 -0.24227511940E+02 -0.14984228017E+02  0.29038924741E+02  0.51100000000E-03 0. -1.
        -11    1    4    4    0    0 -0.57491993551E+00 -0.40851929238E+01 -0.30018831883E+01  0.51020228434E+01  0.51100000000E-03 0.  1.
        -12    1    4    4    0    0  0.43589886577E+00 -0.93206004133E+00 -0.13607476756E+02  0.13646324318E+02  0.00000000000E+00 0.  1.
</event>
<event>
 8    1  0.5542925E-011  0.9118800E+02  0.7816164E-02  0.1184000E+00
        -11   -1    0    0    0    0  0.00000000000E+00  0.00000000000E+00  0.45593999997E+02  0.45594000000E+02  0.51100000000E-03 0. -1.
         11   -1    0    0    0    0 -0.00000000000E+00 -0.00000000000E+00 -0.45593999997E+02  0.45594000000E+02  0.51100000000E-03 0.  1.
         23    2    1    2    0    0  0.00000000000E+00  0.00000000000E+00 -0.17763568394E-14  0.91188000000E+02  0.91188000000E+02 0.  0.
    9900012    2    3    3    0    0 -0.28689231841E+02 -0.29077338909E+02  0.14664908082E+02  0.47787272003E+02  0.20000004369E+02 0.  0.
        -12    1    3    3    0    0  0.28689231841E+02  0.29077338909E+02 -0.14664908082E+02  0.43400727997E+02  0.00000000000E+00 0.  1.
         11    1    4    4    0    0 -0.15279265760E+02 -0.84655181604E+01  0.97819497866E+01  0.20020177367E+02  0.51100000000E-03 0. -1.
        -11    1    4    4    0    0 -0.33484503027E+01 -0.33996987992E+01  0.61565218513E+01  0.77892767907E+01  0.51100000000E-03 0.  1.
        -12    1    4    4    0    0 -0.10061515778E+02 -0.17212121949E+02 -0.12735635555E+01  0.19977817845E+02  0.00000000000E+00 0.  1.
</event>
<event>
 8    1  0.5542925E-011  0.9118800E+02  0.7816164E-02  0.1184000E+00
        -11   -1    0    0    0    0  0.00000000000E+00  0.00000000000E+00  0.45593999997E+02  0.45594000000E+02  0.51100000000E-03 0. -1.
         11   -1    0    0    0    0 -0.00000000000E+00 -0.00000000000E+00 -0.45593999997E+02  0.45594000000E+02  0.51100000000E-03 0.  1.
         23    2    1    2    0    0  0.00000000000E+00  0.00000000000E+00 -0.35527136788E-14  0.91188000000E+02  0.91188000000E+02 0.  0.
    9900012    2    3    3    0    0 -0.32798824111E+02 -0.19659637441E+02  0.20527005400E+02  0.47787283899E+02  0.20000058611E+02 0.  0.
        -12    1    3    3    0    0  0.32798824111E+02  0.19659637441E+02 -0.20527005400E+02  0.43400716101E+02  0.00000000000E+00 0.  1.
         11    1    4    4    0    0 -0.70653552876E+01 -0.46082854630E+01  0.17193216936E+01  0.86088098826E+01  0.51100000000E-03 0. -1.
        -11    1    4    4    0    0 -0.23413584670E+01 -0.92593095155E+01  0.91196298820E+01  0.13205469383E+02  0.51100000000E-03 0.  1.
        -12    1    4    4    0    0 -0.23392110357E+02 -0.57920424620E+01  0.96880538240E+01  0.25973004634E+02  0.00000000000E+00 0.  1.
</event>
<event>
 8    1  0.5542925E-011  0.9118800E+02  0.7816164E-02  0.1184000E+00
        -11   -1    0    0    0    0  0.00000000000E+00  0.00000000000E+00  0.45593999997E+02  0.45594000000E+02  0.51100000000E-03 0. -1.
         11   -1    0    0    0    0 -0.00000000000E+00 -0.00000000000E+00 -0.45593999997E+02  0.45594000000E+02  0.51100000000E-03 0.  1.
         23    2    1    2    0    0  0.71054273576E-14  0.00000000000E+00  0.88817841970E-15  0.91188000000E+02  0.91188000000E+02 0.  0.
    9900012    2    3    3    0    0  0.42740843012E+02  0.39002800063E+01  0.64523402122E+01  0.47787256461E+02  0.19999933510E+02 0.  0.
        -12    1    3    3    0    0 -0.42740843012E+02 -0.39002800063E+01 -0.64523402122E+01  0.43400743539E+02  0.00000000000E+00 0.  1.
         11    1    4    4    0    0  0.20899543657E+02  0.19870190941E+01  0.59415111712E+01  0.21818357528E+02  0.51100000000E-03 0. -1.
        -11    1    4    4    0    0  0.16896813346E+02  0.69976245355E+01 -0.21060346882E+01  0.18409357207E+02  0.51100000000E-03 0.  1.
         12    1    4    4    0    0  0.49444860081E+01 -0.50843636232E+01  0.26168637292E+01  0.75595417265E+01  0.00000000000E+00 0. -1.
</event>
<event>
 8    1  0.5542925E-011  0.9118800E+02  0.7816164E-02  0.1184000E+00
        -11   -1    0    0    0    0  0.00000000000E+00  0.00000000000E+00  0.45593999997E+02  0.45594000000E+02  0.51100000000E-03 0. -1.
         11   -1    0    0    0    0 -0.00000000000E+00 -0.00000000000E+00 -0.45593999997E+02  0.45594000000E+02  0.51100000000E-03 0.  1.
         23    2    1    2    0    0  0.00000000000E+00  0.00000000000E+00  0.00000000000E+00  0.91188000000E+02  0.91188000000E+02 0.  0.
    9900012    2    3    3    0    0 -0.13384726286E+02 -0.40901675479E+02 -0.56146622941E+01  0.47787281257E+02  0.20000046562E+02 0.  0.
         12    1    3    3    0    0  0.13384726286E+02  0.40901675479E+02  0.56146622941E+01  0.43400718743E+02  0.00000000000E+00 0. -1.
         11    1    4    4    0    0 -0.72903850477E+00 -0.60007684383E+01  0.19122496876E+01  0.63401433833E+01  0.51100000000E-03 0. -1.
        -11    1    4    4    0    0 -0.75079388117E+01 -0.34808777085E+02 -0.65439629479E+01  0.36205573586E+02  0.51100000000E-03 0.  1.
        -12    1    4    4    0    0 -0.51477489692E+01 -0.92129956054E-01 -0.98294903387E+00  0.52415642877E+01  0.00000000000E+00 0.  1.
</event>
<event>
 8    1  0.5542925E-011  0.9118800E+02  0.7816164E-02  0.1184000E+00
        -11   -1    0    0    0    0  0.00000000000E+00  0.00000000000E+00  0.45593999997E+02  0.45594000000E+02  0.51100000000E-03 0.  1.
         11   -1    0    0    0    0 -0.00000000000E+00 -0.00000000000E+00 -0.45593999997E+02  0.45594000000E+02  0.51100000000E-03 0. -1.
         23    2    1    2    0    0  0.35527136788E-14  0.00000000000E+00 -0.44408920985E-15  0.91188000000E+02  0.91188000000E+02 0.  0.
    9900012    2    3    3    0    0 -0.30264967586E+02 -0.30849258799E+02 -0.39972763834E+01  0.47787271320E+02  0.20000001256E+02 0.  0.
         12    1    3    3    0    0  0.30264967586E+02  0.30849258799E+02  0.39972763834E+01  0.43400728680E+02  0.00000000000E+00 0. -1.
         11    1    4    4    0    0 -0.23519445283E+01 -0.10040989678E+02 -0.32563159983E+01  0.10814652603E+02  0.51100000000E-03 0.  1.
        -11    1    4    4    0    0 -0.21581010877E+01  0.15104280670E+01  0.10733565577E+01  0.28444485953E+01  0.51100000000E-03 0. -1.
        -12    1    4    4    0    0 -0.25754921971E+02 -0.22318697188E+02 -0.18143169428E+01  0.34128170122E+02  0.00000000000E+00 0.  1.
</event>
<event>
 8    1  0.5542925E-011  0.9118800E+02  0.7816164E-02  0.1184000E+00
        -11   -1    0    0    0    0  0.00000000000E+00  0.00000000000E+00  0.45593999997E+02  0.45594000000E+02  0.51100000000E-03 0. -1.
         11   -1    0    0    0    0 -0.00000000000E+00 -0.00000000000E+00 -0.45593999997E+02  0.45594000000E+02  0.51100000000E-03 0.  1.
         23    2    1    2    0    0 -0.26645352591E-14  0.35527136788E-14  0.71054273576E-14  0.91188000000E+02  0.91188000000E+02 0.  0.
    9900012    2    3    3    0    0 -0.75502558537E+01  0.30988029314E+02  0.29433982000E+02  0.47787267050E+02  0.19999981787E+02 0.  0.
        -12    1    3    3    0    0  0.75502558537E+01 -0.30988029314E+02 -0.29433982000E+02  0.43400732950E+02  0.00000000000E+00 0.  1.
         11    1    4    4    0    0 -0.26154332369E+01  0.16758330435E+02  0.17024218175E+02  0.24031357322E+02  0.51100000000E-03 0. -1.
        -11    1    4    4    0    0 -0.58088822520E+01  0.14065339649E+02  0.46028874724E+01  0.15898536593E+02  0.51100000000E-03 0.  1.
        -12    1    4    4    0    0  0.87405963521E+00  0.16435923029E+00  0.78068763525E+01  0.78573731352E+01  0.00000000000E+00 0.  1.
</event>
<event>
 8    1  0.5542925E-011  0.9118800E+02  0.7816164E-02  0.1184000E+00
        -11   -1    0    0    0    0  0.00000000000E+00  0.00000000000E+00  0.45593999997E+02  0.45594000000E+02  0.51100000000E-03 0.  1.
         11   -1    0    0    0    0 -0.00000000000E+00 -0.00000000000E+00 -0.45593999997E+02  0.45594000000E+02  0.51100000000E-03 0. -1.
         23    2    1    2    0    0 -0.35527136788E-14  0.00000000000E+00  0.00000000000E+00  0.91188000000E+02  0.91188000000E+02 0.  0.
    9900012    2    3    3    0    0 -0.24954524526E+02 -0.32347838952E+02  0.14646173271E+02  0.47787292971E+02  0.20000099970E+02 0.  0.
        -12    1    3    3    0    0  0.24954524526E+02  0.32347838952E+02 -0.14646173271E+02  0.43400707029E+02  0.00000000000E+00 0.  1.
         11    1    4    4    0    0 -0.88848429741E+01 -0.58511132873E+01  0.10783564635E+01  0.10692932914E+02  0.51100000000E-03 0. -1.
        -11    1    4    4    0    0 -0.17492499080E+02 -0.19589808730E+02  0.63842189776E+01  0.27027881574E+02  0.51100000000E-03 0.  1.
        -12    1    4    4    0    0  0.14228175287E+01 -0.69069169344E+01  0.71835978303E+01  0.10066478483E+02  0.00000000000E+00 0.  1.
</event>
<event>
 8    1  0.5542925E-011  0.9118800E+02  0.7816164E-02  0.1184000E+00
        -11   -1    0    0    0    0  0.00000000000E+00  0.00000000000E+00  0.45593999997E+02  0.45594000000E+02  0.51100000000E-03 0. -1.
         11   -1    0    0    0    0 -0.00000000000E+00 -0.00000000000E+00 -0.45593999997E+02  0.45594000000E+02  0.51100000000E-03 0.  1.
         23    2    1    2    0    0  0.00000000000E+00  0.00000000000E+00  0.00000000000E+00  0.91188000000E+02  0.91188000000E+02 0.  0.
    9900012    2    3    3    0    0 -0.21892687187E+02  0.21264165761E+02  0.30857243722E+02  0.47787262819E+02  0.19999962495E+02 0.  0.
        -12    1    3    3    0    0  0.21892687187E+02 -0.21264165761E+02 -0.30857243722E+02  0.43400737181E+02  0.00000000000E+00 0.  1.
         11    1    4    4    0    0 -0.22373905146E+01  0.48631193388E+01  0.47101460850E+01  0.71303101210E+01  0.51100000000E-03 0. -1.
        -11    1    4    4    0    0 -0.14552609367E+02  0.42091700306E+01  0.54494738682E+01  0.16099450842E+02  0.51100000000E-03 0.  1.
         12    1    4    4    0    0 -0.51026873056E+01  0.12191876392E+02  0.20697623769E+02  0.24557501855E+02  0.00000000000E+00 0. -1.
</event>
<event>
 8    1  0.5542925E-011  0.9118800E+02  0.7816164E-02  0.1184000E+00
        -11   -1    0    0    0    0  0.00000000000E+00  0.00000000000E+00  0.45593999997E+02  0.45594000000E+02  0.51100000000E-03 0. -1.
         11   -1    0    0    0    0 -0.00000000000E+00 -0.00000000000E+00 -0.45593999997E+02  0.45594000000E+02  0.51100000000E-03 0.  1.
         23    2    1    2    0    0  0.44408920985E-15  0.00000000000E+00  0.00000000000E+00  0.91188000000E+02  0.91188000000E+02 0.  0.
    9900012    2    3    3    0    0  0.33136585399E+01  0.42309621337E+02  0.90850869855E+01  0.47787271940E+02  0.20000004085E+02 0.  0.
        -12    1    3    3    0    0 -0.33136585399E+01 -0.42309621337E+02 -0.90850869855E+01  0.43400728060E+02  0.00000000000E+00 0.  1.
         11    1    4    4    0    0 -0.77810226652E+01  0.13402460536E+02  0.23506582508E+01  0.15674688406E+02  0.51100000000E-03 0. -1.
        -11    1    4    4    0    0  0.26408523693E+01  0.95775840233E+01 -0.10097252006E+00  0.99355127030E+01  0.51100000000E-03 0.  1.
         12    1    4    4    0    0  0.84538288357E+01  0.19329576777E+02  0.68354012548E+01  0.22177070832E+02  0.00000000000E+00 0. -1.
</event>
<event>
 8    1  0.5542925E-011  0.9118800E+02  0.7816164E-02  0.1184000E+00
        -11   -1    0    0    0    0  0.00000000000E+00  0.00000000000E+00  0.45593999997E+02  0.45594000000E+02  0.51100000000E-03 0. -1.
         11   -1    0    0    0    0 -0.00000000000E+00 -0.00000000000E+00 -0.45593999997E+02  0.45594000000E+02  0.51100000000E-03 0.  1.
         23    2    1    2    0    0  0.00000000000E+00  0.35527136788E-14  0.00000000000E+00  0.91188000000E+02  0.91188000000E+02 0.  0.
    9900012    2    3    3    0    0 -0.98601297517E+01  0.20276814679E+02  0.37084390162E+02  0.47787269984E+02  0.19999995164E+02 0.  0.
        -12    1    3    3    0    0  0.98601297517E+01 -0.20276814679E+02 -0.37084390162E+02  0.43400730016E+02  0.00000000000E+00 0.  1.
         11    1    4    4    0    0 -0.13264459652E+02  0.15459583930E+02  0.19471650194E+02  0.28179598768E+02  0.51100000000E-03 0. -1.
        -11    1    4    4    0    0  0.31876582870E+01  0.32394598885E+01  0.44901513337E+01  0.63887968339E+01  0.51100000000E-03 0.  1.
        -12    1    4    4    0    0  0.21667161313E+00  0.15777708601E+01  0.13122588634E+02  0.13218874382E+02  0.00000000000E+00 0.  1.
</event>
<event>
 8    1  0.5542925E-011  0.9118800E+02  0.7816164E-02  0.1184000E+00
        -11   -1    0    0    0    0  0.00000000000E+00  0.00000000000E+00  0.45593999997E+02  0.45594000000E+02  0.51100000000E-03 0. -1.
         11   -1    0    0    0    0 -0.00000000000E+00 -0.00000000000E+00 -0.45593999997E+02  0.45594000000E+02  0.51100000000E-03 0.  1.
         23    2    1    2    0    0  0.00000000000E+00  0.00000000000E+00  0.00000000000E+00  0.91188000000E+02  0.91188000000E+02 0.  0.
    9900012    2    3    3    0    0  0.18761878189E+02 -0.15580245228E+02 -0.35900842450E+02  0.47787278771E+02  0.20000035230E+02 0.  0.
         12    1    3    3    0    0 -0.18761878189E+02  0.15580245228E+02  0.35900842450E+02  0.43400721229E+02  0.00000000000E+00 0. -1.
         11    1    4    4    0    0  0.23771581442E+01  0.53335399139E+00  0.23175042329E+00  0.24472547564E+01  0.51100000000E-03 0. -1.
        -11    1    4    4    0    0 -0.10249663177E+01 -0.81582740834E+01 -0.99763733543E+01  0.12928109589E+02  0.51100000000E-03 0.  1.
         12    1    4    4    0    0  0.17409686363E+02 -0.79553251363E+01 -0.26156219519E+02  0.32411914426E+02  0.00000000000E+00 0. -1.
</event>
<event>
 8    1  0.5542925E-011  0.9118800E+02  0.7816164E-02  0.1184000E+00
        -11   -1    0    0    0    0  0.00000000000E+00  0.00000000000E+00  0.45593999997E+02  0.45594000000E+02  0.51100000000E-03 0.  1.
         11   -1    0    0    0    0 -0.00000000000E+00 -0.00000000000E+00 -0.45593999997E+02  0.45594000000E+02  0.51100000000E-03 0. -1.
         23    2    1    2    0    0 -0.35527136788E-14  0.00000000000E+00  0.11102230246E-15  0.91188000000E+02  0.91188000000E+02 0.  0.
    9900012    2    3    3    0    0 -0.30006467224E+02 -0.31343345729E+02  0.91089425093E+00  0.47787272758E+02  0.20000007814E+02 0.  0.
         12    1    3    3    0    0  0.30006467224E+02  0.31343345729E+02 -0.91089425093E+00  0.43400727242E+02  0.00000000000E+00 0. -1.
         11    1    4    4    0    0 -0.55868244485E+01 -0.12680292458E+02 -0.80425691382E+00  0.13879814613E+02  0.51100000000E-03 0. -1.
        -11    1    4    4    0    0 -0.15580720668E+02 -0.18096344079E+02 -0.26625107126E+01  0.24027598488E+02  0.51100000000E-03 0.  1.
         12    1    4    4    0    0 -0.88389221077E+01 -0.56670919231E+00  0.43776618773E+01  0.98798596572E+01  0.00000000000E+00 0. -1.
</event>
<event>
 8    1  0.6389625E-011  0.9118800E+02  0.7816164E-02  0.1184000E+00
        -11   -1    0    0    0    0  0.00000000000E+00  0.00000000000E+00  0.45593999997E+02  0.45594000000E+02  0.51100000000E-03 0. -1.
         11   -1    0    0    0    0 -0.00000000000E+00 -0.00000000000E+00 -0.45593999997E+02  0.45594000000E+02  0.51100000000E-03 0.  1.
         23    2    1    2    0    0 -0.35527136788E-14  0.66613381478E-15  0.00000000000E+00  0.91188000000E+02  0.91188000000E+02 0.  0.
    9900012    2    3    3    0    0 -0.21242403638E+02  0.89366682125E+00  0.37836295612E+02  0.47787267076E+02  0.19999981907E+02 0.  0.
        -12    1    3    3    0    0  0.21242403638E+02 -0.89366682125E+00 -0.37836295612E+02  0.43400732924E+02  0.00000000000E+00 0.  1.
         11    1    4    4    0    0 -0.11755629913E+02 -0.41190535122E+01  0.12687670095E+02  0.17780281471E+02  0.51100000000E-03 0. -1.
        -11    1    4    4    0    0 -0.70110690797E+01  0.14377414396E+01  0.35763305435E+01  0.80007706195E+01  0.51100000000E-03 0.  1.
         12    1    4    4    0    0 -0.24757046452E+01  0.35749788939E+01  0.21572294974E+02  0.22006214986E+02  0.00000000000E+00 0. -1.
</event>
<event>
 8    1  0.5542925E-011  0.9118800E+02  0.7816164E-02  0.1184000E+00
        -11   -1    0    0    0    0  0.00000000000E+00  0.00000000000E+00  0.45593999997E+02  0.45594000000E+02  0.51100000000E-03 0. -1.
         11   -1    0    0    0    0 -0.00000000000E+00 -0.00000000000E+00 -0.45593999997E+02  0.45594000000E+02  0.51100000000E-03 0.  1.
         23    2    1    2    0    0 -0.17763568394E-14 -0.71054273576E-14  0.00000000000E+00  0.91188000000E+02  0.91188000000E+02 0.  0.
    9900012    2    3    3    0    0  0.14209020036E+02  0.34060120933E+02 -0.22839264550E+02  0.47787307683E+02  0.20000167051E+02 0.  0.
         12    1    3    3    0    0 -0.14209020036E+02 -0.34060120933E+02  0.22839264550E+02  0.43400692317E+02  0.00000000000E+00 0. -1.
         11    1    4    4    0    0 -0.15732014975E+01  0.11796076317E+02 -0.50785360910E+01  0.12938852674E+02  0.51100000000E-03 0. -1.
        -11    1    4    4    0    0  0.14678807643E+02  0.23135117796E+02 -0.13865978494E+02  0.30707758452E+02  0.51100000000E-03 0.  1.
         12    1    4    4    0    0  0.11034138902E+01 -0.87107317943E+00 -0.38947499649E+01  0.41406965581E+01  0.00000000000E+00 0. -1.
</event>
<event>
 8    1  0.5542925E-011  0.9118800E+02  0.7816164E-02  0.1184000E+00
        -11   -1    0    0    0    0  0.00000000000E+00  0.00000000000E+00  0.45593999997E+02  0.45594000000E+02  0.51100000000E-03 0. -1.
         11   -1    0    0    0    0 -0.00000000000E+00 -0.00000000000E+00 -0.45593999997E+02  0.45594000000E+02  0.51100000000E-03 0.  1.
         23    2    1    2    0    0  0.88817841970E-15  0.00000000000E+00  0.00000000000E+00  0.91188000000E+02  0.91188000000E+02 0.  0.
    9900012    2    3    3    0    0  0.79078483229E+01  0.39464335226E+02 -0.16237468118E+02  0.47787272001E+02  0.20000004363E+02 0.  0.
         12    1    3    3    0    0 -0.79078483229E+01 -0.39464335226E+02  0.16237468118E+02  0.43400727999E+02  0.00000000000E+00 0. -1.
         11    1    4    4    0    0  0.94530092153E+01  0.10645264907E+02  0.42769334259E+00  0.14243032332E+02  0.51100000000E-03 0. -1.
        -11    1    4    4    0    0 -0.15293681973E+01  0.75945645721E+01 -0.30366608795E+01  0.83209186801E+01  0.51100000000E-03 0.  1.
         12    1    4    4    0    0 -0.15792695129E-01  0.21224505748E+02 -0.13628500581E+02  0.25223320989E+02  0.00000000000E+00 0. -1.
</event>
<event>
 8    1  0.5542925E-011  0.9118800E+02  0.7816164E-02  0.1184000E+00
        -11   -1    0    0    0    0  0.00000000000E+00  0.00000000000E+00  0.45593999997E+02  0.45594000000E+02  0.51100000000E-03 0.  1.
         11   -1    0    0    0    0 -0.00000000000E+00 -0.00000000000E+00 -0.45593999997E+02  0.45594000000E+02  0.51100000000E-03 0. -1.
         23    2    1    2    0    0  0.00000000000E+00  0.88817841970E-15  0.00000000000E+00  0.91188000000E+02  0.91188000000E+02 0.  0.
    9900012    2    3    3    0    0 -0.42720603523E+02  0.58476303723E+01  0.49374452357E+01  0.47787272911E+02  0.20000008512E+02 0.  0.
        -12    1    3    3    0    0  0.42720603523E+02 -0.58476303723E+01 -0.49374452357E+01  0.43400727089E+02  0.00000000000E+00 0.  1.
         11    1    4    4    0    0 -0.27226869071E+02 -0.49671193744E+01  0.35526711352E+01  0.27903335763E+02  0.51100000000E-03 0.  1.
        -11    1    4    4    0    0 -0.70887961895E+01  0.17335770484E+01  0.17506522946E+01  0.75047388040E+01  0.51100000000E-03 0. -1.
        -12    1    4    4    0    0 -0.84049382631E+01  0.90811726982E+01 -0.36587819404E+00  0.12379198344E+02  0.00000000000E+00 0.  1.
</event>
<event>
 8    1  0.7191221E-011  0.9118800E+02  0.7816164E-02  0.1184000E+00
        -11   -1    0    0    0    0  0.00000000000E+00  0.00000000000E+00  0.45593999997E+02  0.45594000000E+02  0.51100000000E-03 0. -1.
         11   -1    0    0    0    0 -0.00000000000E+00 -0.00000000000E+00 -0.45593999997E+02  0.45594000000E+02  0.51100000000E-03 0.  1.
         23    2    1    2    0    0  0.71054273576E-14 -0.35527136788E-14 -0.35527136788E-14  0.91188000000E+02  0.91188000000E+02 0.  0.
    9900012    2    3    3    0    0 -0.30118212503E+02  0.93177965642E+01  0.29827758061E+02  0.47787271801E+02  0.20000003451E+02 0.  0.
        -12    1    3    3    0    0  0.30118212503E+02 -0.93177965642E+01 -0.29827758061E+02  0.43400728199E+02  0.00000000000E+00 0.  1.
         11    1    4    4    0    0 -0.15207943704E+01  0.18290107163E+01 -0.17032657987E+01  0.29256128178E+01  0.51100000000E-03 0. -1.
        -11    1    4    4    0    0 -0.43975192927E-02  0.29616343296E+01  0.28258353474E+01  0.40934878663E+01  0.51100000000E-03 0.  1.
         12    1    4    4    0    0 -0.28593020614E+02  0.45271515183E+01  0.28705188513E+02  0.40768171117E+02  0.00000000000E+00 0. -1.
</event>
<event>
 8    1  0.5542925E-011  0.9118800E+02  0.7816164E-02  0.1184000E+00
        -11   -1    0    0    0    0  0.00000000000E+00  0.00000000000E+00  0.45593999997E+02  0.45594000000E+02  0.51100000000E-03 0.  1.
         11   -1    0    0    0    0 -0.00000000000E+00 -0.00000000000E+00 -0.45593999997E+02  0.45594000000E+02  0.51100000000E-03 0. -1.
         23    2    1    2    0    0  0.00000000000E+00  0.00000000000E+00  0.44408920985E-15  0.91188000000E+02  0.91188000000E+02 0.  0.
    9900012    2    3    3    0    0  0.41604228782E+02 -0.12287147738E+02  0.13181752310E+01  0.47787269153E+02  0.19999991376E+02 0.  0.
         12    1    3    3    0    0 -0.41604228782E+02  0.12287147738E+02 -0.13181752310E+01  0.43400730847E+02  0.00000000000E+00 0. -1.
         11    1    4    4    0    0  0.22057619808E+02 -0.11933171454E+02 -0.23171853019E+01  0.25185482337E+02  0.51100000000E-03 0. -1.
        -11    1    4    4    0    0  0.20416474904E+02  0.38976911301E+00  0.47916821964E+01  0.20974856043E+02  0.51100000000E-03 0.  1.
         12    1    4    4    0    0 -0.86986593011E+00 -0.74374539650E+00 -0.11563216635E+01  0.16269307731E+01  0.00000000000E+00 0. -1.
</event>
<event>
 8    1  0.5542925E-011  0.9118800E+02  0.7816164E-02  0.1184000E+00
        -11   -1    0    0    0    0  0.00000000000E+00  0.00000000000E+00  0.45593999997E+02  0.45594000000E+02  0.51100000000E-03 0. -1.
         11   -1    0    0    0    0 -0.00000000000E+00 -0.00000000000E+00 -0.45593999997E+02  0.45594000000E+02  0.51100000000E-03 0.  1.
         23    2    1    2    0    0  0.00000000000E+00 -0.71054273576E-14  0.00000000000E+00  0.91188000000E+02  0.91188000000E+02 0.  0.
    9900012    2    3    3    0    0  0.60214649955E+01 -0.39037893965E+02 -0.17983611335E+02  0.47787245599E+02  0.19999883984E+02 0.  0.
         12    1    3    3    0    0 -0.60214649955E+01  0.39037893965E+02  0.17983611335E+02  0.43400754401E+02  0.00000000000E+00 0. -1.
         11    1    4    4    0    0  0.98974425453E+00 -0.24093416488E+00 -0.45944770284E+01  0.47060453022E+01  0.51100000000E-03 0. -1.
        -11    1    4    4    0    0 -0.13772091465E+01 -0.25698308217E+01  0.16341404280E+01  0.33423271361E+01  0.51100000000E-03 0.  1.
        -12    1    4    4    0    0  0.64089298874E+01 -0.36227128979E+02 -0.15023274734E+02  0.39738873161E+02  0.00000000000E+00 0.  1.
</event>
<event>
 8    1  0.5542925E-011  0.9118800E+02  0.7816164E-02  0.1184000E+00
        -11   -1    0    0    0    0  0.00000000000E+00  0.00000000000E+00  0.45593999997E+02  0.45594000000E+02  0.51100000000E-03 0. -1.
         11   -1    0    0    0    0 -0.00000000000E+00 -0.00000000000E+00 -0.45593999997E+02  0.45594000000E+02  0.51100000000E-03 0.  1.
         23    2    1    2    0    0 -0.35527136788E-14 -0.35527136788E-14  0.00000000000E+00  0.91188000000E+02  0.91188000000E+02 0.  0.
    9900012    2    3    3    0    0 -0.25005389399E+02 -0.29761152081E+02  0.19303563006E+02  0.47787271701E+02  0.20000002992E+02 0.  0.
        -12    1    3    3    0    0  0.25005389399E+02  0.29761152081E+02 -0.19303563006E+02  0.43400728299E+02  0.00000000000E+00 0.  1.
         11    1    4    4    0    0 -0.58769768253E+01 -0.26637069258E+01  0.77868212813E+01  0.10112802634E+02  0.51100000000E-03 0. -1.
        -11    1    4    4    0    0  0.48907519287E+00 -0.20692279476E+00  0.33627971377E+01  0.34044700671E+01  0.51100000000E-03 0.  1.
         12    1    4    4    0    0 -0.19617487767E+02 -0.26890522360E+02  0.81539445869E+01  0.34269998999E+02  0.00000000000E+00 0. -1.
</event>
<event>
 8    1  0.5542925E-011  0.9118800E+02  0.7816164E-02  0.1184000E+00
        -11   -1    0    0    0    0  0.00000000000E+00  0.00000000000E+00  0.45593999997E+02  0.45594000000E+02  0.51100000000E-03 0. -1.
         11   -1    0    0    0    0 -0.00000000000E+00 -0.00000000000E+00 -0.45593999997E+02  0.45594000000E+02  0.51100000000E-03 0.  1.
         23    2    1    2    0    0  0.00000000000E+00  0.00000000000E+00  0.00000000000E+00  0.91188000000E+02  0.91188000000E+02 0.  0.
    9900012    2    3    3    0    0  0.35743194770E+02 -0.48875720777E+01 -0.24127975159E+02  0.47787268227E+02  0.19999987154E+02 0.  0.
         12    1    3    3    0    0 -0.35743194770E+02  0.48875720777E+01  0.24127975159E+02  0.43400731773E+02  0.00000000000E+00 0. -1.
         11    1    4    4    0    0 -0.16326295256E+00  0.45122745250E-01  0.10715659773E+01  0.10848708488E+01  0.51100000000E-03 0. -1.
        -11    1    4    4    0    0  0.17605293928E+02 -0.10096948426E+02 -0.13520248626E+02  0.24386304865E+02  0.51100000000E-03 0.  1.
        -12    1    4    4    0    0  0.18301163795E+02  0.51642536030E+01 -0.11679292511E+02  0.22316092513E+02  0.00000000000E+00 0.  1.
</event>
<event>
 8    1  0.5542925E-011  0.9118800E+02  0.7816164E-02  0.1184000E+00
        -11   -1    0    0    0    0  0.00000000000E+00  0.00000000000E+00  0.45593999997E+02  0.45594000000E+02  0.51100000000E-03 0. -1.
         11   -1    0    0    0    0 -0.00000000000E+00 -0.00000000000E+00 -0.45593999997E+02  0.45594000000E+02  0.51100000000E-03 0.  1.
         23    2    1    2    0    0 -0.71054273576E-14  0.00000000000E+00  0.35527136788E-14  0.91188000000E+02  0.91188000000E+02 0.  0.
    9900012    2    3    3    0    0  0.34394679691E+02 -0.99120348768E+01 -0.24543439702E+02  0.47787275826E+02  0.20000021801E+02 0.  0.
         12    1    3    3    0    0 -0.34394679691E+02  0.99120348768E+01  0.24543439702E+02  0.43400724174E+02  0.00000000000E+00 0. -1.
         11    1    4    4    0    0 -0.22416759846E+00  0.62494691112E+00  0.74816364272E+00  0.10002793866E+01  0.51100000000E-03 0. -1.
        -11    1    4    4    0    0  0.10426883569E+02  0.36290544164E+01 -0.46820255883E+01  0.11992134956E+02  0.51100000000E-03 0.  1.
        -12    1    4    4    0    0  0.24191963720E+02 -0.14166036204E+02 -0.20609577756E+02  0.34794861484E+02  0.00000000000E+00 0.  1.
</event>
<event>
 8    1  0.5542925E-011  0.9118800E+02  0.7816164E-02  0.1184000E+00
        -11   -1    0    0    0    0  0.00000000000E+00  0.00000000000E+00  0.45593999997E+02  0.45594000000E+02  0.51100000000E-03 0. -1.
         11   -1    0    0    0    0 -0.00000000000E+00 -0.00000000000E+00 -0.45593999997E+02  0.45594000000E+02  0.51100000000E-03 0.  1.
         23    2    1    2    0    0  0.00000000000E+00  0.00000000000E+00 -0.71054273576E-14  0.91188000000E+02  0.91188000000E+02 0.  0.
    9900012    2    3    3    0    0 -0.19071225272E+02 -0.20081558084E+02  0.33416201456E+02  0.47787272722E+02  0.20000007649E+02 0.  0.
        -12    1    3    3    0    0  0.19071225272E+02  0.20081558084E+02 -0.33416201456E+02  0.43400727278E+02  0.00000000000E+00 0.  1.
         11    1    4    4    0    0  0.79716684785E+00  0.12199464027E+01  0.21358750584E+01  0.25856733620E+01  0.51100000000E-03 0. -1.
        -11    1    4    4    0    0 -0.34380448779E+00  0.11837094671E+01  0.60410475099E+01  0.61655190298E+01  0.51100000000E-03 0.  1.
        -12    1    4    4    0    0 -0.19524587633E+02 -0.22485213954E+02  0.25239278888E+02  0.39036080330E+02  0.00000000000E+00 0.  1.
</event>
<event>
 8    1  0.5542925E-011  0.9118800E+02  0.7816164E-02  0.1184000E+00
        -11   -1    0    0    0    0  0.00000000000E+00  0.00000000000E+00  0.45593999997E+02  0.45594000000E+02  0.51100000000E-03 0. -1.
         11   -1    0    0    0    0 -0.00000000000E+00 -0.00000000000E+00 -0.45593999997E+02  0.45594000000E+02  0.51100000000E-03 0.  1.
         23    2    1    2    0    0 -0.44408920985E-15  0.17763568394E-14  0.00000000000E+00  0.91188000000E+02  0.91188000000E+02 0.  0.
    9900012    2    3    3    0    0 -0.27606477932E+01 -0.14651099752E+02 -0.40759630670E+02  0.47787269678E+02  0.19999993768E+02 0.  0.
         12    1    3    3    0    0  0.27606477932E+01  0.14651099752E+02  0.40759630670E+02  0.43400730322E+02  0.00000000000E+00 0. -1.
         11    1    4    4    0    0  0.44191107919E+01 -0.70410544172E+01 -0.14198633672E+02  0.16453151246E+02  0.51100000000E-03 0. -1.
        -11    1    4    4    0    0 -0.58824211652E+01 -0.11242223556E+02 -0.21589909280E+02  0.25042257331E+02  0.51100000000E-03 0.  1.
         12    1    4    4    0    0 -0.12973374199E+01  0.36321782215E+01 -0.49710877176E+01  0.62918611006E+01  0.00000000000E+00 0. -1.
</event>
<event>
 8    1  0.5542925E-011  0.9118800E+02  0.7816164E-02  0.1184000E+00
        -11   -1    0    0    0    0  0.00000000000E+00  0.00000000000E+00  0.45593999997E+02  0.45594000000E+02  0.51100000000E-03 0. -1.
         11   -1    0    0    0    0 -0.00000000000E+00 -0.00000000000E+00 -0.45593999997E+02  0.45594000000E+02  0.51100000000E-03 0.  1.
         23    2    1    2    0    0  0.00000000000E+00  0.00000000000E+00  0.35527136788E-14  0.91188000000E+02  0.91188000000E+02 0.  0.
    9900012    2    3    3    0    0  0.27531177348E+02  0.11989364165E+02  0.31335482947E+02  0.47787273384E+02  0.20000010668E+02 0.  0.
        -12    1    3    3    0    0 -0.27531177348E+02 -0.11989364165E+02 -0.31335482947E+02  0.43400726616E+02  0.00000000000E+00 0.  1.
         11    1    4    4    0    0  0.69946295161E+01 -0.68605036931E+00  0.40504643042E+01  0.81118289256E+01  0.51100000000E-03 0. -1.
        -11    1    4    4    0    0 -0.21751740152E+01  0.35369023536E+01  0.55974646338E+01  0.69694096481E+01  0.51100000000E-03 0.  1.
         12    1    4    4    0    0  0.22711721847E+02  0.91385121812E+01  0.21687554009E+02  0.32706034811E+02  0.00000000000E+00 0. -1.
</event>
<event>
 8    1  0.5542925E-011  0.9118800E+02  0.7816164E-02  0.1184000E+00
        -11   -1    0    0    0    0  0.00000000000E+00  0.00000000000E+00  0.45593999997E+02  0.45594000000E+02  0.51100000000E-03 0. -1.
         11   -1    0    0    0    0 -0.00000000000E+00 -0.00000000000E+00 -0.45593999997E+02  0.45594000000E+02  0.51100000000E-03 0.  1.
         23    2    1    2    0    0  0.00000000000E+00 -0.88817841970E-15  0.00000000000E+00  0.91188000000E+02  0.91188000000E+02 0.  0.
    9900012    2    3    3    0    0  0.88120135789E+01  0.44586971589E+01 -0.42262179541E+02  0.47787269784E+02  0.19999994254E+02 0.  0.
         12    1    3    3    0    0 -0.88120135789E+01 -0.44586971589E+01  0.42262179541E+02  0.43400730216E+02  0.00000000000E+00 0. -1.
         11    1    4    4    0    0  0.60091305615E+01 -0.30140966894E+01 -0.11401353356E+02  0.13235757915E+02  0.51100000000E-03 0. -1.
        -11    1    4    4    0    0  0.28796323956E+01 -0.28336724680E+01 -0.15753203785E+02  0.16263007476E+02  0.51100000000E-03 0.  1.
        -12    1    4    4    0    0 -0.76749378239E-01  0.10306466316E+02 -0.15107622399E+02  0.18288504394E+02  0.00000000000E+00 0.  1.
</event>
<event>
 8    1  0.5542925E-011  0.9118800E+02  0.7816164E-02  0.1184000E+00
        -11   -1    0    0    0    0  0.00000000000E+00  0.00000000000E+00  0.45593999997E+02  0.45594000000E+02  0.51100000000E-03 0. -1.
         11   -1    0    0    0    0 -0.00000000000E+00 -0.00000000000E+00 -0.45593999997E+02  0.45594000000E+02  0.51100000000E-03 0.  1.
         23    2    1    2    0    0  0.00000000000E+00  0.00000000000E+00  0.00000000000E+00  0.91188000000E+02  0.91188000000E+02 0.  0.
    9900012    2    3    3    0    0  0.28226571820E+02  0.91090508146E+01  0.31684523343E+02  0.47787272092E+02  0.20000004778E+02 0.  0.
        -12    1    3    3    0    0 -0.28226571820E+02 -0.91090508146E+01 -0.31684523343E+02  0.43400727908E+02  0.00000000000E+00 0.  1.
         11    1    4    4    0    0  0.28439581953E+02  0.38832374897E+01  0.21148450689E+02  0.35653139018E+02  0.51100000000E-03 0. -1.
        -11    1    4    4    0    0 -0.58827956250E+00  0.69384348819E+00  0.34213662773E+00  0.97187929442E+00  0.51100000000E-03 0.  1.
         12    1    4    4    0    0  0.37526943039E+00  0.45319698367E+01  0.10193936026E+02  0.11162253780E+02  0.00000000000E+00 0. -1.
</event>
<event>
 8    1  0.5542925E-011  0.9118800E+02  0.7816164E-02  0.1184000E+00
        -11   -1    0    0    0    0  0.00000000000E+00  0.00000000000E+00  0.45593999997E+02  0.45594000000E+02  0.51100000000E-03 0. -1.
         11   -1    0    0    0    0 -0.00000000000E+00 -0.00000000000E+00 -0.45593999997E+02  0.45594000000E+02  0.51100000000E-03 0.  1.
         23    2    1    2    0    0  0.00000000000E+00  0.00000000000E+00 -0.35527136788E-14  0.91188000000E+02  0.91188000000E+02 0.  0.
    9900012    2    3    3    0    0 -0.30274348651E+02  0.56146593403E+01  0.30586968603E+02  0.47787271503E+02  0.20000002091E+02 0.  0.
        -12    1    3    3    0    0  0.30274348651E+02 -0.56146593403E+01 -0.30586968603E+02  0.43400728497E+02  0.00000000000E+00 0.  1.
         11    1    4    4    0    0 -0.18519344323E+02 -0.82794557228E+00  0.16572484918E+02  0.24865616112E+02  0.51100000000E-03 0. -1.
        -11    1    4    4    0    0 -0.10983400125E+02  0.43628011208E+01  0.37184360158E+01  0.12389345366E+02  0.51100000000E-03 0.  1.
        -12    1    4    4    0    0 -0.77160420278E+00  0.20798037918E+01  0.10296047670E+02  0.10532310025E+02  0.00000000000E+00 0.  1.
</event>
<event>
 8    1  0.5542925E-011  0.9118800E+02  0.7816164E-02  0.1184000E+00
        -11   -1    0    0    0    0  0.00000000000E+00  0.00000000000E+00  0.45593999997E+02  0.45594000000E+02  0.51100000000E-03 0. -1.
         11   -1    0    0    0    0 -0.00000000000E+00 -0.00000000000E+00 -0.45593999997E+02  0.45594000000E+02  0.51100000000E-03 0.  1.
         23    2    1    2    0    0  0.00000000000E+00  0.00000000000E+00  0.00000000000E+00  0.91188000000E+02  0.91188000000E+02 0.  0.
    9900012    2    3    3    0    0  0.57645328409E+01 -0.27683167134E+01 -0.42927027507E+02  0.47787272968E+02  0.20000008771E+02 0.  0.
         12    1    3    3    0    0 -0.57645328409E+01  0.27683167134E+01  0.42927027507E+02  0.43400727032E+02  0.00000000000E+00 0. -1.
         11    1    4    4    0    0  0.49364693110E+01  0.22627280004E+01 -0.26038522939E+02  0.26598747045E+02  0.51100000000E-03 0. -1.
        -11    1    4    4    0    0 -0.22155653901E+01 -0.72084719197E-01 -0.14863229255E+02  0.15027624908E+02  0.51100000000E-03 0.  1.
        -12    1    4    4    0    0  0.30436289200E+01 -0.49589599947E+01 -0.20252753130E+01  0.61609010156E+01  0.00000000000E+00 0.  1.
</event>
<event>
 8    1  0.5542925E-011  0.9118800E+02  0.7816164E-02  0.1184000E+00
        -11   -1    0    0    0    0  0.00000000000E+00  0.00000000000E+00  0.45593999997E+02  0.45594000000E+02  0.51100000000E-03 0. -1.
         11   -1    0    0    0    0 -0.00000000000E+00 -0.00000000000E+00 -0.45593999997E+02  0.45594000000E+02  0.51100000000E-03 0.  1.
         23    2    1    2    0    0  0.00000000000E+00  0.00000000000E+00  0.35527136788E-14  0.91188000000E+02  0.91188000000E+02 0.  0.
    9900012    2    3    3    0    0 -0.25249318502E+02 -0.23338137212E+02 -0.26484433200E+02  0.47787286465E+02  0.20000070311E+02 0.  0.
         12    1    3    3    0    0  0.25249318502E+02  0.23338137212E+02  0.26484433200E+02  0.43400713535E+02  0.00000000000E+00 0. -1.
         11    1    4    4    0    0  0.13235136410E+01 -0.23234930110E+00 -0.19483272093E+01  0.23667813019E+01  0.51100000000E-03 0. -1.
        -11    1    4    4    0    0 -0.15394293680E+02 -0.63777970863E+01 -0.17351442349E+02  0.24056872728E+02  0.51100000000E-03 0.  1.
        -12    1    4    4    0    0 -0.11178538463E+02 -0.16727990825E+02 -0.71846636419E+01  0.21363632436E+02  0.00000000000E+00 0.  1.
</event>
<event>
 8    1  0.5542925E-011  0.9118800E+02  0.7816164E-02  0.1184000E+00
        -11   -1    0    0    0    0  0.00000000000E+00  0.00000000000E+00  0.45593999997E+02  0.45594000000E+02  0.51100000000E-03 0. -1.
         11   -1    0    0    0    0 -0.00000000000E+00 -0.00000000000E+00 -0.45593999997E+02  0.45594000000E+02  0.51100000000E-03 0.  1.
         23    2    1    2    0    0  0.00000000000E+00 -0.71054273576E-14 -0.35527136788E-14  0.91188000000E+02  0.91188000000E+02 0.  0.
    9900012    2    3    3    0    0 -0.14736283061E+02 -0.35316136057E+02  0.20475217512E+02  0.47787285299E+02  0.20000064991E+02 0.  0.
        -12    1    3    3    0    0  0.14736283061E+02  0.35316136057E+02 -0.20475217512E+02  0.43400714701E+02  0.00000000000E+00 0.  1.
         11    1    4    4    0    0 -0.38503702551E+01 -0.17590841850E+01  0.31343221589E+01  0.52672292459E+01  0.51100000000E-03 0. -1.
        -11    1    4    4    0    0 -0.18432083129E+00 -0.98900124276E+01 -0.20553077048E+01  0.10103000050E+02  0.51100000000E-03 0.  1.
         12    1    4    4    0    0 -0.10701591974E+02 -0.23667039444E+02  0.19396203058E+02  0.32417056003E+02  0.00000000000E+00 0. -1.
</event>
<event>
 8    1  0.5542925E-011  0.9118800E+02  0.7816164E-02  0.1184000E+00
        -11   -1    0    0    0    0  0.00000000000E+00  0.00000000000E+00  0.45593999997E+02  0.45594000000E+02  0.51100000000E-03 0. -1.
         11   -1    0    0    0    0 -0.00000000000E+00 -0.00000000000E+00 -0.45593999997E+02  0.45594000000E+02  0.51100000000E-03 0.  1.
         23    2    1    2    0    0  0.35527136788E-14  0.00000000000E+00  0.00000000000E+00  0.91188000000E+02  0.91188000000E+02 0.  0.
    9900012    2    3    3    0    0 -0.26534918174E+02  0.19074482834E+02 -0.28560208240E+02  0.47787271060E+02  0.20000000069E+02 0.  0.
         12    1    3    3    0    0  0.26534918174E+02 -0.19074482834E+02  0.28560208240E+02  0.43400728940E+02  0.00000000000E+00 0. -1.
         11    1    4    4    0    0 -0.65720599076E+00  0.31109217874E+01  0.21076114956E+01  0.38146796142E+01  0.51100000000E-03 0. -1.
        -11    1    4    4    0    0 -0.92830266887E+01  0.95260473456E+01 -0.96648401994E+01  0.16441693917E+02  0.51100000000E-03 0.  1.
         12    1    4    4    0    0 -0.16594685494E+02  0.64375137009E+01 -0.21002979536E+02  0.27530897528E+02  0.00000000000E+00 0. -1.
</event>
<event>
 8    1  0.5542925E-011  0.9118800E+02  0.7816164E-02  0.1184000E+00
        -11   -1    0    0    0    0  0.00000000000E+00  0.00000000000E+00  0.45593999997E+02  0.45594000000E+02  0.51100000000E-03 0.  1.
         11   -1    0    0    0    0 -0.00000000000E+00 -0.00000000000E+00 -0.45593999997E+02  0.45594000000E+02  0.51100000000E-03 0. -1.
         23    2    1    2    0    0 -0.35527136788E-14 -0.35527136788E-14  0.17763568394E-14  0.91188000000E+02  0.91188000000E+02 0.  0.
    9900012    2    3    3    0    0  0.31793833432E+02  0.27746346482E+02 -0.10144746402E+02  0.47787268820E+02  0.19999989858E+02 0.  0.
        -12    1    3    3    0    0 -0.31793833432E+02 -0.27746346482E+02  0.10144746402E+02  0.43400731180E+02  0.00000000000E+00 0.  1.
         11    1    4    4    0    0  0.25960640611E+02  0.20679113618E+02 -0.14602904955E+01  0.33222177074E+02  0.51100000000E-03 0. -1.
        -11    1    4    4    0    0 -0.59569958391E+00  0.25965580958E+00  0.93649827890E+00  0.11398721074E+01  0.51100000000E-03 0.  1.
         12    1    4    4    0    0  0.64288924043E+01  0.68075770549E+01 -0.96209541852E+01  0.13425219638E+02  0.00000000000E+00 0. -1.
</event>
<event>
 8    1  0.5542925E-011  0.9118800E+02  0.7816164E-02  0.1184000E+00
        -11   -1    0    0    0    0  0.00000000000E+00  0.00000000000E+00  0.45593999997E+02  0.45594000000E+02  0.51100000000E-03 0.  1.
         11   -1    0    0    0    0 -0.00000000000E+00 -0.00000000000E+00 -0.45593999997E+02  0.45594000000E+02  0.51100000000E-03 0. -1.
         23    2    1    2    0    0  0.71054273576E-14  0.00000000000E+00 -0.88817841970E-15  0.91188000000E+02  0.91188000000E+02 0.  0.
    9900012    2    3    3    0    0  0.42044555411E+02  0.88595708405E+01 -0.61144473498E+01  0.47787273029E+02  0.20000009050E+02 0.  0.
        -12    1    3    3    0    0 -0.42044555411E+02 -0.88595708405E+01  0.61144473498E+01  0.43400726971E+02  0.00000000000E+00 0.  1.
         11    1    4    4    0    0  0.17620676986E+02 -0.47047246686E+01 -0.42618017018E+01  0.18729272427E+02  0.51100000000E-03 0. -1.
        -11    1    4    4    0    0  0.61770409887E+01  0.40372075877E+01 -0.39449722217E+01  0.83676571735E+01  0.51100000000E-03 0.  1.
        -12    1    4    4    0    0  0.18246837436E+02  0.95270879213E+01  0.20923265737E+01  0.20690343428E+02  0.00000000000E+00 0.  1.
</event>
<event>
 8    1  0.5542925E-011  0.9118800E+02  0.7816164E-02  0.1184000E+00
        -11   -1    0    0    0    0  0.00000000000E+00  0.00000000000E+00  0.45593999997E+02  0.45594000000E+02  0.51100000000E-03 0.  1.
         11   -1    0    0    0    0 -0.00000000000E+00 -0.00000000000E+00 -0.45593999997E+02  0.45594000000E+02  0.51100000000E-03 0. -1.
         23    2    1    2    0    0  0.00000000000E+00  0.00000000000E+00  0.88817841970E-15  0.91188000000E+02  0.91188000000E+02 0.  0.
    9900012    2    3    3    0    0 -0.35102913217E+02 -0.24903500707E+02  0.55878667711E+01  0.47787272830E+02  0.20000008142E+02 0.  0.
         12    1    3    3    0    0  0.35102913217E+02  0.24903500707E+02 -0.55878667711E+01  0.43400727170E+02  0.00000000000E+00 0. -1.
         11    1    4    4    0    0 -0.88793994960E+01 -0.36340599528E+01 -0.37248761467E+01  0.10291978902E+02  0.51100000000E-03 0. -1.
        -11    1    4    4    0    0 -0.69348187024E+01 -0.75111824170E+01 -0.31859964642E+01  0.10707947771E+02  0.51100000000E-03 0.  1.
        -12    1    4    4    0    0 -0.19288695019E+02 -0.13758258338E+02  0.12498739382E+02  0.26787346157E+02  0.00000000000E+00 0.  1.
</event>
<event>
 8    1  0.5542925E-011  0.9118800E+02  0.7816164E-02  0.1184000E+00
        -11   -1    0    0    0    0  0.00000000000E+00  0.00000000000E+00  0.45593999997E+02  0.45594000000E+02  0.51100000000E-03 0. -1.
         11   -1    0    0    0    0 -0.00000000000E+00 -0.00000000000E+00 -0.45593999997E+02  0.45594000000E+02  0.51100000000E-03 0.  1.
         23    2    1    2    0    0  0.88817841970E-15  0.00000000000E+00  0.00000000000E+00  0.91188000000E+02  0.91188000000E+02 0.  0.
    9900012    2    3    3    0    0 -0.77171058777E+01  0.23788367275E+02 -0.35470880447E+02  0.47787268434E+02  0.19999988100E+02 0.  0.
         12    1    3    3    0    0  0.77171058777E+01 -0.23788367275E+02  0.35470880447E+02  0.43400731566E+02  0.00000000000E+00 0. -1.
         11    1    4    4    0    0 -0.35254096148E+01  0.38682255264E+01 -0.42620138538E+01  0.67495513944E+01  0.51100000000E-03 0. -1.
        -11    1    4    4    0    0 -0.11031985355E+01 -0.25260064903E+01 -0.85939619267E+01  0.90251835248E+01  0.51100000000E-03 0.  1.
        -12    1    4    4    0    0 -0.30884977274E+01  0.22446148239E+02 -0.22614904667E+02  0.32012533515E+02  0.00000000000E+00 0.  1.
</event>
<event>
 8    1  0.5542925E-011  0.9118800E+02  0.7816164E-02  0.1184000E+00
        -11   -1    0    0    0    0  0.00000000000E+00  0.00000000000E+00  0.45593999997E+02  0.45594000000E+02  0.51100000000E-03 0.  1.
         11   -1    0    0    0    0 -0.00000000000E+00 -0.00000000000E+00 -0.45593999997E+02  0.45594000000E+02  0.51100000000E-03 0. -1.
         23    2    1    2    0    0 -0.88817841970E-15  0.00000000000E+00 -0.88817841970E-15  0.91188000000E+02  0.91188000000E+02 0.  0.
    9900012    2    3    3    0    0 -0.56610084811E+01 -0.42976959827E+02 -0.21350833343E+01  0.47787254916E+02  0.19999926465E+02 0.  0.
         12    1    3    3    0    0  0.56610084811E+01  0.42976959827E+02  0.21350833343E+01  0.43400745084E+02  0.00000000000E+00 0. -1.
         11    1    4    4    0    0 -0.32448278633E+01 -0.11479034111E+02 -0.65404101220E+01  0.13604194089E+02  0.51100000000E-03 0. -1.
        -11    1    4    4    0    0 -0.39777990810E+01 -0.25470894378E+01 -0.59963276455E+00  0.47613138781E+01  0.51100000000E-03 0.  1.
        -12    1    4    4    0    0  0.15616184632E+01 -0.28950836278E+02  0.50049595523E+01  0.29421746949E+02  0.00000000000E+00 0.  1.
</event>
<event>
 8    1  0.5542925E-011  0.9118800E+02  0.7816164E-02  0.1184000E+00
        -11   -1    0    0    0    0  0.00000000000E+00  0.00000000000E+00  0.45593999997E+02  0.45594000000E+02  0.51100000000E-03 0. -1.
         11   -1    0    0    0    0 -0.00000000000E+00 -0.00000000000E+00 -0.45593999997E+02  0.45594000000E+02  0.51100000000E-03 0.  1.
         23    2    1    2    0    0 -0.35527136788E-14  0.00000000000E+00  0.00000000000E+00  0.91188000000E+02  0.91188000000E+02 0.  0.
    9900012    2    3    3    0    0  0.23982440234E+02 -0.97055143307E+01 -0.34846361627E+02  0.47787269976E+02  0.19999995129E+02 0.  0.
         12    1    3    3    0    0 -0.23982440234E+02  0.97055143307E+01  0.34846361627E+02  0.43400730024E+02  0.00000000000E+00 0. -1.
         11    1    4    4    0    0 -0.71979610538E-01 -0.45364840781E+01 -0.46686443772E+01  0.65100775293E+01  0.51100000000E-03 0. -1.
        -11    1    4    4    0    0  0.61575309239E+01 -0.27889148298E+01 -0.18697487979E+02  0.19881883462E+02  0.51100000000E-03 0.  1.
         12    1    4    4    0    0  0.17896888920E+02 -0.23801154228E+01 -0.11480229271E+02  0.21395308985E+02  0.00000000000E+00 0. -1.
</event>
<event>
 8    1  0.5542925E-011  0.9118800E+02  0.7816164E-02  0.1184000E+00
        -11   -1    0    0    0    0  0.00000000000E+00  0.00000000000E+00  0.45593999997E+02  0.45594000000E+02  0.51100000000E-03 0. -1.
         11   -1    0    0    0    0 -0.00000000000E+00 -0.00000000000E+00 -0.45593999997E+02  0.45594000000E+02  0.51100000000E-03 0.  1.
         23    2    1    2    0    0  0.00000000000E+00  0.00000000000E+00  0.00000000000E+00  0.91188000000E+02  0.91188000000E+02 0.  0.
    9900012    2    3    3    0    0 -0.17504567693E+02  0.33717303964E+02 -0.20984667580E+02  0.47787277078E+02  0.20000027508E+02 0.  0.
         12    1    3    3    0    0  0.17504567693E+02 -0.33717303964E+02  0.20984667580E+02  0.43400722922E+02  0.00000000000E+00 0. -1.
         11    1    4    4    0    0 -0.17050169176E+02  0.12450352542E+02 -0.12942639036E+02  0.24763510511E+02  0.51100000000E-03 0. -1.
        -11    1    4    4    0    0  0.49335818269E+00  0.31766823779E+00 -0.37014996182E+00  0.69377709755E+00  0.51100000000E-03 0.  1.
        -12    1    4    4    0    0 -0.94775669925E+00  0.20949283184E+02 -0.76718785828E+01  0.22329989469E+02  0.00000000000E+00 0.  1.
</event>
<event>
 8    1  0.6956778E-011  0.9118800E+02  0.7816164E-02  0.1184000E+00
        -11   -1    0    0    0    0  0.00000000000E+00  0.00000000000E+00  0.45593999997E+02  0.45594000000E+02  0.51100000000E-03 0. -1.
         11   -1    0    0    0    0 -0.00000000000E+00 -0.00000000000E+00 -0.45593999997E+02  0.45594000000E+02  0.51100000000E-03 0.  1.
         23    2    1    2    0    0  0.00000000000E+00  0.00000000000E+00  0.35527136788E-14  0.91188000000E+02  0.91188000000E+02 0.  0.
    9900012    2    3    3    0    0 -0.35022869707E+02 -0.15889088924E+02  0.20113645445E+02  0.47787270946E+02  0.19999999552E+02 0.  0.
        -12    1    3    3    0    0  0.35022869707E+02  0.15889088924E+02 -0.20113645445E+02  0.43400729054E+02  0.00000000000E+00 0.  1.
         11    1    4    4    0    0 -0.38741377673E+01  0.41093040976E+00 -0.23653556358E+01  0.45577093794E+01  0.51100000000E-03 0. -1.
        -11    1    4    4    0    0 -0.43158365358E+01 -0.74393379822E+01  0.63673762812E+01  0.10701106278E+02  0.51100000000E-03 0.  1.
         12    1    4    4    0    0 -0.26832895404E+02 -0.88606813521E+01  0.16111624799E+02  0.32528455288E+02  0.00000000000E+00 0. -1.
</event>
<event>
 8    1  0.5542925E-011  0.9118800E+02  0.7816164E-02  0.1184000E+00
        -11   -1    0    0    0    0  0.00000000000E+00  0.00000000000E+00  0.45593999997E+02  0.45594000000E+02  0.51100000000E-03 0. -1.
         11   -1    0    0    0    0 -0.00000000000E+00 -0.00000000000E+00 -0.45593999997E+02  0.45594000000E+02  0.51100000000E-03 0.  1.
         23    2    1    2    0    0 -0.35527136788E-14 -0.17763568394E-14 -0.71054273576E-14  0.91188000000E+02  0.91188000000E+02 0.  0.
    9900012    2    3    3    0    0  0.31994928252E+02  0.13851151617E+02  0.25847505863E+02  0.47787269657E+02  0.19999993673E+02 0.  0.
        -12    1    3    3    0    0 -0.31994928252E+02 -0.13851151617E+02 -0.25847505863E+02  0.43400730343E+02  0.00000000000E+00 0.  1.
         11    1    4    4    0    0  0.22461457322E+02  0.67137653635E+01  0.24272741150E+02  0.33745483751E+02  0.51100000000E-03 0. -1.
        -11    1    4    4    0    0  0.80453771665E+01  0.18553081367E+01  0.21277902137E+01  0.85262977597E+01  0.51100000000E-03 0.  1.
         12    1    4    4    0    0  0.14880937640E+01  0.52820781169E+01 -0.55302550114E+00  0.55154881460E+01  0.00000000000E+00 0. -1.
</event>
<event>
 8    1  0.5542925E-011  0.9118800E+02  0.7816164E-02  0.1184000E+00
        -11   -1    0    0    0    0  0.00000000000E+00  0.00000000000E+00  0.45593999997E+02  0.45594000000E+02  0.51100000000E-03 0. -1.
         11   -1    0    0    0    0 -0.00000000000E+00 -0.00000000000E+00 -0.45593999997E+02  0.45594000000E+02  0.51100000000E-03 0.  1.
         23    2    1    2    0    0  0.00000000000E+00  0.00000000000E+00 -0.71054273576E-14  0.91188000000E+02  0.91188000000E+02 0.  0.
    9900012    2    3    3    0    0 -0.59911127141E+01 -0.18681910419E+02  0.38713254857E+02  0.47787270627E+02  0.19999998098E+02 0.  0.
        -12    1    3    3    0    0  0.59911127141E+01  0.18681910419E+02 -0.38713254857E+02  0.43400729373E+02  0.00000000000E+00 0.  1.
         11    1    4    4    0    0 -0.42916840566E+01 -0.75942066197E+01  0.24881952067E+02  0.26366684759E+02  0.51100000000E-03 0. -1.
        -11    1    4    4    0    0 -0.11855314510E+01 -0.32807028588E+01  0.13106974199E+02  0.13563232247E+02  0.51100000000E-03 0.  1.
        -12    1    4    4    0    0 -0.51389720650E+00 -0.78070009404E+01  0.72432859029E+00  0.78573536213E+01  0.00000000000E+00 0.  1.
</event>
<event>
 8    1  0.5542925E-011  0.9118800E+02  0.7816164E-02  0.1184000E+00
        -11   -1    0    0    0    0  0.00000000000E+00  0.00000000000E+00  0.45593999997E+02  0.45594000000E+02  0.51100000000E-03 0. -1.
         11   -1    0    0    0    0 -0.00000000000E+00 -0.00000000000E+00 -0.45593999997E+02  0.45594000000E+02  0.51100000000E-03 0.  1.
         23    2    1    2    0    0 -0.17763568394E-14  0.00000000000E+00  0.00000000000E+00  0.91188000000E+02  0.91188000000E+02 0.  0.
    9900012    2    3    3    0    0  0.82518689041E+01  0.24015209458E+02 -0.35196585507E+02  0.47787271238E+02  0.20000000882E+02 0.  0.
         12    1    3    3    0    0 -0.82518689041E+01 -0.24015209458E+02  0.35196585507E+02  0.43400728762E+02  0.00000000000E+00 0. -1.
         11    1    4    4    0    0 -0.16246096525E+01  0.93927048249E+01 -0.72467365086E+01  0.11974032351E+02  0.51100000000E-03 0. -1.
        -11    1    4    4    0    0  0.17492583176E+01  0.10834293969E+02 -0.69787134393E+01  0.13005547739E+02  0.51100000000E-03 0.  1.
        -12    1    4    4    0    0  0.81272202389E+01  0.37882106639E+01 -0.20971135559E+02  0.22807691148E+02  0.00000000000E+00 0.  1.
</event>
<event>
 8    1  0.5542925E-011  0.9118800E+02  0.7816164E-02  0.1184000E+00
        -11   -1    0    0    0    0  0.00000000000E+00  0.00000000000E+00  0.45593999997E+02  0.45594000000E+02  0.51100000000E-03 0. -1.
         11   -1    0    0    0    0 -0.00000000000E+00 -0.00000000000E+00 -0.45593999997E+02  0.45594000000E+02  0.51100000000E-03 0.  1.
         23    2    1    2    0    0  0.00000000000E+00 -0.88817841970E-15  0.00000000000E+00  0.91188000000E+02  0.91188000000E+02 0.  0.
    9900012    2    3    3    0    0  0.12290846256E+02  0.76852935241E+01 -0.40908369700E+02  0.47787270170E+02  0.19999996013E+02 0.  0.
         12    1    3    3    0    0 -0.12290846256E+02 -0.76852935241E+01  0.40908369700E+02  0.43400729830E+02  0.00000000000E+00 0. -1.
         11    1    4    4    0    0  0.42942910717E+01 -0.29212590261E+01 -0.13757310215E+02  0.14705042493E+02  0.51100000000E-03 0. -1.
        -11    1    4    4    0    0  0.44009244255E+01 -0.23314994583E+01 -0.43104267026E+01  0.65866383036E+01  0.51100000000E-03 0.  1.
        -12    1    4    4    0    0  0.35956307587E+01  0.12938052009E+02 -0.22840632783E+02  0.26495589373E+02  0.00000000000E+00 0.  1.
</event>
<event>
 8    1  0.5542925E-011  0.9118800E+02  0.7816164E-02  0.1184000E+00
        -11   -1    0    0    0    0  0.00000000000E+00  0.00000000000E+00  0.45593999997E+02  0.45594000000E+02  0.51100000000E-03 0. -1.
         11   -1    0    0    0    0 -0.00000000000E+00 -0.00000000000E+00 -0.45593999997E+02  0.45594000000E+02  0.51100000000E-03 0.  1.
         23    2    1    2    0    0  0.71054273576E-14  0.00000000000E+00  0.00000000000E+00  0.91188000000E+02  0.91188000000E+02 0.  0.
    9900012    2    3    3    0    0 -0.41981952684E+02  0.10855648011E+02 -0.18148740472E+01  0.47787271749E+02  0.20000003213E+02 0.  0.
        -12    1    3    3    0    0  0.41981952684E+02 -0.10855648011E+02  0.18148740472E+01  0.43400728251E+02  0.00000000000E+00 0.  1.
         11    1    4    4    0    0 -0.24399770008E+02  0.38386632426E+01  0.28181609979E+01  0.24860131608E+02  0.51100000000E-03 0. -1.
        -11    1    4    4    0    0 -0.15187937473E+02  0.56754566903E+01  0.14252281422E+01  0.16276225879E+02  0.51100000000E-03 0.  1.
        -12    1    4    4    0    0 -0.23942452030E+01  0.13415280779E+01 -0.60582631872E+01  0.66509142621E+01  0.00000000000E+00 0.  1.
</event>
<event>
 8    1  0.5542925E-011  0.9118800E+02  0.7816164E-02  0.1184000E+00
        -11   -1    0    0    0    0  0.00000000000E+00  0.00000000000E+00  0.45593999997E+02  0.45594000000E+02  0.51100000000E-03 0. -1.
         11   -1    0    0    0    0 -0.00000000000E+00 -0.00000000000E+00 -0.45593999997E+02  0.45594000000E+02  0.51100000000E-03 0.  1.
         23    2    1    2    0    0  0.00000000000E+00  0.00000000000E+00  0.00000000000E+00  0.91188000000E+02  0.91188000000E+02 0.  0.
    9900012    2    3    3    0    0 -0.37503981023E+02  0.11259719435E+02  0.18716118452E+02  0.47787274612E+02  0.20000016266E+02 0.  0.
        -12    1    3    3    0    0  0.37503981023E+02 -0.11259719435E+02 -0.18716118452E+02  0.43400725388E+02  0.00000000000E+00 0.  1.
         11    1    4    4    0    0 -0.70904780965E+01  0.41184005511E+01  0.88398692558E+01  0.12057337660E+02  0.51100000000E-03 0. -1.
        -11    1    4    4    0    0  0.25492727692E+00 -0.22176501937E+01  0.10848424230E+01  0.24819032298E+01  0.51100000000E-03 0.  1.
         12    1    4    4    0    0 -0.30668430203E+02  0.93589690772E+01  0.87914067734E+01  0.33248033722E+02  0.00000000000E+00 0. -1.
</event>
<event>
 8    1  0.5542925E-011  0.9118800E+02  0.7816164E-02  0.1184000E+00
        -11   -1    0    0    0    0  0.00000000000E+00  0.00000000000E+00  0.45593999997E+02  0.45594000000E+02  0.51100000000E-03 0.  1.
         11   -1    0    0    0    0 -0.00000000000E+00 -0.00000000000E+00 -0.45593999997E+02  0.45594000000E+02  0.51100000000E-03 0. -1.
         23    2    1    2    0    0  0.00000000000E+00 -0.35527136788E-14  0.44408920985E-15  0.91188000000E+02  0.91188000000E+02 0.  0.
    9900012    2    3    3    0    0 -0.32965271241E+02 -0.28094983199E+02  0.27541978211E+01  0.47787276566E+02  0.20000025177E+02 0.  0.
        -12    1    3    3    0    0  0.32965271241E+02  0.28094983199E+02 -0.27541978211E+01  0.43400723434E+02  0.00000000000E+00 0.  1.
         11    1    4    4    0    0 -0.79399433634E+01 -0.37164626388E+01  0.42898644961E+01  0.97600068041E+01  0.51100000000E-03 0. -1.
        -11    1    4    4    0    0  0.73190092735E+00  0.56949699397E+00  0.17888066521E+01  0.20149032963E+01  0.51100000000E-03 0.  1.
         12    1    4    4    0    0 -0.25757228805E+02 -0.24948017554E+02 -0.33244733270E+01  0.36012366466E+02  0.00000000000E+00 0. -1.
</event>
<event>
 8    1  0.5542925E-011  0.9118800E+02  0.7816164E-02  0.1184000E+00
        -11   -1    0    0    0    0  0.00000000000E+00  0.00000000000E+00  0.45593999997E+02  0.45594000000E+02  0.51100000000E-03 0. -1.
         11   -1    0    0    0    0 -0.00000000000E+00 -0.00000000000E+00 -0.45593999997E+02  0.45594000000E+02  0.51100000000E-03 0.  1.
         23    2    1    2    0    0  0.00000000000E+00  0.00000000000E+00  0.00000000000E+00  0.91188000000E+02  0.91188000000E+02 0.  0.
    9900012    2    3    3    0    0  0.33135095602E+01 -0.24547135787E+02  0.35638202271E+02  0.47787277862E+02  0.20000031086E+02 0.  0.
        -12    1    3    3    0    0 -0.33135095602E+01  0.24547135787E+02 -0.35638202271E+02  0.43400722138E+02  0.00000000000E+00 0.  1.
         11    1    4    4    0    0  0.58571598112E+01 -0.57761927397E+01  0.20433411358E+02  0.22027142884E+02  0.51100000000E-03 0. -1.
        -11    1    4    4    0    0  0.29469248744E+01 -0.36353479222E+01  0.38208986535E+01  0.60414722967E+01  0.51100000000E-03 0.  1.
        -12    1    4    4    0    0 -0.54905751254E+01 -0.15135595125E+02  0.11383892260E+02  0.19718662682E+02  0.00000000000E+00 0.  1.
</event>
<event>
 8    1  0.5542925E-011  0.9118800E+02  0.7816164E-02  0.1184000E+00
        -11   -1    0    0    0    0  0.00000000000E+00  0.00000000000E+00  0.45593999997E+02  0.45594000000E+02  0.51100000000E-03 0. -1.
         11   -1    0    0    0    0 -0.00000000000E+00 -0.00000000000E+00 -0.45593999997E+02  0.45594000000E+02  0.51100000000E-03 0.  1.
         23    2    1    2    0    0  0.00000000000E+00  0.00000000000E+00  0.00000000000E+00  0.91188000000E+02  0.91188000000E+02 0.  0.
    9900012    2    3    3    0    0  0.84385032808E+01  0.65920239119E+01 -0.42059005911E+02  0.47787273104E+02  0.20000009388E+02 0.  0.
         12    1    3    3    0    0 -0.84385032808E+01 -0.65920239119E+01  0.42059005911E+02  0.43400726896E+02  0.00000000000E+00 0. -1.
         11    1    4    4    0    0  0.16609592285E+01  0.72226019226E+01 -0.89211687275E+01  0.11597931532E+02  0.51100000000E-03 0. -1.
        -11    1    4    4    0    0  0.70894444175E+01  0.50813421451E+01 -0.17871493472E+02  0.19886441093E+02  0.51100000000E-03 0.  1.
         12    1    4    4    0    0 -0.31190036516E+00 -0.57119201558E+01 -0.15266343712E+02  0.16302900479E+02  0.00000000000E+00 0. -1.
</event>
<event>
 8    1  0.5542925E-011  0.9118800E+02  0.7816164E-02  0.1184000E+00
        -11   -1    0    0    0    0  0.00000000000E+00  0.00000000000E+00  0.45593999997E+02  0.45594000000E+02  0.51100000000E-03 0. -1.
         11   -1    0    0    0    0 -0.00000000000E+00 -0.00000000000E+00 -0.45593999997E+02  0.45594000000E+02  0.51100000000E-03 0.  1.
         23    2    1    2    0    0  0.00000000000E+00  0.17763568394E-14  0.71054273576E-14  0.91188000000E+02  0.91188000000E+02 0.  0.
    9900012    2    3    3    0    0 -0.36237912039E+01 -0.94699525186E+01 -0.42199671291E+02  0.47787261291E+02  0.19999955530E+02 0.  0.
         12    1    3    3    0    0  0.36237912039E+01  0.94699525186E+01  0.42199671291E+02  0.43400738709E+02  0.00000000000E+00 0. -1.
         11    1    4    4    0    0  0.10435171936E+01 -0.35111309250E+01 -0.12524425621E+02  0.13049069159E+02  0.51100000000E-03 0. -1.
        -11    1    4    4    0    0 -0.31869434507E+01 -0.60498496854E+01 -0.31586948443E+02  0.32318610768E+02  0.51100000000E-03 0.  1.
         12    1    4    4    0    0 -0.14803649468E+01  0.91028091728E-01  0.19117027726E+01  0.24195813646E+01  0.00000000000E+00 0. -1.
</event>
<event>
 8    1  0.5542925E-011  0.9118800E+02  0.7816164E-02  0.1184000E+00
        -11   -1    0    0    0    0  0.00000000000E+00  0.00000000000E+00  0.45593999997E+02  0.45594000000E+02  0.51100000000E-03 0.  1.
         11   -1    0    0    0    0 -0.00000000000E+00 -0.00000000000E+00 -0.45593999997E+02  0.45594000000E+02  0.51100000000E-03 0. -1.
         23    2    1    2    0    0  0.00000000000E+00  0.00000000000E+00 -0.88817841970E-15  0.91188000000E+02  0.91188000000E+02 0.  0.
    9900012    2    3    3    0    0 -0.24842490721E+02  0.35358496662E+02 -0.40312057400E+01  0.47787271306E+02  0.20000001194E+02 0.  0.
         12    1    3    3    0    0  0.24842490721E+02 -0.35358496662E+02  0.40312057400E+01  0.43400728694E+02  0.00000000000E+00 0. -1.
         11    1    4    4    0    0 -0.15748185159E+02  0.16843224912E+02  0.48994422113E+01  0.23573376836E+02  0.51100000000E-03 0. -1.
        -11    1    4    4    0    0 -0.20312013587E+01  0.13282475432E+02 -0.35142896243E+01  0.13888850362E+02  0.51100000000E-03 0.  1.
        -12    1    4    4    0    0 -0.70631042027E+01  0.52327963188E+01 -0.54163583270E+01  0.10325044107E+02  0.00000000000E+00 0.  1.
</event>
<event>
 8    1  0.5542925E-011  0.9118800E+02  0.7816164E-02  0.1184000E+00
        -11   -1    0    0    0    0  0.00000000000E+00  0.00000000000E+00  0.45593999997E+02  0.45594000000E+02  0.51100000000E-03 0. -1.
         11   -1    0    0    0    0 -0.00000000000E+00 -0.00000000000E+00 -0.45593999997E+02  0.45594000000E+02  0.51100000000E-03 0.  1.
         23    2    1    2    0    0 -0.88817841970E-15 -0.35527136788E-14  0.00000000000E+00  0.91188000000E+02  0.91188000000E+02 0.  0.
    9900012    2    3    3    0    0 -0.73916249385E+01 -0.28916051952E+02 -0.31509503261E+02  0.47787274482E+02  0.20000015671E+02 0.  0.
         12    1    3    3    0    0  0.73916249385E+01  0.28916051952E+02  0.31509503261E+02  0.43400725518E+02  0.00000000000E+00 0. -1.
         11    1    4    4    0    0 -0.43135092371E+01 -0.35275979817E+01 -0.20698803541E+01  0.59443010018E+01  0.51100000000E-03 0. -1.
        -11    1    4    4    0    0 -0.82490460816E+01 -0.77997647100E+01 -0.10104902792E+02  0.15198425954E+02  0.51100000000E-03 0.  1.
         12    1    4    4    0    0  0.51709303802E+01 -0.17588689261E+02 -0.19334720115E+02  0.26644547525E+02  0.00000000000E+00 0. -1.
</event>
<event>
 8    1  0.5856944E-011  0.9118800E+02  0.7816164E-02  0.1184000E+00
        -11   -1    0    0    0    0  0.00000000000E+00  0.00000000000E+00  0.45593999997E+02  0.45594000000E+02  0.51100000000E-03 0. -1.
         11   -1    0    0    0    0 -0.00000000000E+00 -0.00000000000E+00 -0.45593999997E+02  0.45594000000E+02  0.51100000000E-03 0.  1.
         23    2    1    2    0    0  0.17763568394E-14 -0.17763568394E-14 -0.71054273576E-14  0.91188000000E+02  0.91188000000E+02 0.  0.
    9900012    2    3    3    0    0 -0.99485893302E+01  0.12305347761E+02  0.40413214160E+02  0.47787263924E+02  0.19999967537E+02 0.  0.
        -12    1    3    3    0    0  0.99485893302E+01 -0.12305347761E+02 -0.40413214160E+02  0.43400736076E+02  0.00000000000E+00 0.  1.
         11    1    4    4    0    0  0.51573752275E+00  0.12994569674E+02  0.21583284924E+02  0.25198472466E+02  0.51100000000E-03 0. -1.
        -11    1    4    4    0    0 -0.73543627023E-01 -0.19080049030E+01  0.19465556710E+01  0.27267142528E+01  0.51100000000E-03 0.  1.
         12    1    4    4    0    0 -0.10390783226E+02  0.12187829901E+01  0.16883373564E+02  0.19862077206E+02  0.00000000000E+00 0. -1.
</event>
<event>
 8    1  0.5542925E-011  0.9118800E+02  0.7816164E-02  0.1184000E+00
        -11   -1    0    0    0    0  0.00000000000E+00  0.00000000000E+00  0.45593999997E+02  0.45594000000E+02  0.51100000000E-03 0. -1.
         11   -1    0    0    0    0 -0.00000000000E+00 -0.00000000000E+00 -0.45593999997E+02  0.45594000000E+02  0.51100000000E-03 0.  1.
         23    2    1    2    0    0 -0.88817841970E-15  0.00000000000E+00  0.35527136788E-14  0.91188000000E+02  0.91188000000E+02 0.  0.
    9900012    2    3    3    0    0  0.49811009664E+01 -0.33625790944E+02 -0.26983680414E+02  0.47787260466E+02  0.19999951768E+02 0.  0.
         12    1    3    3    0    0 -0.49811009664E+01  0.33625790944E+02  0.26983680414E+02  0.43400739534E+02  0.00000000000E+00 0. -1.
         11    1    4    4    0    0  0.65693536063E+00 -0.26307555057E+00  0.21987835728E+00  0.74102602280E+00  0.51100000000E-03 0. -1.
        -11    1    4    4    0    0  0.64852804804E+01 -0.12902700036E+02 -0.21059502418E+01  0.14593613596E+02  0.51100000000E-03 0.  1.
         12    1    4    4    0    0 -0.21611148746E+01 -0.20460015358E+02 -0.25097608529E+02  0.32452620847E+02  0.00000000000E+00 0. -1.
</event>
<event>
 8    1  0.5542925E-011  0.9118800E+02  0.7816164E-02  0.1184000E+00
        -11   -1    0    0    0    0  0.00000000000E+00  0.00000000000E+00  0.45593999997E+02  0.45594000000E+02  0.51100000000E-03 0. -1.
         11   -1    0    0    0    0 -0.00000000000E+00 -0.00000000000E+00 -0.45593999997E+02  0.45594000000E+02  0.51100000000E-03 0.  1.
         23    2    1    2    0    0 -0.88817841970E-15  0.00000000000E+00  0.00000000000E+00  0.91188000000E+02  0.91188000000E+02 0.  0.
    9900012    2    3    3    0    0  0.60192660278E+01 -0.17368156116E+02 -0.39315886875E+02  0.47787269923E+02  0.19999994889E+02 0.  0.
         12    1    3    3    0    0 -0.60192660278E+01  0.17368156116E+02  0.39315886875E+02  0.43400730077E+02  0.00000000000E+00 0. -1.
         11    1    4    4    0    0 -0.84220653655E+00 -0.22532436695E+01  0.16146111926E+00  0.24109103754E+01  0.51100000000E-03 0. -1.
        -11    1    4    4    0    0  0.15616667068E+01  0.30625465889E+01 -0.62224541105E+01  0.71089331078E+01  0.51100000000E-03 0.  1.
        -12    1    4    4    0    0  0.52998058576E+01 -0.18177459035E+02 -0.33254893884E+02  0.38267426440E+02  0.00000000000E+00 0.  1.
</event>
<event>
 8    1  0.5542925E-011  0.9118800E+02  0.7816164E-02  0.1184000E+00
        -11   -1    0    0    0    0  0.00000000000E+00  0.00000000000E+00  0.45593999997E+02  0.45594000000E+02  0.51100000000E-03 0.  1.
         11   -1    0    0    0    0 -0.00000000000E+00 -0.00000000000E+00 -0.45593999997E+02  0.45594000000E+02  0.51100000000E-03 0. -1.
         23    2    1    2    0    0  0.00000000000E+00  0.17763568394E-14  0.00000000000E+00  0.91188000000E+02  0.91188000000E+02 0.  0.
    9900012    2    3    3    0    0 -0.38859765487E+02  0.14111920616E+02  0.13205889411E+02  0.47787271984E+02  0.20000004284E+02 0.  0.
        -12    1    3    3    0    0  0.38859765487E+02 -0.14111920616E+02 -0.13205889411E+02  0.43400728016E+02  0.00000000000E+00 0.  1.
         11    1    4    4    0    0 -0.16300104511E+02  0.44121378298E+01 -0.18829726371E+01  0.16991349373E+02  0.51100000000E-03 0. -1.
        -11    1    4    4    0    0 -0.20262815399E+02  0.60050841939E+01  0.82427568008E+01  0.22684482891E+02  0.51100000000E-03 0.  1.
        -12    1    4    4    0    0 -0.22968455771E+01  0.36946985925E+01  0.68461052468E+01  0.81114397208E+01  0.00000000000E+00 0.  1.
</event>
<event>
 8    1  0.5542925E-011  0.9118800E+02  0.7816164E-02  0.1184000E+00
        -11   -1    0    0    0    0  0.00000000000E+00  0.00000000000E+00  0.45593999997E+02  0.45594000000E+02  0.51100000000E-03 0. -1.
         11   -1    0    0    0    0 -0.00000000000E+00 -0.00000000000E+00 -0.45593999997E+02  0.45594000000E+02  0.51100000000E-03 0.  1.
         23    2    1    2    0    0 -0.17763568394E-14  0.71054273576E-14  0.35527136788E-14  0.91188000000E+02  0.91188000000E+02 0.  0.
    9900012    2    3    3    0    0 -0.75177085468E+01  0.32609065734E+02  0.27636142001E+02  0.47787268963E+02  0.19999990511E+02 0.  0.
        -12    1    3    3    0    0  0.75177085468E+01 -0.32609065734E+02 -0.27636142001E+02  0.43400731037E+02  0.00000000000E+00 0.  1.
         11    1    4    4    0    0 -0.76446680190E+01  0.30673967817E+02  0.26438563158E+02  0.41210810146E+02  0.51100000000E-03 0. -1.
        -11    1    4    4    0    0 -0.16868602495E+01  0.35907432651E+01  0.11077502701E+01  0.41189859941E+01  0.51100000000E-03 0.  1.
        -12    1    4    4    0    0  0.18138197216E+01 -0.16556453488E+01  0.89828573368E-01  0.24574728231E+01  0.00000000000E+00 0.  1.
</event>
<event>
 8    1  0.6331187E-011  0.9118800E+02  0.7816164E-02  0.1184000E+00
        -11   -1    0    0    0    0  0.00000000000E+00  0.00000000000E+00  0.45593999997E+02  0.45594000000E+02  0.51100000000E-03 0. -1.
         11   -1    0    0    0    0 -0.00000000000E+00 -0.00000000000E+00 -0.45593999997E+02  0.45594000000E+02  0.51100000000E-03 0.  1.
         23    2    1    2    0    0  0.00000000000E+00  0.00000000000E+00  0.00000000000E+00  0.91188000000E+02  0.91188000000E+02 0.  0.
    9900012    2    3    3    0    0  0.13362053286E+02 -0.11084555638E+02  0.39777023940E+02  0.47787268725E+02  0.19999989423E+02 0.  0.
        -12    1    3    3    0    0 -0.13362053286E+02  0.11084555638E+02 -0.39777023940E+02  0.43400731275E+02  0.00000000000E+00 0.  1.
         11    1    4    4    0    0  0.63543932022E+01 -0.76968707795E+01  0.10780704663E+02  0.14691620947E+02  0.51100000000E-03 0. -1.
        -11    1    4    4    0    0 -0.32116464349E+01 -0.36116801415E+01  0.47219371929E+01  0.67568925832E+01  0.51100000000E-03 0.  1.
         12    1    4    4    0    0  0.10219306518E+02  0.22399528277E+00  0.24274382084E+02  0.26338755194E+02  0.00000000000E+00 0. -1.
</event>
<event>
 8    1  0.5542925E-011  0.9118800E+02  0.7816164E-02  0.1184000E+00
        -11   -1    0    0    0    0  0.00000000000E+00  0.00000000000E+00  0.45593999997E+02  0.45594000000E+02  0.51100000000E-03 0. -1.
         11   -1    0    0    0    0 -0.00000000000E+00 -0.00000000000E+00 -0.45593999997E+02  0.45594000000E+02  0.51100000000E-03 0.  1.
         23    2    1    2    0    0  0.00000000000E+00  0.35527136788E-14  0.00000000000E+00  0.91188000000E+02  0.91188000000E+02 0.  0.
    9900012    2    3    3    0    0 -0.16193723634E+02  0.31991062906E+02 -0.24453181495E+02  0.47787275626E+02  0.20000020888E+02 0.  0.
         12    1    3    3    0    0  0.16193723634E+02 -0.31991062906E+02  0.24453181495E+02  0.43400724374E+02  0.00000000000E+00 0. -1.
         11    1    4    4    0    0 -0.99617573344E+01  0.91474707485E+01 -0.53471127021E+01  0.14543192387E+02  0.51100000000E-03 0. -1.
        -11    1    4    4    0    0 -0.93973661041E+01  0.17145819234E+02 -0.97686122339E+01  0.21856701310E+02  0.51100000000E-03 0.  1.
        -12    1    4    4    0    0  0.31653998048E+01  0.56977729231E+01 -0.93374565593E+01  0.11387381929E+02  0.00000000000E+00 0.  1.
</event>
<event>
 8    1  0.5542925E-011  0.9118800E+02  0.7816164E-02  0.1184000E+00
        -11   -1    0    0    0    0  0.00000000000E+00  0.00000000000E+00  0.45593999997E+02  0.45594000000E+02  0.51100000000E-03 0. -1.
         11   -1    0    0    0    0 -0.00000000000E+00 -0.00000000000E+00 -0.45593999997E+02  0.45594000000E+02  0.51100000000E-03 0.  1.
         23    2    1    2    0    0  0.17763568394E-14  0.00000000000E+00  0.00000000000E+00  0.91188000000E+02  0.91188000000E+02 0.  0.
    9900012    2    3    3    0    0 -0.12683774956E+02 -0.10709058512E+02 -0.40100639435E+02  0.47787270001E+02  0.19999995241E+02 0.  0.
         12    1    3    3    0    0  0.12683774956E+02  0.10709058512E+02  0.40100639435E+02  0.43400729999E+02  0.00000000000E+00 0. -1.
         11    1    4    4    0    0  0.25631395839E+00  0.59569765124E+00  0.18754568209E+01  0.19844120251E+01  0.51100000000E-03 0. -1.
        -11    1    4    4    0    0 -0.61796368544E+01 -0.32955351689E+01 -0.10446619274E+02  0.12576975719E+02  0.51100000000E-03 0.  1.
         12    1    4    4    0    0 -0.67604520601E+01 -0.80092209943E+01 -0.31529476982E+02  0.33225882257E+02  0.00000000000E+00 0. -1.
</event>
<event>
 8    1  0.6534132E-011  0.9118800E+02  0.7816164E-02  0.1184000E+00
        -11   -1    0    0    0    0  0.00000000000E+00  0.00000000000E+00  0.45593999997E+02  0.45594000000E+02  0.51100000000E-03 0. -1.
         11   -1    0    0    0    0 -0.00000000000E+00 -0.00000000000E+00 -0.45593999997E+02  0.45594000000E+02  0.51100000000E-03 0.  1.
         23    2    1    2    0    0  0.00000000000E+00  0.00000000000E+00  0.71054273576E-14  0.91188000000E+02  0.91188000000E+02 0.  0.
    9900012    2    3    3    0    0 -0.14959104487E+02 -0.16729620710E+02  0.37147924474E+02  0.47787270641E+02  0.19999998160E+02 0.  0.
        -12    1    3    3    0    0  0.14959104487E+02  0.16729620710E+02 -0.37147924474E+02  0.43400729359E+02  0.00000000000E+00 0.  1.
         11    1    4    4    0    0 -0.76448309780E+01 -0.38247764703E+01  0.88337937522E+01  0.12292610302E+02  0.51100000000E-03 0. -1.
        -11    1    4    4    0    0 -0.30819683816E+01  0.27420602465E+01  0.19895829809E+01  0.45799415061E+01  0.51100000000E-03 0.  1.
         12    1    4    4    0    0 -0.42323051271E+01 -0.15646904487E+02  0.26324547741E+02  0.30914718832E+02  0.00000000000E+00 0. -1.
</event>
<event>
 8    1  0.5542925E-011  0.9118800E+02  0.7816164E-02  0.1184000E+00
        -11   -1    0    0    0    0  0.00000000000E+00  0.00000000000E+00  0.45593999997E+02  0.45594000000E+02  0.51100000000E-03 0. -1.
         11   -1    0    0    0    0 -0.00000000000E+00 -0.00000000000E+00 -0.45593999997E+02  0.45594000000E+02  0.51100000000E-03 0.  1.
         23    2    1    2    0    0 -0.44408920985E-15  0.35527136788E-14  0.00000000000E+00  0.91188000000E+02  0.91188000000E+02 0.  0.
    9900012    2    3    3    0    0  0.30220717470E+01 -0.27969340676E+02  0.33048527151E+02  0.47787284772E+02  0.20000062588E+02 0.  0.
        -12    1    3    3    0    0 -0.30220717470E+01  0.27969340676E+02 -0.33048527151E+02  0.43400715228E+02  0.00000000000E+00 0.  1.
         11    1    4    4    0    0 -0.55928147323E+01 -0.66312056180E+01  0.10090315903E+02  0.13306650212E+02  0.51100000000E-03 0. -1.
        -11    1    4    4    0    0 -0.19894798599E+01 -0.43914842569E+01  0.86292318705E+01  0.98846753627E+01  0.51100000000E-03 0.  1.
         12    1    4    4    0    0  0.10604366339E+02 -0.16946650801E+02  0.14328979377E+02  0.24595959197E+02  0.00000000000E+00 0. -1.
</event>
<event>
 8    1  0.5542925E-011  0.9118800E+02  0.7816164E-02  0.1184000E+00
        -11   -1    0    0    0    0  0.00000000000E+00  0.00000000000E+00  0.45593999997E+02  0.45594000000E+02  0.51100000000E-03 0. -1.
         11   -1    0    0    0    0 -0.00000000000E+00 -0.00000000000E+00 -0.45593999997E+02  0.45594000000E+02  0.51100000000E-03 0.  1.
         23    2    1    2    0    0  0.00000000000E+00 -0.17763568394E-14  0.00000000000E+00  0.91188000000E+02  0.91188000000E+02 0.  0.
    9900012    2    3    3    0    0  0.40071807974E+02 -0.11665522642E+02  0.11907503350E+02  0.47787275941E+02  0.20000022325E+02 0.  0.
        -12    1    3    3    0    0 -0.40071807974E+02  0.11665522642E+02 -0.11907503350E+02  0.43400724059E+02  0.00000000000E+00 0.  1.
         11    1    4    4    0    0  0.12349873402E+02 -0.83621862199E+01  0.25901564513E+01  0.15137848002E+02  0.51100000000E-03 0. -1.
        -11    1    4    4    0    0 -0.10487071700E+01 -0.21843913313E+01  0.12922071848E+00  0.24265305421E+01  0.51100000000E-03 0.  1.
        -12    1    4    4    0    0  0.28770641742E+02 -0.11189450911E+01  0.91881261806E+01  0.30222897397E+02  0.00000000000E+00 0.  1.
</event>
<event>
 8    1  0.5542925E-011  0.9118800E+02  0.7816164E-02  0.1184000E+00
        -11   -1    0    0    0    0  0.00000000000E+00  0.00000000000E+00  0.45593999997E+02  0.45594000000E+02  0.51100000000E-03 0.  1.
         11   -1    0    0    0    0 -0.00000000000E+00 -0.00000000000E+00 -0.45593999997E+02  0.45594000000E+02  0.51100000000E-03 0. -1.
         23    2    1    2    0    0  0.35527136788E-14  0.35527136788E-14  0.00000000000E+00  0.91188000000E+02  0.91188000000E+02 0.  0.
    9900012    2    3    3    0    0  0.25472941420E+02  0.14105304784E+02  0.32183736447E+02  0.47787271212E+02  0.20000000764E+02 0.  0.
        -12    1    3    3    0    0 -0.25472941420E+02 -0.14105304784E+02 -0.32183736447E+02  0.43400728788E+02  0.00000000000E+00 0.  1.
         11    1    4    4    0    0  0.10337960751E+02  0.11479500065E+02  0.10602288112E+02  0.18736618364E+02  0.51100000000E-03 0. -1.
        -11    1    4    4    0    0  0.62444244195E+01  0.26108076324E+01  0.18404416594E+02  0.19609479933E+02  0.51100000000E-03 0.  1.
         12    1    4    4    0    0  0.88905562494E+01  0.14997087291E-01  0.31770317408E+01  0.94411729154E+01  0.00000000000E+00 0. -1.
</event>
<event>
 8    1  0.5542925E-011  0.9118800E+02  0.7816164E-02  0.1184000E+00
        -11   -1    0    0    0    0  0.00000000000E+00  0.00000000000E+00  0.45593999997E+02  0.45594000000E+02  0.51100000000E-03 0.  1.
         11   -1    0    0    0    0 -0.00000000000E+00 -0.00000000000E+00 -0.45593999997E+02  0.45594000000E+02  0.51100000000E-03 0. -1.
         23    2    1    2    0    0  0.00000000000E+00  0.00000000000E+00  0.17763568394E-14  0.91188000000E+02  0.91188000000E+02 0.  0.
    9900012    2    3    3    0    0  0.40983661297E+02 -0.95809299102E+01  0.10590935152E+02  0.47787278593E+02  0.20000034416E+02 0.  0.
        -12    1    3    3    0    0 -0.40983661297E+02  0.95809299102E+01 -0.10590935152E+02  0.43400721407E+02  0.00000000000E+00 0.  1.
         11    1    4    4    0    0  0.29636364310E+02  0.20333331881E+01  0.37048685360E+01  0.29936175182E+02  0.51100000000E-03 0. -1.
        -11    1    4    4    0    0  0.24209093190E+01 -0.26064264899E+01  0.32301828053E+00  0.35719185389E+01  0.51100000000E-03 0.  1.
        -12    1    4    4    0    0  0.89263876681E+01 -0.90078366084E+01  0.65630483358E+01  0.14279184872E+02  0.00000000000E+00 0.  1.
</event>
<event>
 8    1  0.5542925E-011  0.9118800E+02  0.7816164E-02  0.1184000E+00
        -11   -1    0    0    0    0  0.00000000000E+00  0.00000000000E+00  0.45593999997E+02  0.45594000000E+02  0.51100000000E-03 0. -1.
         11   -1    0    0    0    0 -0.00000000000E+00 -0.00000000000E+00 -0.45593999997E+02  0.45594000000E+02  0.51100000000E-03 0.  1.
         23    2    1    2    0    0  0.00000000000E+00  0.00000000000E+00  0.00000000000E+00  0.91188000000E+02  0.91188000000E+02 0.  0.
    9900012    2    3    3    0    0 -0.17565413056E+02 -0.11875132360E+02  0.37868993550E+02  0.47787272162E+02  0.20000005095E+02 0.  0.
        -12    1    3    3    0    0  0.17565413056E+02  0.11875132360E+02 -0.37868993550E+02  0.43400727838E+02  0.00000000000E+00 0.  1.
         11    1    4    4    0    0 -0.16882099097E+01  0.35164208067E+00  0.11410861602E+02  0.11540427532E+02  0.51100000000E-03 0. -1.
        -11    1    4    4    0    0 -0.78074596304E+01 -0.25946833506E+01  0.20986369188E+02  0.22541439606E+02  0.51100000000E-03 0.  1.
         12    1    4    4    0    0 -0.80697435156E+01 -0.96320910902E+01  0.54717627603E+01  0.13705405024E+02  0.00000000000E+00 0. -1.
</event>
<event>
 8    1  0.5542925E-011  0.9118800E+02  0.7816164E-02  0.1184000E+00
        -11   -1    0    0    0    0  0.00000000000E+00  0.00000000000E+00  0.45593999997E+02  0.45594000000E+02  0.51100000000E-03 0. -1.
         11   -1    0    0    0    0 -0.00000000000E+00 -0.00000000000E+00 -0.45593999997E+02  0.45594000000E+02  0.51100000000E-03 0.  1.
         23    2    1    2    0    0 -0.35527136788E-14  0.00000000000E+00  0.00000000000E+00  0.91188000000E+02  0.91188000000E+02 0.  0.
    9900012    2    3    3    0    0 -0.18748377213E+02 -0.31541521817E+02  0.23178730731E+02  0.47787276447E+02  0.20000024631E+02 0.  0.
        -12    1    3    3    0    0  0.18748377213E+02  0.31541521817E+02 -0.23178730731E+02  0.43400723553E+02  0.00000000000E+00 0.  1.
         11    1    4    4    0    0  0.10140235205E+01 -0.65749626257E+01  0.37173577965E+01  0.76208350249E+01  0.51100000000E-03 0. -1.
        -11    1    4    4    0    0  0.94617271616E+00 -0.56842539430E+01  0.74706623169E+01  0.94348705032E+01  0.51100000000E-03 0.  1.
         12    1    4    4    0    0 -0.20708573450E+02 -0.19282305248E+02  0.11990710618E+02  0.30731570919E+02  0.00000000000E+00 0. -1.
</event>
<event>
 8    1  0.8475111E-011  0.9118800E+02  0.7816164E-02  0.1184000E+00
        -11   -1    0    0    0    0  0.00000000000E+00  0.00000000000E+00  0.45593999997E+02  0.45594000000E+02  0.51100000000E-03 0. -1.
         11   -1    0    0    0    0 -0.00000000000E+00 -0.00000000000E+00 -0.45593999997E+02  0.45594000000E+02  0.51100000000E-03 0.  1.
         23    2    1    2    0    0  0.00000000000E+00  0.00000000000E+00  0.00000000000E+00  0.91188000000E+02  0.91188000000E+02 0.  0.
    9900012    2    3    3    0    0 -0.17839882670E+02 -0.20616698524E+01  0.39510900786E+02  0.47787272159E+02  0.20000005080E+02 0.  0.
        -12    1    3    3    0    0  0.17839882670E+02  0.20616698524E+01 -0.39510900786E+02  0.43400727841E+02  0.00000000000E+00 0.  1.
         11    1    4    4    0    0 -0.53825267932E+01 -0.12106999552E+01  0.22950301871E+01  0.59753286841E+01  0.51100000000E-03 0. -1.
        -11    1    4    4    0    0  0.15379736456E+01  0.19606286285E+01  0.67491821624E+00  0.25816549756E+01  0.51100000000E-03 0.  1.
         12    1    4    4    0    0 -0.13995329522E+02 -0.28115985257E+01  0.36540952382E+02  0.39230288499E+02  0.00000000000E+00 0. -1.
</event>
<event>
 8    1  0.5542925E-011  0.9118800E+02  0.7816164E-02  0.1184000E+00
        -11   -1    0    0    0    0  0.00000000000E+00  0.00000000000E+00  0.45593999997E+02  0.45594000000E+02  0.51100000000E-03 0. -1.
         11   -1    0    0    0    0 -0.00000000000E+00 -0.00000000000E+00 -0.45593999997E+02  0.45594000000E+02  0.51100000000E-03 0.  1.
         23    2    1    2    0    0  0.88817841970E-15  0.00000000000E+00  0.00000000000E+00  0.91188000000E+02  0.91188000000E+02 0.  0.
    9900012    2    3    3    0    0  0.43151650739E+01  0.14620066480E+02  0.40635650278E+02  0.47787273427E+02  0.20000010864E+02 0.  0.
        -12    1    3    3    0    0 -0.43151650739E+01 -0.14620066480E+02 -0.40635650278E+02  0.43400726573E+02  0.00000000000E+00 0.  1.
         11    1    4    4    0    0 -0.49270391696E+01  0.77232098732E+01  0.14625932831E+02  0.17258087877E+02  0.51100000000E-03 0. -1.
        -11    1    4    4    0    0 -0.22001775484E+01 -0.55237704320E+00  0.28273713737E+01  0.36249042454E+01  0.51100000000E-03 0.  1.
         12    1    4    4    0    0  0.11442381792E+02  0.74492336503E+01  0.23182346073E+02  0.26904281305E+02  0.00000000000E+00 0. -1.
</event>
<event>
 8    1  0.5542925E-011  0.9118800E+02  0.7816164E-02  0.1184000E+00
        -11   -1    0    0    0    0  0.00000000000E+00  0.00000000000E+00  0.45593999997E+02  0.45594000000E+02  0.51100000000E-03 0. -1.
         11   -1    0    0    0    0 -0.00000000000E+00 -0.00000000000E+00 -0.45593999997E+02  0.45594000000E+02  0.51100000000E-03 0.  1.
         23    2    1    2    0    0  0.00000000000E+00  0.00000000000E+00  0.00000000000E+00  0.91188000000E+02  0.91188000000E+02 0.  0.
    9900012    2    3    3    0    0 -0.21575279822E+02 -0.29746133346E+02 -0.23093258157E+02  0.47787265896E+02  0.19999976527E+02 0.  0.
         12    1    3    3    0    0  0.21575279822E+02  0.29746133346E+02  0.23093258157E+02  0.43400734104E+02  0.00000000000E+00 0. -1.
         11    1    4    4    0    0 -0.77910419027E+00 -0.10873259106E+02 -0.53321006613E+01  0.12135323014E+02  0.51100000000E-03 0. -1.
        -11    1    4    4    0    0 -0.55924535568E+01 -0.11092110971E+02 -0.23393726949E+01  0.12640535094E+02  0.51100000000E-03 0.  1.
        -12    1    4    4    0    0 -0.15203722075E+02 -0.77807632687E+01 -0.15421784800E+02  0.23011407789E+02  0.00000000000E+00 0.  1.
</event>
<event>
 8    1  0.5542925E-011  0.9118800E+02  0.7816164E-02  0.1184000E+00
        -11   -1    0    0    0    0  0.00000000000E+00  0.00000000000E+00  0.45593999997E+02  0.45594000000E+02  0.51100000000E-03 0. -1.
         11   -1    0    0    0    0 -0.00000000000E+00 -0.00000000000E+00 -0.45593999997E+02  0.45594000000E+02  0.51100000000E-03 0.  1.
         23    2    1    2    0    0  0.00000000000E+00  0.35527136788E-14  0.35527136788E-14  0.91188000000E+02  0.91188000000E+02 0.  0.
    9900012    2    3    3    0    0  0.31219382199E+02 -0.24781176812E+02  0.17171683157E+02  0.47787271303E+02  0.20000001177E+02 0.  0.
        -12    1    3    3    0    0 -0.31219382199E+02  0.24781176812E+02 -0.17171683157E+02  0.43400728697E+02  0.00000000000E+00 0.  1.
         11    1    4    4    0    0  0.18652541370E+02 -0.18813147546E+02  0.13273163438E+02  0.29631548864E+02  0.51100000000E-03 0. -1.
        -11    1    4    4    0    0  0.13982584574E+02 -0.70266762746E+01  0.45089705330E+01  0.16285504794E+02  0.51100000000E-03 0.  1.
        -12    1    4    4    0    0 -0.14157437461E+01  0.10586470085E+01 -0.61045081477E+00  0.18702176452E+01  0.00000000000E+00 0.  1.
</event>
<event>
 8    1  0.5542925E-011  0.9118800E+02  0.7816164E-02  0.1184000E+00
        -11   -1    0    0    0    0  0.00000000000E+00  0.00000000000E+00  0.45593999997E+02  0.45594000000E+02  0.51100000000E-03 0. -1.
         11   -1    0    0    0    0 -0.00000000000E+00 -0.00000000000E+00 -0.45593999997E+02  0.45594000000E+02  0.51100000000E-03 0.  1.
         23    2    1    2    0    0  0.00000000000E+00 -0.17763568394E-14  0.00000000000E+00  0.91188000000E+02  0.91188000000E+02 0.  0.
    9900012    2    3    3    0    0  0.19294642413E+02 -0.13827820965E+02 -0.36333611644E+02  0.47787271969E+02  0.20000004216E+02 0.  0.
         12    1    3    3    0    0 -0.19294642413E+02  0.13827820965E+02  0.36333611644E+02  0.43400728031E+02  0.00000000000E+00 0. -1.
         11    1    4    4    0    0  0.81739988224E+01 -0.10862249677E+01 -0.98182560174E+01  0.12821555791E+02  0.51100000000E-03 0.  1.
        -11    1    4    4    0    0  0.12347374755E+02 -0.15445961729E+02 -0.23786454562E+02  0.30932682037E+02  0.51100000000E-03 0. -1.
         12    1    4    4    0    0 -0.12267311645E+01  0.27043657317E+01 -0.27289010648E+01  0.40330341410E+01  0.00000000000E+00 0. -1.
</event>
<event>
 8    1  0.5542925E-011  0.9118800E+02  0.7816164E-02  0.1184000E+00
        -11   -1    0    0    0    0  0.00000000000E+00  0.00000000000E+00  0.45593999997E+02  0.45594000000E+02  0.51100000000E-03 0. -1.
         11   -1    0    0    0    0 -0.00000000000E+00 -0.00000000000E+00 -0.45593999997E+02  0.45594000000E+02  0.51100000000E-03 0.  1.
         23    2    1    2    0    0  0.44408920985E-15  0.00000000000E+00  0.00000000000E+00  0.91188000000E+02  0.91188000000E+02 0.  0.
    9900012    2    3    3    0    0  0.28841588631E+01  0.10142905444E+02 -0.42100199127E+02  0.47787266484E+02  0.19999979207E+02 0.  0.
         12    1    3    3    0    0 -0.28841588631E+01 -0.10142905444E+02  0.42100199127E+02  0.43400733516E+02  0.00000000000E+00 0. -1.
         11    1    4    4    0    0 -0.19584874704E+01  0.61757076443E+01 -0.35291914468E+02  0.35881670323E+02  0.51100000000E-03 0. -1.
        -11    1    4    4    0    0 -0.16882188982E+01  0.97943202135E+00 -0.34801248280E+01  0.39900675699E+01  0.51100000000E-03 0.  1.
         12    1    4    4    0    0  0.65308652318E+01  0.29877657781E+01 -0.33281598313E+01  0.79155285915E+01  0.00000000000E+00 0. -1.
</event>
<event>
 8    1  0.5542925E-011  0.9118800E+02  0.7816164E-02  0.1184000E+00
        -11   -1    0    0    0    0  0.00000000000E+00  0.00000000000E+00  0.45593999997E+02  0.45594000000E+02  0.51100000000E-03 0. -1.
         11   -1    0    0    0    0 -0.00000000000E+00 -0.00000000000E+00 -0.45593999997E+02  0.45594000000E+02  0.51100000000E-03 0.  1.
         23    2    1    2    0    0  0.00000000000E+00  0.00000000000E+00  0.00000000000E+00  0.91188000000E+02  0.91188000000E+02 0.  0.
    9900012    2    3    3    0    0  0.24990786161E+02  0.11987582620E+02  0.33397328390E+02  0.47787273352E+02  0.20000010519E+02 0.  0.
        -12    1    3    3    0    0 -0.24990786161E+02 -0.11987582620E+02 -0.33397328390E+02  0.43400726648E+02  0.00000000000E+00 0.  1.
         11    1    4    4    0    0  0.98111581253E+01  0.42031039247E+00  0.17284411603E+02  0.19879294990E+02  0.51100000000E-03 0. -1.
        -11    1    4    4    0    0  0.93096336941E+00 -0.65046841372E-01  0.75695200767E+01  0.76268314745E+01  0.51100000000E-03 0.  1.
        -12    1    4    4    0    0  0.14248664667E+02  0.11632319069E+02  0.85433967103E+01  0.20281146887E+02  0.00000000000E+00 0.  1.
</event>
<event>
 8    1  0.5542925E-011  0.9118800E+02  0.7816164E-02  0.1184000E+00
        -11   -1    0    0    0    0  0.00000000000E+00  0.00000000000E+00  0.45593999997E+02  0.45594000000E+02  0.51100000000E-03 0. -1.
         11   -1    0    0    0    0 -0.00000000000E+00 -0.00000000000E+00 -0.45593999997E+02  0.45594000000E+02  0.51100000000E-03 0.  1.
         23    2    1    2    0    0  0.17763568394E-14  0.00000000000E+00  0.35527136788E-14  0.91188000000E+02  0.91188000000E+02 0.  0.
    9900012    2    3    3    0    0  0.13778697659E+02 -0.32537820138E+02  0.25200413221E+02  0.47787273335E+02  0.20000010445E+02 0.  0.
        -12    1    3    3    0    0 -0.13778697659E+02  0.32537820138E+02 -0.25200413221E+02  0.43400726665E+02  0.00000000000E+00 0.  1.
         11    1    4    4    0    0  0.84825301459E+01 -0.97533826553E+01  0.11089265004E+02  0.17030959735E+02  0.51100000000E-03 0. -1.
        -11    1    4    4    0    0  0.30340099794E+01  0.64677219676E+00  0.41839564431E+01  0.52085528325E+01  0.51100000000E-03 0.  1.
        -12    1    4    4    0    0  0.22621575341E+01 -0.23431209679E+02  0.99271917744E+01  0.25547760768E+02  0.00000000000E+00 0.  1.
</event>
<event>
 8    1  0.5542925E-011  0.9118800E+02  0.7816164E-02  0.1184000E+00
        -11   -1    0    0    0    0  0.00000000000E+00  0.00000000000E+00  0.45593999997E+02  0.45594000000E+02  0.51100000000E-03 0.  1.
         11   -1    0    0    0    0 -0.00000000000E+00 -0.00000000000E+00 -0.45593999997E+02  0.45594000000E+02  0.51100000000E-03 0. -1.
         23    2    1    2    0    0  0.00000000000E+00 -0.71054273576E-14 -0.22204460493E-15  0.91188000000E+02  0.91188000000E+02 0.  0.
    9900012    2    3    3    0    0  0.12975254034E+02  0.41396888771E+02 -0.12506502228E+01  0.47787265638E+02  0.19999975351E+02 0.  0.
        -12    1    3    3    0    0 -0.12975254034E+02 -0.41396888771E+02  0.12506502228E+01  0.43400734362E+02  0.00000000000E+00 0.  1.
         11    1    4    4    0    0  0.14592231276E+02  0.25849348773E+02 -0.47775002156E+00  0.29687544374E+02  0.51100000000E-03 0. -1.
        -11    1    4    4    0    0 -0.17002755333E+01  0.80681398886E+01  0.40637014055E+01  0.91923602804E+01  0.51100000000E-03 0.  1.
        -12    1    4    4    0    0  0.83298291806E-01  0.74794001093E+01 -0.48366016068E+01  0.89073609842E+01  0.00000000000E+00 0.  1.
</event>
<event>
 8    1  0.5542925E-011  0.9118800E+02  0.7816164E-02  0.1184000E+00
        -11   -1    0    0    0    0  0.00000000000E+00  0.00000000000E+00  0.45593999997E+02  0.45594000000E+02  0.51100000000E-03 0. -1.
         11   -1    0    0    0    0 -0.00000000000E+00 -0.00000000000E+00 -0.45593999997E+02  0.45594000000E+02  0.51100000000E-03 0.  1.
         23    2    1    2    0    0 -0.17763568394E-14 -0.88817841970E-15  0.71054273576E-14  0.91188000000E+02  0.91188000000E+02 0.  0.
    9900012    2    3    3    0    0 -0.15389858137E+02 -0.71438674038E+01  0.39946722324E+02  0.47787271902E+02  0.20000003911E+02 0.  0.
        -12    1    3    3    0    0  0.15389858137E+02  0.71438674038E+01 -0.39946722324E+02  0.43400728098E+02  0.00000000000E+00 0.  1.
         11    1    4    4    0    0 -0.57664465919E+01  0.29433472379E+01  0.16303471404E+02  0.17541903527E+02  0.51100000000E-03 0. -1.
        -11    1    4    4    0    0 -0.84688148124E+01  0.22267542099E+00  0.11250230060E+02  0.14083255495E+02  0.51100000000E-03 0.  1.
        -12    1    4    4    0    0 -0.11545967332E+01 -0.10309890063E+02  0.12393020860E+02  0.16162112880E+02  0.00000000000E+00 0.  1.
</event>
<event>
 8    1  0.5542925E-011  0.9118800E+02  0.7816164E-02  0.1184000E+00
        -11   -1    0    0    0    0  0.00000000000E+00  0.00000000000E+00  0.45593999997E+02  0.45594000000E+02  0.51100000000E-03 0. -1.
         11   -1    0    0    0    0 -0.00000000000E+00 -0.00000000000E+00 -0.45593999997E+02  0.45594000000E+02  0.51100000000E-03 0.  1.
         23    2    1    2    0    0  0.35527136788E-14  0.00000000000E+00 -0.35527136788E-14  0.91188000000E+02  0.91188000000E+02 0.  0.
    9900012    2    3    3    0    0  0.28888065985E+02  0.55480305446E+01 -0.31911163131E+02  0.47787270379E+02  0.19999996965E+02 0.  0.
         12    1    3    3    0    0 -0.28888065985E+02 -0.55480305446E+01  0.31911163131E+02  0.43400729621E+02  0.00000000000E+00 0. -1.
         11    1    4    4    0    0  0.12938485335E+01 -0.32073202978E+01 -0.89101864759E+01  0.95578434187E+01  0.51100000000E-03 0. -1.
        -11    1    4    4    0    0  0.10270510311E+02 -0.14664204815E+01 -0.88396231438E+01  0.13629846245E+02  0.51100000000E-03 0.  1.
         12    1    4    4    0    0  0.17323707140E+02  0.10221771324E+02 -0.14161353512E+02  0.24599580715E+02  0.00000000000E+00 0. -1.
</event>
<event>
 8    1  0.5542925E-011  0.9118800E+02  0.7816164E-02  0.1184000E+00
        -11   -1    0    0    0    0  0.00000000000E+00  0.00000000000E+00  0.45593999997E+02  0.45594000000E+02  0.51100000000E-03 0. -1.
         11   -1    0    0    0    0 -0.00000000000E+00 -0.00000000000E+00 -0.45593999997E+02  0.45594000000E+02  0.51100000000E-03 0.  1.
         23    2    1    2    0    0  0.00000000000E+00  0.00000000000E+00  0.00000000000E+00  0.91188000000E+02  0.91188000000E+02 0.  0.
    9900012    2    3    3    0    0  0.60170641993E+01  0.15869705895E+02  0.39944592487E+02  0.47787273097E+02  0.20000009357E+02 0.  0.
        -12    1    3    3    0    0 -0.60170641993E+01 -0.15869705895E+02 -0.39944592487E+02  0.43400726903E+02  0.00000000000E+00 0.  1.
         11    1    4    4    0    0 -0.82242054594E+00  0.55327885492E+01  0.11443599557E+02  0.12737507439E+02  0.51100000000E-03 0. -1.
        -11    1    4    4    0    0  0.30436081300E+01  0.46073196927E+01 -0.21173210250E+00  0.55259185612E+01  0.51100000000E-03 0.  1.
        -12    1    4    4    0    0  0.37958766152E+01  0.57295976528E+01  0.28712725033E+02  0.29523847096E+02  0.00000000000E+00 0.  1.
</event>
<event>
 8    1  0.5542925E-011  0.9118800E+02  0.7816164E-02  0.1184000E+00
        -11   -1    0    0    0    0  0.00000000000E+00  0.00000000000E+00  0.45593999997E+02  0.45594000000E+02  0.51100000000E-03 0. -1.
         11   -1    0    0    0    0 -0.00000000000E+00 -0.00000000000E+00 -0.45593999997E+02  0.45594000000E+02  0.51100000000E-03 0.  1.
         23    2    1    2    0    0 -0.17763568394E-14  0.00000000000E+00  0.71054273576E-14  0.91188000000E+02  0.91188000000E+02 0.  0.
    9900012    2    3    3    0    0 -0.15749898686E+02 -0.16720604868E+02 -0.36823705174E+02  0.47787271913E+02  0.20000003960E+02 0.  0.
         12    1    3    3    0    0  0.15749898686E+02  0.16720604868E+02  0.36823705174E+02  0.43400728087E+02  0.00000000000E+00 0. -1.
         11    1    4    4    0    0 -0.84402778758E+01 -0.84631906992E+00 -0.43340788890E+01  0.95256908761E+01  0.51100000000E-03 0. -1.
        -11    1    4    4    0    0 -0.50431201468E+01 -0.11236627504E+01 -0.10252793989E+02  0.11481091570E+02  0.51100000000E-03 0.  1.
         12    1    4    4    0    0 -0.22665006633E+01 -0.14750623048E+02 -0.22236832296E+02  0.26780489467E+02  0.00000000000E+00 0. -1.
</event>
<event>
 8    1  0.5542925E-011  0.9118800E+02  0.7816164E-02  0.1184000E+00
        -11   -1    0    0    0    0  0.00000000000E+00  0.00000000000E+00  0.45593999997E+02  0.45594000000E+02  0.51100000000E-03 0.  1.
         11   -1    0    0    0    0 -0.00000000000E+00 -0.00000000000E+00 -0.45593999997E+02  0.45594000000E+02  0.51100000000E-03 0. -1.
         23    2    1    2    0    0  0.00000000000E+00  0.00000000000E+00  0.00000000000E+00  0.91188000000E+02  0.91188000000E+02 0.  0.
    9900012    2    3    3    0    0  0.31522334855E+02 -0.28955307634E+02 -0.71802226764E+01  0.47787273825E+02  0.20000012676E+02 0.  0.
         12    1    3    3    0    0 -0.31522334855E+02  0.28955307634E+02  0.71802226764E+01  0.43400726175E+02  0.00000000000E+00 0. -1.
         11    1    4    4    0    0  0.99691323926E+01 -0.66056573049E+01 -0.61328974424E+01  0.13439893615E+02  0.51100000000E-03 0.  1.
        -11    1    4    4    0    0  0.10801424451E+02 -0.15802752795E+01 -0.97572508865E+00  0.10959930649E+02  0.51100000000E-03 0. -1.
         12    1    4    4    0    0  0.10751778012E+02 -0.20769375049E+02 -0.71600145398E-01  0.23387449560E+02  0.00000000000E+00 0. -1.
</event>
<event>
 8    1  0.5542925E-011  0.9118800E+02  0.7816164E-02  0.1184000E+00
        -11   -1    0    0    0    0  0.00000000000E+00  0.00000000000E+00  0.45593999997E+02  0.45594000000E+02  0.51100000000E-03 0. -1.
         11   -1    0    0    0    0 -0.00000000000E+00 -0.00000000000E+00 -0.45593999997E+02  0.45594000000E+02  0.51100000000E-03 0.  1.
         23    2    1    2    0    0 -0.22204460493E-15  0.00000000000E+00 -0.35527136788E-14  0.91188000000E+02  0.91188000000E+02 0.  0.
    9900012    2    3    3    0    0  0.75733016785E+00 -0.33357670369E+02  0.27754560473E+02  0.47787270185E+02  0.19999996081E+02 0.  0.
        -12    1    3    3    0    0 -0.75733016785E+00  0.33357670369E+02 -0.27754560473E+02  0.43400729815E+02  0.00000000000E+00 0.  1.
         11    1    4    4    0    0  0.11164013546E+00 -0.97806013078E+01  0.16803458735E+02  0.19442964054E+02  0.51100000000E-03 0. -1.
        -11    1    4    4    0    0 -0.19072185020E+01 -0.19314102289E+02  0.12564401571E+02  0.23120039290E+02  0.51100000000E-03 0.  1.
        -12    1    4    4    0    0  0.25529085344E+01 -0.42629667714E+01 -0.16132998331E+01  0.52242668414E+01  0.00000000000E+00 0.  1.
</event>
<event>
 8    1  0.5542925E-011  0.9118800E+02  0.7816164E-02  0.1184000E+00
        -11   -1    0    0    0    0  0.00000000000E+00  0.00000000000E+00  0.45593999997E+02  0.45594000000E+02  0.51100000000E-03 0. -1.
         11   -1    0    0    0    0 -0.00000000000E+00 -0.00000000000E+00 -0.45593999997E+02  0.45594000000E+02  0.51100000000E-03 0.  1.
         23    2    1    2    0    0  0.00000000000E+00  0.00000000000E+00  0.00000000000E+00  0.91188000000E+02  0.91188000000E+02 0.  0.
    9900012    2    3    3    0    0  0.19775479006E+02  0.13518837658E+02  0.36191087025E+02  0.47787270495E+02  0.19999997494E+02 0.  0.
        -12    1    3    3    0    0 -0.19775479006E+02 -0.13518837658E+02 -0.36191087025E+02  0.43400729505E+02  0.00000000000E+00 0.  1.
         11    1    4    4    0    0  0.31157178360E+01  0.40862087438E+01  0.13991345919E+02  0.14905118597E+02  0.51100000000E-03 0. -1.
        -11    1    4    4    0    0 -0.20078180071E+01 -0.10044122271E+01  0.48436875805E+01  0.53386783673E+01  0.51100000000E-03 0.  1.
        -12    1    4    4    0    0  0.18667579177E+02  0.10437041141E+02  0.17356053526E+02  0.27543473530E+02  0.00000000000E+00 0.  1.
</event>
<event>
 8    1  0.5542925E-011  0.9118800E+02  0.7816164E-02  0.1184000E+00
        -11   -1    0    0    0    0  0.00000000000E+00  0.00000000000E+00  0.45593999997E+02  0.45594000000E+02  0.51100000000E-03 0.  1.
         11   -1    0    0    0    0 -0.00000000000E+00 -0.00000000000E+00 -0.45593999997E+02  0.45594000000E+02  0.51100000000E-03 0. -1.
         23    2    1    2    0    0  0.00000000000E+00  0.71054273576E-14 -0.17763568394E-14  0.91188000000E+02  0.91188000000E+02 0.  0.
    9900012    2    3    3    0    0  0.13744330263E+02  0.38769009555E+02 -0.13844873747E+02  0.47787271374E+02  0.20000001501E+02 0.  0.
         12    1    3    3    0    0 -0.13744330263E+02 -0.38769009555E+02  0.13844873747E+02  0.43400728626E+02  0.00000000000E+00 0. -1.
         11    1    4    4    0    0 -0.31267407449E+01  0.32789250945E+00  0.47444517024E+00  0.31794841821E+01  0.51100000000E-03 0. -1.
        -11    1    4    4    0    0  0.38122028073E+01  0.46546778784E+01 -0.17354469421E+01  0.62618441968E+01  0.51100000000E-03 0.  1.
         12    1    4    4    0    0  0.13058868200E+02  0.33786439167E+02 -0.12583871975E+02  0.38345942995E+02  0.00000000000E+00 0. -1.
</event>
<event>
 8    1  0.5542925E-011  0.9118800E+02  0.7816164E-02  0.1184000E+00
        -11   -1    0    0    0    0  0.00000000000E+00  0.00000000000E+00  0.45593999997E+02  0.45594000000E+02  0.51100000000E-03 0.  1.
         11   -1    0    0    0    0 -0.00000000000E+00 -0.00000000000E+00 -0.45593999997E+02  0.45594000000E+02  0.51100000000E-03 0. -1.
         23    2    1    2    0    0  0.00000000000E+00  0.00000000000E+00  0.27755575616E-15  0.91188000000E+02  0.91188000000E+02 0.  0.
    9900012    2    3    3    0    0  0.17872077729E+02  0.39548530639E+02 -0.34932458144E+00  0.47787314916E+02  0.20000200028E+02 0.  0.
         12    1    3    3    0    0 -0.17872077729E+02 -0.39548530639E+02  0.34932458144E+00  0.43400685084E+02  0.00000000000E+00 0. -1.
         11    1    4    4    0    0 -0.13535829693E+01  0.69768567558E+00 -0.25109092644E+01  0.29365996922E+01  0.51100000000E-03 0. -1.
        -11    1    4    4    0    0 -0.15245225741E+00  0.63024476144E+01  0.29543927810E+01  0.69622212395E+01  0.51100000000E-03 0.  1.
        -12    1    4    4    0    0  0.19378112955E+02  0.32548397350E+02 -0.79280809804E+00  0.37888493985E+02  0.00000000000E+00 0.  1.
</event>
<event>
 8    1  0.5542925E-011  0.9118800E+02  0.7816164E-02  0.1184000E+00
        -11   -1    0    0    0    0  0.00000000000E+00  0.00000000000E+00  0.45593999997E+02  0.45594000000E+02  0.51100000000E-03 0. -1.
         11   -1    0    0    0    0 -0.00000000000E+00 -0.00000000000E+00 -0.45593999997E+02  0.45594000000E+02  0.51100000000E-03 0.  1.
         23    2    1    2    0    0  0.00000000000E+00 -0.17763568394E-14  0.00000000000E+00  0.91188000000E+02  0.91188000000E+02 0.  0.
    9900012    2    3    3    0    0  0.92146855649E+01 -0.87545363762E+01  0.41497837774E+02  0.47787275615E+02  0.20000020839E+02 0.  0.
        -12    1    3    3    0    0 -0.92146855649E+01  0.87545363762E+01 -0.41497837774E+02  0.43400724385E+02  0.00000000000E+00 0.  1.
         11    1    4    4    0    0  0.74424986285E+01 -0.11188141324E+01  0.26110791884E+02  0.27173810626E+02  0.51100000000E-03 0. -1.
        -11    1    4    4    0    0 -0.40528147707E+01 -0.97466431924E+00  0.21473648682E+01  0.46889715545E+01  0.51100000000E-03 0.  1.
         12    1    4    4    0    0  0.58250017072E+01 -0.66610579246E+01  0.13239681022E+02  0.15924493434E+02  0.00000000000E+00 0. -1.
</event>
<event>
 8    1  0.5542925E-011  0.9118800E+02  0.7816164E-02  0.1184000E+00
        -11   -1    0    0    0    0  0.00000000000E+00  0.00000000000E+00  0.45593999997E+02  0.45594000000E+02  0.51100000000E-03 0. -1.
         11   -1    0    0    0    0 -0.00000000000E+00 -0.00000000000E+00 -0.45593999997E+02  0.45594000000E+02  0.51100000000E-03 0.  1.
         23    2    1    2    0    0  0.35527136788E-14  0.35527136788E-14  0.00000000000E+00  0.91188000000E+02  0.91188000000E+02 0.  0.
    9900012    2    3    3    0    0 -0.23982627345E+02  0.23646864162E+02  0.27373020341E+02  0.47787276023E+02  0.20000022701E+02 0.  0.
        -12    1    3    3    0    0  0.23982627345E+02 -0.23646864162E+02 -0.27373020341E+02  0.43400723977E+02  0.00000000000E+00 0.  1.
         11    1    4    4    0    0 -0.98527125858E+00  0.75524650565E+01  0.43269120313E+01  0.87597177963E+01  0.51100000000E-03 0. -1.
        -11    1    4    4    0    0 -0.20091111271E+02  0.17291730340E+02  0.15156424067E+02  0.30534797871E+02  0.51100000000E-03 0.  1.
        -12    1    4    4    0    0 -0.29062448155E+01 -0.11973312343E+01  0.78896842429E+01  0.84927603560E+01  0.00000000000E+00 0.  1.
</event>
<event>
 8    1  0.5542925E-011  0.9118800E+02  0.7816164E-02  0.1184000E+00
        -11   -1    0    0    0    0  0.00000000000E+00  0.00000000000E+00  0.45593999997E+02  0.45594000000E+02  0.51100000000E-03 0. -1.
         11   -1    0    0    0    0 -0.00000000000E+00 -0.00000000000E+00 -0.45593999997E+02  0.45594000000E+02  0.51100000000E-03 0.  1.
         23    2    1    2    0    0  0.00000000000E+00  0.00000000000E+00  0.17763568394E-14  0.91188000000E+02  0.91188000000E+02 0.  0.
    9900012    2    3    3    0    0 -0.36516303457E+02  0.20103860216E+02 -0.12083838123E+02  0.47787253952E+02  0.19999922069E+02 0.  0.
         12    1    3    3    0    0  0.36516303457E+02 -0.20103860216E+02  0.12083838123E+02  0.43400746048E+02  0.00000000000E+00 0. -1.
         11    1    4    4    0    0 -0.13120281718E+02  0.62801275725E+01 -0.48045184425E+01  0.15318785605E+02  0.51100000000E-03 0. -1.
        -11    1    4    4    0    0 -0.25169375869E+02  0.15177997954E+02 -0.70503167388E+01  0.30225420922E+02  0.51100000000E-03 0.  1.
         12    1    4    4    0    0  0.17733541302E+01 -0.13542653108E+01 -0.22900294126E+00  0.22430474249E+01  0.00000000000E+00 0. -1.
</event>
<event>
 8    1  0.5542925E-011  0.9118800E+02  0.7816164E-02  0.1184000E+00
        -11   -1    0    0    0    0  0.00000000000E+00  0.00000000000E+00  0.45593999997E+02  0.45594000000E+02  0.51100000000E-03 0.  1.
         11   -1    0    0    0    0 -0.00000000000E+00 -0.00000000000E+00 -0.45593999997E+02  0.45594000000E+02  0.51100000000E-03 0. -1.
         23    2    1    2    0    0 -0.35527136788E-14  0.00000000000E+00  0.00000000000E+00  0.91188000000E+02  0.91188000000E+02 0.  0.
    9900012    2    3    3    0    0  0.30149100389E+02 -0.23274437540E+02 -0.20807576062E+02  0.47787275137E+02  0.20000018660E+02 0.  0.
         12    1    3    3    0    0 -0.30149100389E+02  0.23274437540E+02  0.20807576062E+02  0.43400724863E+02  0.00000000000E+00 0. -1.
         11    1    4    4    0    0  0.34455037528E+01 -0.22971237192E+01  0.19560859201E+01  0.45797975807E+01  0.51100000000E-03 0. -1.
        -11    1    4    4    0    0  0.11374061713E+02 -0.83137787193E+01 -0.16172529870E+01  0.14181103763E+02  0.51100000000E-03 0.  1.
         12    1    4    4    0    0  0.15329534923E+02 -0.12663535102E+02 -0.21146408995E+02  0.29026373794E+02  0.00000000000E+00 0. -1.
</event>
<event>
 8    1  0.5542925E-011  0.9118800E+02  0.7816164E-02  0.1184000E+00
        -11   -1    0    0    0    0  0.00000000000E+00  0.00000000000E+00  0.45593999997E+02  0.45594000000E+02  0.51100000000E-03 0. -1.
         11   -1    0    0    0    0 -0.00000000000E+00 -0.00000000000E+00 -0.45593999997E+02  0.45594000000E+02  0.51100000000E-03 0.  1.
         23    2    1    2    0    0  0.88817841970E-15  0.17763568394E-14  0.00000000000E+00  0.91188000000E+02  0.91188000000E+02 0.  0.
    9900012    2    3    3    0    0  0.61148960378E+01  0.13057413311E+02  0.40935744148E+02  0.47787272531E+02  0.20000006778E+02 0.  0.
        -12    1    3    3    0    0 -0.61148960378E+01 -0.13057413311E+02 -0.40935744148E+02  0.43400727469E+02  0.00000000000E+00 0.  1.
         11    1    4    4    0    0  0.96113268475E+01  0.10291096393E+02  0.19028777576E+02  0.23672318118E+02  0.51100000000E-03 0. -1.
        -11    1    4    4    0    0  0.30111738845E+01  0.93399462186E+00  0.91396899092E+01  0.96681666315E+01  0.51100000000E-03 0.  1.
        -12    1    4    4    0    0 -0.65076046943E+01  0.18323222955E+01  0.12767276662E+02  0.14446787782E+02  0.00000000000E+00 0.  1.
</event>
<event>
 8    1  0.5542925E-011  0.9118800E+02  0.7816164E-02  0.1184000E+00
        -11   -1    0    0    0    0  0.00000000000E+00  0.00000000000E+00  0.45593999997E+02  0.45594000000E+02  0.51100000000E-03 0. -1.
         11   -1    0    0    0    0 -0.00000000000E+00 -0.00000000000E+00 -0.45593999997E+02  0.45594000000E+02  0.51100000000E-03 0.  1.
         23    2    1    2    0    0  0.66613381478E-15  0.00000000000E+00  0.00000000000E+00  0.91188000000E+02  0.91188000000E+02 0.  0.
    9900012    2    3    3    0    0  0.15581964096E+01  0.33699031082E+02 -0.27305132081E+02  0.47787275238E+02  0.20000019119E+02 0.  0.
         12    1    3    3    0    0 -0.15581964096E+01 -0.33699031082E+02  0.27305132081E+02  0.43400724762E+02  0.00000000000E+00 0. -1.
         11    1    4    4    0    0 -0.48759846492E+01  0.15585740849E+02 -0.69311859981E+01  0.17740684421E+02  0.51100000000E-03 0. -1.
        -11    1    4    4    0    0  0.45887330984E+01  0.16798552857E+02 -0.11453814082E+02  0.20843169309E+02  0.51100000000E-03 0.  1.
         12    1    4    4    0    0  0.18454479604E+01  0.13147373754E+01 -0.89201320013E+01  0.92034215084E+01  0.00000000000E+00 0. -1.
</event>
<event>
 8    1  0.5542925E-011  0.9118800E+02  0.7816164E-02  0.1184000E+00
        -11   -1    0    0    0    0  0.00000000000E+00  0.00000000000E+00  0.45593999997E+02  0.45594000000E+02  0.51100000000E-03 0. -1.
         11   -1    0    0    0    0 -0.00000000000E+00 -0.00000000000E+00 -0.45593999997E+02  0.45594000000E+02  0.51100000000E-03 0.  1.
         23    2    1    2    0    0  0.35527136788E-14  0.00000000000E+00  0.88817841970E-15  0.91188000000E+02  0.91188000000E+02 0.  0.
    9900012    2    3    3    0    0  0.26337093179E+02  0.33654622332E+02 -0.75728369611E+01  0.47787263358E+02  0.19999964956E+02 0.  0.
         12    1    3    3    0    0 -0.26337093179E+02 -0.33654622332E+02  0.75728369611E+01  0.43400736642E+02  0.00000000000E+00 0. -1.
         11    1    4    4    0    0  0.27185392075E+01  0.54305466949E+01  0.59100841238E+01  0.84741009812E+01  0.51100000000E-03 0. -1.
        -11    1    4    4    0    0  0.15000089918E+01  0.30992609175E+01 -0.15520885753E+01  0.37768272951E+01  0.51100000000E-03 0.  1.
         12    1    4    4    0    0  0.22118544979E+02  0.25124814719E+02 -0.11930832510E+02  0.35536335082E+02  0.00000000000E+00 0. -1.
</event>
<event>
 8    1  0.5542925E-011  0.9118800E+02  0.7816164E-02  0.1184000E+00
        -11   -1    0    0    0    0  0.00000000000E+00  0.00000000000E+00  0.45593999997E+02  0.45594000000E+02  0.51100000000E-03 0. -1.
         11   -1    0    0    0    0 -0.00000000000E+00 -0.00000000000E+00 -0.45593999997E+02  0.45594000000E+02  0.51100000000E-03 0.  1.
         23    2    1    2    0    0 -0.88817841970E-15  0.00000000000E+00 -0.71054273576E-14  0.91188000000E+02  0.91188000000E+02 0.  0.
    9900012    2    3    3    0    0  0.67407175817E+01 -0.22771367760E+02  0.36327000737E+02  0.47787269065E+02  0.19999990973E+02 0.  0.
        -12    1    3    3    0    0 -0.67407175817E+01  0.22771367760E+02 -0.36327000737E+02  0.43400730935E+02  0.00000000000E+00 0.  1.
         11    1    4    4    0    0  0.15109564394E+01 -0.18906570645E+02  0.17409143852E+02  0.25745284866E+02  0.51100000000E-03 0. -1.
        -11    1    4    4    0    0 -0.24148635229E+01 -0.20748539354E+01  0.78592663892E+01  0.84796611445E+01  0.51100000000E-03 0.  1.
        -12    1    4    4    0    0  0.76446246651E+01 -0.17899431793E+01  0.11058590496E+02  0.13562323054E+02  0.00000000000E+00 0.  1.
</event>
<event>
 8    1  0.5542925E-011  0.9118800E+02  0.7816164E-02  0.1184000E+00
        -11   -1    0    0    0    0  0.00000000000E+00  0.00000000000E+00  0.45593999997E+02  0.45594000000E+02  0.51100000000E-03 0. -1.
         11   -1    0    0    0    0 -0.00000000000E+00 -0.00000000000E+00 -0.45593999997E+02  0.45594000000E+02  0.51100000000E-03 0.  1.
         23    2    1    2    0    0  0.35527136788E-14  0.00000000000E+00  0.71054273576E-14  0.91188000000E+02  0.91188000000E+02 0.  0.
    9900012    2    3    3    0    0  0.24066600642E+02  0.10548446523E+02  0.34542039273E+02  0.47787268812E+02  0.19999989822E+02 0.  0.
        -12    1    3    3    0    0 -0.24066600642E+02 -0.10548446523E+02 -0.34542039273E+02  0.43400731188E+02  0.00000000000E+00 0.  1.
         11    1    4    4    0    0  0.69948885618E+01  0.22634736737E+01  0.24197655415E+01  0.77399641214E+01  0.51100000000E-03 0.  1.
        -11    1    4    4    0    0  0.44390983706E+01  0.10123702632E+02  0.13133352543E+02  0.17166242996E+02  0.51100000000E-03 0. -1.
         12    1    4    4    0    0  0.12632613710E+02 -0.18387297829E+01  0.18988921189E+02  0.22881061694E+02  0.00000000000E+00 0. -1.
</event>
<event>
 8    1  0.5542925E-011  0.9118800E+02  0.7816164E-02  0.1184000E+00
        -11   -1    0    0    0    0  0.00000000000E+00  0.00000000000E+00  0.45593999997E+02  0.45594000000E+02  0.51100000000E-03 0. -1.
         11   -1    0    0    0    0 -0.00000000000E+00 -0.00000000000E+00 -0.45593999997E+02  0.45594000000E+02  0.51100000000E-03 0.  1.
         23    2    1    2    0    0 -0.17763568394E-14  0.00000000000E+00  0.00000000000E+00  0.91188000000E+02  0.91188000000E+02 0.  0.
    9900012    2    3    3    0    0 -0.13939359391E+02 -0.37032056846E+02  0.17830938921E+02  0.47787293124E+02  0.20000100670E+02 0.  0.
        -12    1    3    3    0    0  0.13939359391E+02  0.37032056846E+02 -0.17830938921E+02  0.43400706876E+02  0.00000000000E+00 0.  1.
         11    1    4    4    0    0 -0.11524970622E+02 -0.12550544527E+02  0.11703049867E+02  0.20671296336E+02  0.51100000000E-03 0. -1.
        -11    1    4    4    0    0 -0.44758230964E+01 -0.46343169112E+01  0.10710175893E+01  0.65312299425E+01  0.51100000000E-03 0.  1.
        -12    1    4    4    0    0  0.20614343275E+01 -0.19847195408E+02  0.50568714646E+01  0.20584766845E+02  0.00000000000E+00 0.  1.
</event>
<event>
 8    1  0.5542925E-011  0.9118800E+02  0.7816164E-02  0.1184000E+00
        -11   -1    0    0    0    0  0.00000000000E+00  0.00000000000E+00  0.45593999997E+02  0.45594000000E+02  0.51100000000E-03 0. -1.
         11   -1    0    0    0    0 -0.00000000000E+00 -0.00000000000E+00 -0.45593999997E+02  0.45594000000E+02  0.51100000000E-03 0.  1.
         23    2    1    2    0    0  0.35527136788E-14  0.00000000000E+00  0.00000000000E+00  0.91188000000E+02  0.91188000000E+02 0.  0.
    9900012    2    3    3    0    0 -0.23153702102E+02 -0.26584590302E+02 -0.25313812160E+02  0.47787269031E+02  0.19999990820E+02 0.  0.
         12    1    3    3    0    0  0.23153702102E+02  0.26584590302E+02  0.25313812160E+02  0.43400730969E+02  0.00000000000E+00 0. -1.
         11    1    4    4    0    0  0.28993109183E+00 -0.12151420224E+01  0.40891145964E+00  0.13144729040E+01  0.51100000000E-03 0. -1.
        -11    1    4    4    0    0  0.21649392880E+01 -0.21985203975E+01  0.47943387990E+00  0.31225488252E+01  0.51100000000E-03 0.  1.
         12    1    4    4    0    0 -0.25608572482E+02 -0.23170927882E+02 -0.26202157500E+02  0.43350247302E+02  0.00000000000E+00 0. -1.
</event>
<event>
 8    1  0.5542925E-011  0.9118800E+02  0.7816164E-02  0.1184000E+00
        -11   -1    0    0    0    0  0.00000000000E+00  0.00000000000E+00  0.45593999997E+02  0.45594000000E+02  0.51100000000E-03 0. -1.
         11   -1    0    0    0    0 -0.00000000000E+00 -0.00000000000E+00 -0.45593999997E+02  0.45594000000E+02  0.51100000000E-03 0.  1.
         23    2    1    2    0    0 -0.71054273576E-14 -0.35527136788E-14 -0.17763568394E-14  0.91188000000E+02  0.91188000000E+02 0.  0.
    9900012    2    3    3    0    0 -0.40292229100E+02 -0.11799496836E+02 -0.10996856416E+02  0.47787277628E+02  0.20000030017E+02 0.  0.
         12    1    3    3    0    0  0.40292229100E+02  0.11799496836E+02  0.10996856416E+02  0.43400722372E+02  0.00000000000E+00 0. -1.
         11    1    4    4    0    0 -0.22820212111E+02 -0.14354890673E+02 -0.42315655380E+01  0.27289762076E+02  0.51100000000E-03 0. -1.
        -11    1    4    4    0    0 -0.10347953938E+02 -0.11472086561E+01 -0.69927601082E+00  0.10434808364E+02  0.51100000000E-03 0.  1.
         12    1    4    4    0    0 -0.71240630506E+01  0.37026024929E+01 -0.60660148667E+01  0.10062707187E+02  0.00000000000E+00 0. -1.
</event>
<event>
 8    1  0.5542925E-011  0.9118800E+02  0.7816164E-02  0.1184000E+00
        -11   -1    0    0    0    0  0.00000000000E+00  0.00000000000E+00  0.45593999997E+02  0.45594000000E+02  0.51100000000E-03 0. -1.
         11   -1    0    0    0    0 -0.00000000000E+00 -0.00000000000E+00 -0.45593999997E+02  0.45594000000E+02  0.51100000000E-03 0.  1.
         23    2    1    2    0    0  0.00000000000E+00  0.00000000000E+00  0.71054273576E-14  0.91188000000E+02  0.91188000000E+02 0.  0.
    9900012    2    3    3    0    0  0.71529168142E+01  0.14251057833E+02 -0.40365413647E+02  0.47787268587E+02  0.19999988796E+02 0.  0.
         12    1    3    3    0    0 -0.71529168142E+01 -0.14251057833E+02  0.40365413647E+02  0.43400731413E+02  0.00000000000E+00 0. -1.
         11    1    4    4    0    0  0.50947979128E+01  0.92057655843E+01 -0.28084306768E+02  0.29990521381E+02  0.51100000000E-03 0. -1.
        -11    1    4    4    0    0 -0.27589856650E+01 -0.86180997150E+00 -0.90811579882E+01  0.95300655294E+01  0.51100000000E-03 0.  1.
         12    1    4    4    0    0  0.48171045663E+01  0.59071022205E+01 -0.31999488899E+01  0.82666816768E+01  0.00000000000E+00 0. -1.
</event>
<event>
 8    1  0.5542925E-011  0.9118800E+02  0.7816164E-02  0.1184000E+00
        -11   -1    0    0    0    0  0.00000000000E+00  0.00000000000E+00  0.45593999997E+02  0.45594000000E+02  0.51100000000E-03 0. -1.
         11   -1    0    0    0    0 -0.00000000000E+00 -0.00000000000E+00 -0.45593999997E+02  0.45594000000E+02  0.51100000000E-03 0.  1.
         23    2    1    2    0    0  0.35527136788E-14  0.00000000000E+00 -0.35527136788E-14  0.91188000000E+02  0.91188000000E+02 0.  0.
    9900012    2    3    3    0    0  0.26437100455E+02  0.18274425086E+02  0.29167591718E+02  0.47787270751E+02  0.19999998664E+02 0.  0.
        -12    1    3    3    0    0 -0.26437100455E+02 -0.18274425086E+02 -0.29167591718E+02  0.43400729249E+02  0.00000000000E+00 0.  1.
         11    1    4    4    0    0  0.45943556466E+01  0.96178861142E+01  0.10069689545E+02  0.14663235827E+02  0.51100000000E-03 0. -1.
        -11    1    4    4    0    0  0.21134550504E+02  0.10700911225E+02  0.19773705169E+02  0.30857383921E+02  0.51100000000E-03 0.  1.
        -12    1    4    4    0    0  0.70819430397E+00 -0.20443722536E+01 -0.67580299610E+00  0.22666510038E+01  0.00000000000E+00 0.  1.
</event>
<event>
 8    1  0.5542925E-011  0.9118800E+02  0.7816164E-02  0.1184000E+00
        -11   -1    0    0    0    0  0.00000000000E+00  0.00000000000E+00  0.45593999997E+02  0.45594000000E+02  0.51100000000E-03 0. -1.
         11   -1    0    0    0    0 -0.00000000000E+00 -0.00000000000E+00 -0.45593999997E+02  0.45594000000E+02  0.51100000000E-03 0.  1.
         23    2    1    2    0    0 -0.88817841970E-15  0.00000000000E+00  0.71054273576E-14  0.91188000000E+02  0.91188000000E+02 0.  0.
    9900012    2    3    3    0    0 -0.28520269853E+01 -0.88147669715E+01  0.42400336306E+02  0.47787277730E+02  0.20000030482E+02 0.  0.
        -12    1    3    3    0    0  0.28520269853E+01  0.88147669715E+01 -0.42400336306E+02  0.43400722270E+02  0.00000000000E+00 0.  1.
         11    1    4    4    0    0 -0.79190936127E+01 -0.18501397286E+01  0.15431568225E+02  0.17443289793E+02  0.51100000000E-03 0. -1.
        -11    1    4    4    0    0 -0.21163388988E+01 -0.29653276516E+01  0.22220668430E+01  0.42672754460E+01  0.51100000000E-03 0.  1.
        -12    1    4    4    0    0  0.71834055262E+01 -0.39992995912E+01  0.24746701238E+02  0.26076712491E+02  0.00000000000E+00 0.  1.
</event>
<event>
 8    1  0.5542925E-011  0.9118800E+02  0.7816164E-02  0.1184000E+00
        -11   -1    0    0    0    0  0.00000000000E+00  0.00000000000E+00  0.45593999997E+02  0.45594000000E+02  0.51100000000E-03 0. -1.
         11   -1    0    0    0    0 -0.00000000000E+00 -0.00000000000E+00 -0.45593999997E+02  0.45594000000E+02  0.51100000000E-03 0.  1.
         23    2    1    2    0    0  0.00000000000E+00  0.44408920985E-15  0.00000000000E+00  0.91188000000E+02  0.91188000000E+02 0.  0.
    9900012    2    3    3    0    0 -0.23071620125E+02  0.35401306001E+01 -0.36589497830E+02  0.47787268079E+02  0.19999986477E+02 0.  0.
         12    1    3    3    0    0  0.23071620125E+02 -0.35401306001E+01  0.36589497830E+02  0.43400731921E+02  0.00000000000E+00 0. -1.
         11    1    4    4    0    0 -0.78981270519E+00 -0.17682145667E+01  0.13999580802E+01  0.23896170720E+01  0.51100000000E-03 0. -1.
        -11    1    4    4    0    0 -0.12570634387E+01  0.35388189095E+01 -0.57329666193E+01  0.68534921232E+01  0.51100000000E-03 0.  1.
         12    1    4    4    0    0 -0.21024743981E+02  0.17695262574E+01 -0.32256489291E+02  0.38544158883E+02  0.00000000000E+00 0. -1.
</event>
<event>
 8    1  0.5542925E-011  0.9118800E+02  0.7816164E-02  0.1184000E+00
        -11   -1    0    0    0    0  0.00000000000E+00  0.00000000000E+00  0.45593999997E+02  0.45594000000E+02  0.51100000000E-03 0. -1.
         11   -1    0    0    0    0 -0.00000000000E+00 -0.00000000000E+00 -0.45593999997E+02  0.45594000000E+02  0.51100000000E-03 0.  1.
         23    2    1    2    0    0 -0.88817841970E-15 -0.35527136788E-14  0.00000000000E+00  0.91188000000E+02  0.91188000000E+02 0.  0.
    9900012    2    3    3    0    0 -0.68234114394E+01 -0.10782764255E+02 -0.41482483347E+02  0.47787269899E+02  0.19999994778E+02 0.  0.
         12    1    3    3    0    0  0.68234114394E+01  0.10782764255E+02  0.41482483347E+02  0.43400730101E+02  0.00000000000E+00 0. -1.
         11    1    4    4    0    0 -0.18324941878E+01 -0.43373449928E+01 -0.12588564690E+02  0.13440333245E+02  0.51100000000E-03 0.  1.
        -11    1    4    4    0    0  0.29231141723E+01 -0.95534948224E+01 -0.17157911063E+02  0.19854666255E+02  0.51100000000E-03 0. -1.
         12    1    4    4    0    0 -0.79140314239E+01  0.31080755598E+01 -0.11736007594E+02  0.14492270399E+02  0.00000000000E+00 0. -1.
</event>
<event>
 8    1  0.5542925E-011  0.9118800E+02  0.7816164E-02  0.1184000E+00
        -11   -1    0    0    0    0  0.00000000000E+00  0.00000000000E+00  0.45593999997E+02  0.45594000000E+02  0.51100000000E-03 0. -1.
         11   -1    0    0    0    0 -0.00000000000E+00 -0.00000000000E+00 -0.45593999997E+02  0.45594000000E+02  0.51100000000E-03 0.  1.
         23    2    1    2    0    0  0.35527136788E-14  0.35527136788E-14  0.00000000000E+00  0.91188000000E+02  0.91188000000E+02 0.  0.
    9900012    2    3    3    0    0 -0.27693022095E+02 -0.22382195225E+02 -0.24814452946E+02  0.47787271770E+02  0.20000003307E+02 0.  0.
         12    1    3    3    0    0  0.27693022095E+02  0.22382195225E+02  0.24814452946E+02  0.43400728230E+02  0.00000000000E+00 0. -1.
         11    1    4    4    0    0 -0.71713972184E+01 -0.53503611458E+01 -0.31295679987E+01  0.94788975400E+01  0.51100000000E-03 0. -1.
        -11    1    4    4    0    0 -0.83187317717E+00  0.65470730639E-01  0.25657420565E+01  0.26980237139E+01  0.51100000000E-03 0.  1.
        -12    1    4    4    0    0 -0.19689751700E+02 -0.17097304810E+02 -0.24250627004E+02  0.35610350516E+02  0.00000000000E+00 0.  1.
</event>
<event>
 8    1  0.5542925E-011  0.9118800E+02  0.7816164E-02  0.1184000E+00
        -11   -1    0    0    0    0  0.00000000000E+00  0.00000000000E+00  0.45593999997E+02  0.45594000000E+02  0.51100000000E-03 0. -1.
         11   -1    0    0    0    0 -0.00000000000E+00 -0.00000000000E+00 -0.45593999997E+02  0.45594000000E+02  0.51100000000E-03 0.  1.
         23    2    1    2    0    0 -0.17763568394E-14  0.22204460493E-15  0.00000000000E+00  0.91188000000E+02  0.91188000000E+02 0.  0.
    9900012    2    3    3    0    0 -0.11770371260E+02 -0.12943873196E+01 -0.41754115254E+02  0.47787271679E+02  0.20000002892E+02 0.  0.
         12    1    3    3    0    0  0.11770371260E+02  0.12943873196E+01  0.41754115254E+02  0.43400728321E+02  0.00000000000E+00 0. -1.
         11    1    4    4    0    0 -0.79520720190E+01 -0.29378222258E+00 -0.13268722518E+02  0.15471934427E+02  0.51100000000E-03 0. -1.
        -11    1    4    4    0    0 -0.89822446828E+01 -0.33407095184E+01 -0.18369073638E+02  0.20718685437E+02  0.51100000000E-03 0.  1.
         12    1    4    4    0    0  0.51639454415E+01  0.23401044215E+01 -0.10116319099E+02  0.11596651816E+02  0.00000000000E+00 0. -1.
</event>
<event>
 8    1  0.5542925E-011  0.9118800E+02  0.7816164E-02  0.1184000E+00
        -11   -1    0    0    0    0  0.00000000000E+00  0.00000000000E+00  0.45593999997E+02  0.45594000000E+02  0.51100000000E-03 0. -1.
         11   -1    0    0    0    0 -0.00000000000E+00 -0.00000000000E+00 -0.45593999997E+02  0.45594000000E+02  0.51100000000E-03 0.  1.
         23    2    1    2    0    0  0.35527136788E-14  0.00000000000E+00  0.00000000000E+00  0.91188000000E+02  0.91188000000E+02 0.  0.
    9900012    2    3    3    0    0 -0.22357411062E+02  0.15147224251E+02 -0.33975448421E+02  0.47787270428E+02  0.19999997190E+02 0.  0.
         12    1    3    3    0    0  0.22357411062E+02 -0.15147224251E+02  0.33975448421E+02  0.43400729572E+02  0.00000000000E+00 0. -1.
         11    1    4    4    0    0 -0.30147454316E+01  0.97965950538E+01 -0.10826386696E+02  0.14908809940E+02  0.51100000000E-03 0.  1.
        -11    1    4    4    0    0 -0.12132633448E+01  0.19385122562E+01  0.99450448009E+00  0.24937676582E+01  0.51100000000E-03 0. -1.
        -12    1    4    4    0    0 -0.18129402286E+02  0.34121169413E+01 -0.24143566205E+02  0.30384692830E+02  0.00000000000E+00 0.  1.
</event>
<event>
 8    1  0.5542925E-011  0.9118800E+02  0.7816164E-02  0.1184000E+00
        -11   -1    0    0    0    0  0.00000000000E+00  0.00000000000E+00  0.45593999997E+02  0.45594000000E+02  0.51100000000E-03 0. -1.
         11   -1    0    0    0    0 -0.00000000000E+00 -0.00000000000E+00 -0.45593999997E+02  0.45594000000E+02  0.51100000000E-03 0.  1.
         23    2    1    2    0    0  0.00000000000E+00  0.00000000000E+00  0.00000000000E+00  0.91188000000E+02  0.91188000000E+02 0.  0.
    9900012    2    3    3    0    0  0.50473837172E+01 -0.16161547804E+02 -0.39961877038E+02  0.47787270442E+02  0.19999997253E+02 0.  0.
         12    1    3    3    0    0 -0.50473837172E+01  0.16161547804E+02  0.39961877038E+02  0.43400729558E+02  0.00000000000E+00 0. -1.
         11    1    4    4    0    0  0.74584592118E+01 -0.76831673122E+01 -0.87350408963E+01  0.13818849933E+02  0.51100000000E-03 0. -1.
        -11    1    4    4    0    0  0.34287394923E+01 -0.13515680071E+01 -0.13448146268E+02  0.13944017674E+02  0.51100000000E-03 0.  1.
        -12    1    4    4    0    0 -0.58398149869E+01 -0.71268124844E+01 -0.17778689873E+02  0.20024402834E+02  0.00000000000E+00 0.  1.
</event>
<event>
 8    1  0.5542925E-011  0.9118800E+02  0.7816164E-02  0.1184000E+00
        -11   -1    0    0    0    0  0.00000000000E+00  0.00000000000E+00  0.45593999997E+02  0.45594000000E+02  0.51100000000E-03 0. -1.
         11   -1    0    0    0    0 -0.00000000000E+00 -0.00000000000E+00 -0.45593999997E+02  0.45594000000E+02  0.51100000000E-03 0.  1.
         23    2    1    2    0    0  0.00000000000E+00 -0.17763568394E-14  0.00000000000E+00  0.91188000000E+02  0.91188000000E+02 0.  0.
    9900012    2    3    3    0    0  0.35953036662E+02  0.11829688770E+02 -0.21238195638E+02  0.47787270333E+02  0.19999996757E+02 0.  0.
         12    1    3    3    0    0 -0.35953036662E+02 -0.11829688770E+02  0.21238195638E+02  0.43400729667E+02  0.00000000000E+00 0. -1.
         11    1    4    4    0    0  0.79752801760E+00  0.33823898442E+01  0.13934715655E+01  0.37441120793E+01  0.51100000000E-03 0. -1.
        -11    1    4    4    0    0  0.12804238753E+02  0.67724547302E+01 -0.43645531506E+01  0.15128251636E+02  0.51100000000E-03 0.  1.
        -12    1    4    4    0    0  0.22351269892E+02  0.16748441961E+01 -0.18267114053E+02  0.28914906617E+02  0.00000000000E+00 0.  1.
</event>
<event>
 8    1  0.5542925E-011  0.9118800E+02  0.7816164E-02  0.1184000E+00
        -11   -1    0    0    0    0  0.00000000000E+00  0.00000000000E+00  0.45593999997E+02  0.45594000000E+02  0.51100000000E-03 0. -1.
         11   -1    0    0    0    0 -0.00000000000E+00 -0.00000000000E+00 -0.45593999997E+02  0.45594000000E+02  0.51100000000E-03 0.  1.
         23    2    1    2    0    0  0.17763568394E-14 -0.44408920985E-15  0.00000000000E+00  0.91188000000E+02  0.91188000000E+02 0.  0.
    9900012    2    3    3    0    0  0.10915787459E+02 -0.38760572485E+01  0.41826362800E+02  0.47787275804E+02  0.20000021703E+02 0.  0.
        -12    1    3    3    0    0 -0.10915787459E+02  0.38760572485E+01 -0.41826362800E+02  0.43400724196E+02  0.00000000000E+00 0.  1.
         11    1    4    4    0    0 -0.87532335589E-03  0.38835538829E+01  0.21327550804E+02  0.21678247510E+02  0.51100000000E-03 0. -1.
        -11    1    4    4    0    0 -0.13487176492E+01 -0.11253802647E+01  0.69668386376E+00  0.18896795243E+01  0.51100000000E-03 0.  1.
        -12    1    4    4    0    0  0.12265380431E+02 -0.66342308668E+01  0.19802128132E+02  0.24219348770E+02  0.00000000000E+00 0.  1.
</event>
<event>
 8    1  0.5542925E-011  0.9118800E+02  0.7816164E-02  0.1184000E+00
        -11   -1    0    0    0    0  0.00000000000E+00  0.00000000000E+00  0.45593999997E+02  0.45594000000E+02  0.51100000000E-03 0. -1.
         11   -1    0    0    0    0 -0.00000000000E+00 -0.00000000000E+00 -0.45593999997E+02  0.45594000000E+02  0.51100000000E-03 0.  1.
         23    2    1    2    0    0  0.00000000000E+00  0.00000000000E+00  0.00000000000E+00  0.91188000000E+02  0.91188000000E+02 0.  0.
    9900012    2    3    3    0    0  0.16707697287E+02 -0.39220854417E+02  0.81363628284E+01  0.47787274546E+02  0.20000015964E+02 0.  0.
        -12    1    3    3    0    0 -0.16707697287E+02  0.39220854417E+02 -0.81363628284E+01  0.43400725454E+02  0.00000000000E+00 0.  1.
         11    1    4    4    0    0  0.25629783724E+01 -0.18103891574E+02 -0.13476917821E+01  0.18334012699E+02  0.51100000000E-03 0. -1.
        -11    1    4    4    0    0  0.92468267492E+01 -0.21030629807E+02  0.81458735091E+01  0.24375119497E+02  0.51100000000E-03 0.  1.
        -12    1    4    4    0    0  0.48978921657E+01 -0.86333036301E-01  0.13381811014E+01  0.50781423493E+01  0.00000000000E+00 0.  1.
</event>
<event>
 8    1  0.5542925E-011  0.9118800E+02  0.7816164E-02  0.1184000E+00
        -11   -1    0    0    0    0  0.00000000000E+00  0.00000000000E+00  0.45593999997E+02  0.45594000000E+02  0.51100000000E-03 0. -1.
         11   -1    0    0    0    0 -0.00000000000E+00 -0.00000000000E+00 -0.45593999997E+02  0.45594000000E+02  0.51100000000E-03 0.  1.
         23    2    1    2    0    0  0.00000000000E+00 -0.17763568394E-14  0.00000000000E+00  0.91188000000E+02  0.91188000000E+02 0.  0.
    9900012    2    3    3    0    0  0.40792822126E+01  0.35024566380E+01 -0.43066409587E+02  0.47787269815E+02  0.19999994395E+02 0.  0.
         12    1    3    3    0    0 -0.40792822126E+01 -0.35024566380E+01  0.43066409587E+02  0.43400730185E+02  0.00000000000E+00 0. -1.
         11    1    4    4    0    0  0.30979483141E+01 -0.39824274263E+00 -0.49994661015E+01  0.58949590838E+01  0.51100000000E-03 0. -1.
        -11    1    4    4    0    0 -0.10103175610E+01  0.10521697992E+02 -0.22517422766E+02  0.24874911025E+02  0.51100000000E-03 0.  1.
        -12    1    4    4    0    0  0.19916514595E+01 -0.66209986118E+01 -0.15549520720E+02  0.17017399706E+02  0.00000000000E+00 0.  1.
</event>
<event>
 8    1  0.5542925E-011  0.9118800E+02  0.7816164E-02  0.1184000E+00
        -11   -1    0    0    0    0  0.00000000000E+00  0.00000000000E+00  0.45593999997E+02  0.45594000000E+02  0.51100000000E-03 0. -1.
         11   -1    0    0    0    0 -0.00000000000E+00 -0.00000000000E+00 -0.45593999997E+02  0.45594000000E+02  0.51100000000E-03 0.  1.
         23    2    1    2    0    0 -0.17763568394E-14  0.00000000000E+00  0.00000000000E+00  0.91188000000E+02  0.91188000000E+02 0.  0.
    9900012    2    3    3    0    0 -0.11488455311E+02  0.10080192592E+02  0.40620551277E+02  0.47787261825E+02  0.19999957963E+02 0.  0.
        -12    1    3    3    0    0  0.11488455311E+02 -0.10080192592E+02 -0.40620551277E+02  0.43400738175E+02  0.00000000000E+00 0.  1.
         11    1    4    4    0    0 -0.27711739094E+01 -0.86979910957E+00  0.93366666118E+01  0.97780007675E+01  0.51100000000E-03 0. -1.
        -11    1    4    4    0    0 -0.72315578056E+01  0.73346617662E+01  0.50240044048E+01  0.11460074696E+02  0.51100000000E-03 0.  1.
        -12    1    4    4    0    0 -0.14857235963E+01  0.36153299355E+01  0.26259880260E+02  0.26549186361E+02  0.00000000000E+00 0.  1.
</event>
<event>
 8    1  0.5542925E-011  0.9118800E+02  0.7816164E-02  0.1184000E+00
        -11   -1    0    0    0    0  0.00000000000E+00  0.00000000000E+00  0.45593999997E+02  0.45594000000E+02  0.51100000000E-03 0.  1.
         11   -1    0    0    0    0 -0.00000000000E+00 -0.00000000000E+00 -0.45593999997E+02  0.45594000000E+02  0.51100000000E-03 0. -1.
         23    2    1    2    0    0  0.71054273576E-14 -0.35527136788E-14 -0.35527136788E-14  0.91188000000E+02  0.91188000000E+02 0.  0.
    9900012    2    3    3    0    0 -0.35605550708E+02  0.18292444375E+02  0.16770646651E+02  0.47787270150E+02  0.19999995921E+02 0.  0.
        -12    1    3    3    0    0  0.35605550708E+02 -0.18292444375E+02 -0.16770646651E+02  0.43400729850E+02  0.00000000000E+00 0.  1.
         11    1    4    4    0    0 -0.29150883307E+02  0.14765864079E+02  0.10782396352E+02  0.34410242820E+02  0.51100000000E-03 0. -1.
        -11    1    4    4    0    0 -0.48173757191E+01  0.65778966048E+01  0.56028363511E+01  0.98928058709E+01  0.51100000000E-03 0.  1.
        -12    1    4    4    0    0 -0.16372916818E+01 -0.30513163082E+01  0.38541394794E+00  0.34842214590E+01  0.00000000000E+00 0.  1.
</event>
<event>
 8    1  0.5542925E-011  0.9118800E+02  0.7816164E-02  0.1184000E+00
        -11   -1    0    0    0    0  0.00000000000E+00  0.00000000000E+00  0.45593999997E+02  0.45594000000E+02  0.51100000000E-03 0. -1.
         11   -1    0    0    0    0 -0.00000000000E+00 -0.00000000000E+00 -0.45593999997E+02  0.45594000000E+02  0.51100000000E-03 0.  1.
         23    2    1    2    0    0  0.00000000000E+00  0.44408920985E-15  0.00000000000E+00  0.91188000000E+02  0.91188000000E+02 0.  0.
    9900012    2    3    3    0    0 -0.10659304860E+02  0.12644681606E+01 -0.42052389013E+02  0.47787273260E+02  0.20000010103E+02 0.  0.
         12    1    3    3    0    0  0.10659304860E+02 -0.12644681606E+01  0.42052389013E+02  0.43400726740E+02  0.00000000000E+00 0. -1.
         11    1    4    4    0    0 -0.85346264092E+01 -0.13117527102E+01 -0.75195552872E+01  0.11450076642E+02  0.51100000000E-03 0. -1.
        -11    1    4    4    0    0 -0.61182290122E+01  0.36970042141E+01 -0.21040316694E+02  0.22221509698E+02  0.51100000000E-03 0.  1.
         12    1    4    4    0    0  0.39935505616E+01 -0.11207833433E+01 -0.13492517032E+02  0.14115686921E+02  0.00000000000E+00 0. -1.
</event>
<event>
 8    1  0.5542925E-011  0.9118800E+02  0.7816164E-02  0.1184000E+00
        -11   -1    0    0    0    0  0.00000000000E+00  0.00000000000E+00  0.45593999997E+02  0.45594000000E+02  0.51100000000E-03 0.  1.
         11   -1    0    0    0    0 -0.00000000000E+00 -0.00000000000E+00 -0.45593999997E+02  0.45594000000E+02  0.51100000000E-03 0. -1.
         23    2    1    2    0    0  0.88817841970E-15 -0.71054273576E-14  0.00000000000E+00  0.91188000000E+02  0.91188000000E+02 0.  0.
    9900012    2    3    3    0    0  0.52759514458E+01 -0.38411259971E+02  0.19502879637E+02  0.47787275694E+02  0.20000021199E+02 0.  0.
        -12    1    3    3    0    0 -0.52759514458E+01  0.38411259971E+02 -0.19502879637E+02  0.43400724306E+02  0.00000000000E+00 0.  1.
         11    1    4    4    0    0  0.55455599452E+01 -0.16397264993E+02  0.77732222284E+01  0.18974891790E+02  0.51100000000E-03 0. -1.
        -11    1    4    4    0    0  0.38027764890E+00 -0.16922511229E+02  0.10452507276E+01  0.16959025524E+02  0.51100000000E-03 0.  1.
        -12    1    4    4    0    0 -0.64988614833E+00 -0.50914837482E+01  0.10684406681E+02  0.11853358380E+02  0.00000000000E+00 0.  1.
</event>
<event>
 8    1  0.5542925E-011  0.9118800E+02  0.7816164E-02  0.1184000E+00
        -11   -1    0    0    0    0  0.00000000000E+00  0.00000000000E+00  0.45593999997E+02  0.45594000000E+02  0.51100000000E-03 0. -1.
         11   -1    0    0    0    0 -0.00000000000E+00 -0.00000000000E+00 -0.45593999997E+02  0.45594000000E+02  0.51100000000E-03 0.  1.
         23    2    1    2    0    0 -0.88817841970E-15 -0.35527136788E-14  0.00000000000E+00  0.91188000000E+02  0.91188000000E+02 0.  0.
    9900012    2    3    3    0    0  0.53588539693E+01 -0.27524506339E+02 -0.33125587186E+02  0.47787305404E+02  0.20000156656E+02 0.  0.
         12    1    3    3    0    0 -0.53588539693E+01  0.27524506339E+02  0.33125587186E+02  0.43400694596E+02  0.00000000000E+00 0. -1.
         11    1    4    4    0    0 -0.92588815129E-01 -0.20965961722E+02 -0.15920085857E+02  0.26325448858E+02  0.51100000000E-03 0. -1.
        -11    1    4    4    0    0  0.42487586931E+01 -0.90596037619E+01 -0.14194634363E+02  0.17367095776E+02  0.51100000000E-03 0.  1.
         12    1    4    4    0    0  0.12026840913E+01  0.25010591450E+01 -0.30108669664E+01  0.40947607696E+01  0.00000000000E+00 0. -1.
</event>
<event>
 8    1  0.5542925E-011  0.9118800E+02  0.7816164E-02  0.1184000E+00
        -11   -1    0    0    0    0  0.00000000000E+00  0.00000000000E+00  0.45593999997E+02  0.45594000000E+02  0.51100000000E-03 0. -1.
         11   -1    0    0    0    0 -0.00000000000E+00 -0.00000000000E+00 -0.45593999997E+02  0.45594000000E+02  0.51100000000E-03 0.  1.
         23    2    1    2    0    0  0.00000000000E+00  0.00000000000E+00  0.35527136788E-14  0.91188000000E+02  0.91188000000E+02 0.  0.
    9900012    2    3    3    0    0  0.33049351332E+02 -0.20530685672E+02 -0.19231605636E+02  0.47787270364E+02  0.19999996896E+02 0.  0.
         12    1    3    3    0    0 -0.33049351332E+02  0.20530685672E+02  0.19231605636E+02  0.43400729636E+02  0.00000000000E+00 0. -1.
         11    1    4    4    0    0  0.11656053770E+02 -0.80525592588E+01 -0.17480414080E+02  0.22500492812E+02  0.51100000000E-03 0.  1.
        -11    1    4    4    0    0  0.18561193283E+00 -0.10791159683E+01  0.26154508981E+00  0.11257660316E+01  0.51100000000E-03 0. -1.
        -12    1    4    4    0    0  0.21207685629E+02 -0.11399010445E+02 -0.20127366456E+01  0.24161011520E+02  0.00000000000E+00 0.  1.
</event>
<event>
 8    1  0.5542925E-011  0.9118800E+02  0.7816164E-02  0.1184000E+00
        -11   -1    0    0    0    0  0.00000000000E+00  0.00000000000E+00  0.45593999997E+02  0.45594000000E+02  0.51100000000E-03 0. -1.
         11   -1    0    0    0    0 -0.00000000000E+00 -0.00000000000E+00 -0.45593999997E+02  0.45594000000E+02  0.51100000000E-03 0.  1.
         23    2    1    2    0    0  0.17763568394E-14  0.00000000000E+00  0.00000000000E+00  0.91188000000E+02  0.91188000000E+02 0.  0.
    9900012    2    3    3    0    0  0.11130340526E+02 -0.18728845763E+02 -0.37536217554E+02  0.47787288346E+02  0.20000078883E+02 0.  0.
         12    1    3    3    0    0 -0.11130340526E+02  0.18728845763E+02  0.37536217554E+02  0.43400711654E+02  0.00000000000E+00 0. -1.
         11    1    4    4    0    0  0.48996538585E+01 -0.33364840749E+01 -0.16389914579E+02  0.17428942426E+02  0.51100000000E-03 0.  1.
        -11    1    4    4    0    0  0.10113907933E+02 -0.66083583229E+01 -0.10351275870E+02  0.15909445176E+02  0.51100000000E-03 0. -1.
         12    1    4    4    0    0 -0.38832212653E+01 -0.87840033650E+01 -0.10795027106E+02  0.14448900744E+02  0.00000000000E+00 0. -1.
</event>
<event>
 8    1  0.5542925E-011  0.9118800E+02  0.7816164E-02  0.1184000E+00
        -11   -1    0    0    0    0  0.00000000000E+00  0.00000000000E+00  0.45593999997E+02  0.45594000000E+02  0.51100000000E-03 0. -1.
         11   -1    0    0    0    0 -0.00000000000E+00 -0.00000000000E+00 -0.45593999997E+02  0.45594000000E+02  0.51100000000E-03 0.  1.
         23    2    1    2    0    0  0.00000000000E+00  0.35527136788E-14  0.00000000000E+00  0.91188000000E+02  0.91188000000E+02 0.  0.
    9900012    2    3    3    0    0 -0.29766144182E+02 -0.27060908625E+02 -0.16288252939E+02  0.47787270756E+02  0.19999998687E+02 0.  0.
         12    1    3    3    0    0  0.29766144182E+02  0.27060908625E+02  0.16288252939E+02  0.43400729244E+02  0.00000000000E+00 0. -1.
         11    1    4    4    0    0 -0.98596455965E-02  0.98232940730E+00 -0.44422216851E-01  0.98338287128E+00  0.51100000000E-03 0. -1.
        -11    1    4    4    0    0 -0.14380922639E+02 -0.22013379479E+02 -0.14927016184E+02  0.30235998816E+02  0.51100000000E-03 0.  1.
        -12    1    4    4    0    0 -0.15375361898E+02 -0.60298585529E+01 -0.13168145384E+01  0.16567889069E+02  0.00000000000E+00 0.  1.
</event>
<event>
 8    1  0.5542925E-011  0.9118800E+02  0.7816164E-02  0.1184000E+00
        -11   -1    0    0    0    0  0.00000000000E+00  0.00000000000E+00  0.45593999997E+02  0.45594000000E+02  0.51100000000E-03 0.  1.
         11   -1    0    0    0    0 -0.00000000000E+00 -0.00000000000E+00 -0.45593999997E+02  0.45594000000E+02  0.51100000000E-03 0. -1.
         23    2    1    2    0    0  0.00000000000E+00 -0.88817841970E-15  0.17763568394E-14  0.91188000000E+02  0.91188000000E+02 0.  0.
    9900012    2    3    3    0    0  0.40869106701E+02 -0.63958336993E+01 -0.13131379201E+02  0.47787266239E+02  0.19999978092E+02 0.  0.
         12    1    3    3    0    0 -0.40869106701E+02  0.63958336993E+01  0.13131379201E+02  0.43400733761E+02  0.00000000000E+00 0. -1.
         11    1    4    4    0    0  0.25040495883E+02 -0.67703482944E+01 -0.98087367831E+01  0.27732208128E+02  0.51100000000E-03 0.  1.
        -11    1    4    4    0    0  0.46098596924E+01 -0.47884175903E+01 -0.38733801533E+01  0.76930373375E+01  0.51100000000E-03 0. -1.
         12    1    4    4    0    0  0.11218751125E+02  0.51629321854E+01  0.55073773580E+00  0.12362020774E+02  0.00000000000E+00 0. -1.
</event>
<event>
 8    1  0.5542925E-011  0.9118800E+02  0.7816164E-02  0.1184000E+00
        -11   -1    0    0    0    0  0.00000000000E+00  0.00000000000E+00  0.45593999997E+02  0.45594000000E+02  0.51100000000E-03 0. -1.
         11   -1    0    0    0    0 -0.00000000000E+00 -0.00000000000E+00 -0.45593999997E+02  0.45594000000E+02  0.51100000000E-03 0.  1.
         23    2    1    2    0    0  0.71054273576E-14  0.00000000000E+00  0.00000000000E+00  0.91188000000E+02  0.91188000000E+02 0.  0.
    9900012    2    3    3    0    0 -0.38935279244E+02  0.15719842570E+02 -0.10979731967E+02  0.47787263436E+02  0.19999965308E+02 0.  0.
         12    1    3    3    0    0  0.38935279244E+02 -0.15719842570E+02  0.10979731967E+02  0.43400736564E+02  0.00000000000E+00 0. -1.
         11    1    4    4    0    0 -0.12473257397E+02 -0.10673945952E+01 -0.20282817259E+00  0.12520488044E+02  0.51100000000E-03 0. -1.
        -11    1    4    4    0    0 -0.15980217030E+02  0.34503264580E+01 -0.30659441683E+01  0.16633463346E+02  0.51100000000E-03 0.  1.
        -12    1    4    4    0    0 -0.10481804817E+02  0.13336910707E+02 -0.77109596261E+01  0.18633312046E+02  0.00000000000E+00 0.  1.
</event>
<event>
 8    1  0.5542925E-011  0.9118800E+02  0.7816164E-02  0.1184000E+00
        -11   -1    0    0    0    0  0.00000000000E+00  0.00000000000E+00  0.45593999997E+02  0.45594000000E+02  0.51100000000E-03 0. -1.
         11   -1    0    0    0    0 -0.00000000000E+00 -0.00000000000E+00 -0.45593999997E+02  0.45594000000E+02  0.51100000000E-03 0.  1.
         23    2    1    2    0    0 -0.17763568394E-14  0.00000000000E+00  0.35527136788E-14  0.91188000000E+02  0.91188000000E+02 0.  0.
    9900012    2    3    3    0    0  0.84972275286E+01  0.34116521523E+02  0.25445691614E+02  0.47787272607E+02  0.20000007125E+02 0.  0.
        -12    1    3    3    0    0 -0.84972275286E+01 -0.34116521523E+02 -0.25445691614E+02  0.43400727393E+02  0.00000000000E+00 0.  1.
         11    1    4    4    0    0  0.61615331620E+01  0.27865252169E+02  0.22943875849E+02  0.36617730795E+02  0.51100000000E-03 0. -1.
        -11    1    4    4    0    0  0.48261712756E+01  0.53609352740E+01  0.38763267471E+01  0.81888622838E+01  0.51100000000E-03 0.  1.
        -12    1    4    4    0    0 -0.24904769090E+01  0.89033408054E+00 -0.13745109825E+01  0.29806795282E+01  0.00000000000E+00 0.  1.
</event>
<event>
 8    1  0.5542925E-011  0.9118800E+02  0.7816164E-02  0.1184000E+00
        -11   -1    0    0    0    0  0.00000000000E+00  0.00000000000E+00  0.45593999997E+02  0.45594000000E+02  0.51100000000E-03 0. -1.
         11   -1    0    0    0    0 -0.00000000000E+00 -0.00000000000E+00 -0.45593999997E+02  0.45594000000E+02  0.51100000000E-03 0.  1.
         23    2    1    2    0    0  0.13322676296E-14  0.00000000000E+00 -0.71054273576E-14  0.91188000000E+02  0.91188000000E+02 0.  0.
    9900012    2    3    3    0    0 -0.31272745289E+01 -0.19701899399E+02 -0.38544445545E+02  0.47787320648E+02  0.20000226160E+02 0.  0.
         12    1    3    3    0    0  0.31272745289E+01  0.19701899399E+02  0.38544445545E+02  0.43400679352E+02  0.00000000000E+00 0. -1.
         11    1    4    4    0    0  0.56362265186E+01 -0.35307382751E+01 -0.70973672692E+01  0.97265504960E+01  0.51100000000E-03 0. -1.
        -11    1    4    4    0    0  0.86749722080E+00 -0.72755483447E+01 -0.17219848901E+02  0.18713881254E+02  0.51100000000E-03 0.  1.
        -12    1    4    4    0    0 -0.96309982683E+01 -0.88956127788E+01 -0.14227229374E+02  0.19346888898E+02  0.00000000000E+00 0.  1.
</event>
<event>
 8    1  0.5542925E-011  0.9118800E+02  0.7816164E-02  0.1184000E+00
        -11   -1    0    0    0    0  0.00000000000E+00  0.00000000000E+00  0.45593999997E+02  0.45594000000E+02  0.51100000000E-03 0.  1.
         11   -1    0    0    0    0 -0.00000000000E+00 -0.00000000000E+00 -0.45593999997E+02  0.45594000000E+02  0.51100000000E-03 0. -1.
         23    2    1    2    0    0  0.00000000000E+00  0.00000000000E+00  0.00000000000E+00  0.91188000000E+02  0.91188000000E+02 0.  0.
    9900012    2    3    3    0    0 -0.33835843688E+02 -0.23407570096E+02 -0.13814655336E+02  0.47787270076E+02  0.19999995587E+02 0.  0.
         12    1    3    3    0    0  0.33835843688E+02  0.23407570096E+02  0.13814655336E+02  0.43400729924E+02  0.00000000000E+00 0. -1.
         11    1    4    4    0    0 -0.16851163439E+02 -0.79277846327E+01  0.17914774419E+01  0.18708844702E+02  0.51100000000E-03 0. -1.
        -11    1    4    4    0    0 -0.41606699359E+01 -0.26365290116E+01  0.31447168772E+00  0.49357220595E+01  0.51100000000E-03 0.  1.
        -12    1    4    4    0    0 -0.12824010313E+02 -0.12843256452E+02 -0.15920604465E+02  0.24142703315E+02  0.00000000000E+00 0.  1.
</event>
<event>
 8    1  0.5542925E-011  0.9118800E+02  0.7816164E-02  0.1184000E+00
        -11   -1    0    0    0    0  0.00000000000E+00  0.00000000000E+00  0.45593999997E+02  0.45594000000E+02  0.51100000000E-03 0. -1.
         11   -1    0    0    0    0 -0.00000000000E+00 -0.00000000000E+00 -0.45593999997E+02  0.45594000000E+02  0.51100000000E-03 0.  1.
         23    2    1    2    0    0 -0.35527136788E-14  0.00000000000E+00  0.00000000000E+00  0.91188000000E+02  0.91188000000E+02 0.  0.
    9900012    2    3    3    0    0 -0.18369349535E+02  0.25327635026E+02  0.30078246832E+02  0.47787273844E+02  0.20000012763E+02 0.  0.
        -12    1    3    3    0    0  0.18369349535E+02 -0.25327635026E+02 -0.30078246832E+02  0.43400726156E+02  0.00000000000E+00 0.  1.
         11    1    4    4    0    0 -0.10417220114E+02  0.14283077179E+02  0.92666132850E+01  0.19959831929E+02  0.51100000000E-03 0. -1.
        -11    1    4    4    0    0 -0.79030726448E+01  0.13642721538E+02  0.18831973783E+02  0.24560652374E+02  0.51100000000E-03 0.  1.
        -12    1    4    4    0    0 -0.49056776738E-01 -0.25981636898E+01  0.19796597637E+01  0.32667895412E+01  0.00000000000E+00 0.  1.
</event>
<event>
 8    1  0.5542925E-011  0.9118800E+02  0.7816164E-02  0.1184000E+00
        -11   -1    0    0    0    0  0.00000000000E+00  0.00000000000E+00  0.45593999997E+02  0.45594000000E+02  0.51100000000E-03 0. -1.
         11   -1    0    0    0    0 -0.00000000000E+00 -0.00000000000E+00 -0.45593999997E+02  0.45594000000E+02  0.51100000000E-03 0.  1.
         23    2    1    2    0    0  0.00000000000E+00  0.00000000000E+00  0.00000000000E+00  0.91188000000E+02  0.91188000000E+02 0.  0.
    9900012    2    3    3    0    0 -0.32391519551E+02 -0.21860813467E+02 -0.18881674441E+02  0.47787270352E+02  0.19999996841E+02 0.  0.
         12    1    3    3    0    0  0.32391519551E+02  0.21860813467E+02  0.18881674441E+02  0.43400729648E+02  0.00000000000E+00 0. -1.
         11    1    4    4    0    0 -0.48186748873E+01 -0.10883392575E+02 -0.84945476796E+01  0.14622763150E+02  0.51100000000E-03 0. -1.
        -11    1    4    4    0    0  0.68895281119E+00  0.62755986218E+00 -0.46886146116E+00  0.10432251375E+01  0.51100000000E-03 0.  1.
        -12    1    4    4    0    0 -0.28261797475E+02 -0.11604980755E+02 -0.99182653004E+01  0.32121282064E+02  0.00000000000E+00 0.  1.
</event>
<event>
 8    1  0.5542925E-011  0.9118800E+02  0.7816164E-02  0.1184000E+00
        -11   -1    0    0    0    0  0.00000000000E+00  0.00000000000E+00  0.45593999997E+02  0.45594000000E+02  0.51100000000E-03 0. -1.
         11   -1    0    0    0    0 -0.00000000000E+00 -0.00000000000E+00 -0.45593999997E+02  0.45594000000E+02  0.51100000000E-03 0.  1.
         23    2    1    2    0    0  0.00000000000E+00  0.17763568394E-14 -0.71054273576E-14  0.91188000000E+02  0.91188000000E+02 0.  0.
    9900012    2    3    3    0    0 -0.16847693113E+02  0.68460383971E+01 -0.39406974746E+02  0.47787278075E+02  0.20000032056E+02 0.  0.
         12    1    3    3    0    0  0.16847693113E+02 -0.68460383971E+01  0.39406974746E+02  0.43400721925E+02  0.00000000000E+00 0. -1.
         11    1    4    4    0    0 -0.36348045609E+01  0.56563369392E+01 -0.15238129617E+02  0.16655525998E+02  0.51100000000E-03 0. -1.
        -11    1    4    4    0    0 -0.13593440863E+02  0.57398596578E+01 -0.15941687146E+02  0.21722454114E+02  0.51100000000E-03 0.  1.
         12    1    4    4    0    0  0.38055231094E+00 -0.45501581999E+01 -0.82271579825E+01  0.94092979640E+01  0.00000000000E+00 0. -1.
</event>
<event>
 8    1  0.5542925E-011  0.9118800E+02  0.7816164E-02  0.1184000E+00
        -11   -1    0    0    0    0  0.00000000000E+00  0.00000000000E+00  0.45593999997E+02  0.45594000000E+02  0.51100000000E-03 0. -1.
         11   -1    0    0    0    0 -0.00000000000E+00 -0.00000000000E+00 -0.45593999997E+02  0.45594000000E+02  0.51100000000E-03 0.  1.
         23    2    1    2    0    0  0.17763568394E-14 -0.19984014443E-14 -0.71054273576E-14  0.91188000000E+02  0.91188000000E+02 0.  0.
    9900012    2    3    3    0    0  0.97763614034E+01 -0.83746884866E+00 -0.42276998992E+02  0.47787271433E+02  0.20000001770E+02 0.  0.
         12    1    3    3    0    0 -0.97763614034E+01  0.83746884866E+00  0.42276998992E+02  0.43400728567E+02  0.00000000000E+00 0. -1.
         11    1    4    4    0    0 -0.69194200668E+00 -0.17596174830E+00 -0.11305329939E+01  0.13371056012E+01  0.51100000000E-03 0. -1.
        -11    1    4    4    0    0 -0.43056349905E+00  0.76790826907E+01 -0.17380355966E+02  0.19006064023E+02  0.51100000000E-03 0.  1.
         12    1    4    4    0    0  0.10898866909E+02 -0.83405897911E+01 -0.23766110033E+02  0.27444101808E+02  0.00000000000E+00 0. -1.
</event>
<event>
 8    1  0.5542925E-011  0.9118800E+02  0.7816164E-02  0.1184000E+00
        -11   -1    0    0    0    0  0.00000000000E+00  0.00000000000E+00  0.45593999997E+02  0.45594000000E+02  0.51100000000E-03 0. -1.
         11   -1    0    0    0    0 -0.00000000000E+00 -0.00000000000E+00 -0.45593999997E+02  0.45594000000E+02  0.51100000000E-03 0.  1.
         23    2    1    2    0    0  0.00000000000E+00  0.35527136788E-14  0.00000000000E+00  0.91188000000E+02  0.91188000000E+02 0.  0.
    9900012    2    3    3    0    0 -0.18126093411E+02  0.21197452025E+02 -0.33252551782E+02  0.47787315274E+02  0.20000201659E+02 0.  0.
         12    1    3    3    0    0  0.18126093411E+02 -0.21197452025E+02  0.33252551782E+02  0.43400684726E+02  0.00000000000E+00 0. -1.
         11    1    4    4    0    0 -0.29845661812E+01 -0.13080540911E+01 -0.93521266840E+00  0.33901716463E+01  0.51100000000E-03 0. -1.
        -11    1    4    4    0    0 -0.14562044017E+02  0.95987166857E+01 -0.20151444791E+02  0.26650876447E+02  0.51100000000E-03 0.  1.
         12    1    4    4    0    0 -0.57948321310E+00  0.12906789430E+02 -0.12165894323E+02  0.17746267181E+02  0.00000000000E+00 0. -1.
</event>
<event>
 8    1  0.5542925E-011  0.9118800E+02  0.7816164E-02  0.1184000E+00
        -11   -1    0    0    0    0  0.00000000000E+00  0.00000000000E+00  0.45593999997E+02  0.45594000000E+02  0.51100000000E-03 0. -1.
         11   -1    0    0    0    0 -0.00000000000E+00 -0.00000000000E+00 -0.45593999997E+02  0.45594000000E+02  0.51100000000E-03 0.  1.
         23    2    1    2    0    0 -0.71054273576E-14 -0.71054273576E-14  0.17763568394E-14  0.91188000000E+02  0.91188000000E+02 0.  0.
    9900012    2    3    3    0    0 -0.29674494265E+02 -0.27686567579E+02  0.15378611823E+02  0.47787270331E+02  0.19999996747E+02 0.  0.
        -12    1    3    3    0    0  0.29674494265E+02  0.27686567579E+02 -0.15378611823E+02  0.43400729669E+02  0.00000000000E+00 0.  1.
         11    1    4    4    0    0 -0.18883358822E+02 -0.13269348777E+02  0.68307083776E+01  0.24068972445E+02  0.51100000000E-03 0. -1.
        -11    1    4    4    0    0 -0.13430230425E+02 -0.13445706403E+02  0.60144276827E+01  0.19933174623E+02  0.51100000000E-03 0.  1.
        -12    1    4    4    0    0  0.26390949827E+01 -0.97151239929E+00  0.25334757629E+01  0.37851232622E+01  0.00000000000E+00 0.  1.
</event>
<event>
 8    1  0.5542925E-011  0.9118800E+02  0.7816164E-02  0.1184000E+00
        -11   -1    0    0    0    0  0.00000000000E+00  0.00000000000E+00  0.45593999997E+02  0.45594000000E+02  0.51100000000E-03 0. -1.
         11   -1    0    0    0    0 -0.00000000000E+00 -0.00000000000E+00 -0.45593999997E+02  0.45594000000E+02  0.51100000000E-03 0.  1.
         23    2    1    2    0    0  0.00000000000E+00 -0.35527136788E-14  0.35527136788E-14  0.91188000000E+02  0.91188000000E+02 0.  0.
    9900012    2    3    3    0    0 -0.26262748479E+02  0.25943620934E+02 -0.22821459625E+02  0.47787280602E+02  0.20000043579E+02 0.  0.
         12    1    3    3    0    0  0.26262748479E+02 -0.25943620934E+02  0.22821459625E+02  0.43400719398E+02  0.00000000000E+00 0. -1.
         11    1    4    4    0    0 -0.20309354343E+02  0.14313613073E+02 -0.22706815249E+02  0.33659305579E+02  0.51100000000E-03 0. -1.
        -11    1    4    4    0    0 -0.41798498248E+01  0.51672143899E+01 -0.23712983229E+01  0.70565079966E+01  0.51100000000E-03 0.  1.
         12    1    4    4    0    0 -0.17735443106E+01  0.64627934713E+01  0.22566539473E+01  0.70714670269E+01  0.00000000000E+00 0. -1.
</event>
<event>
 8    1  0.5542925E-011  0.9118800E+02  0.7816164E-02  0.1184000E+00
        -11   -1    0    0    0    0  0.00000000000E+00  0.00000000000E+00  0.45593999997E+02  0.45594000000E+02  0.51100000000E-03 0. -1.
         11   -1    0    0    0    0 -0.00000000000E+00 -0.00000000000E+00 -0.45593999997E+02  0.45594000000E+02  0.51100000000E-03 0.  1.
         23    2    1    2    0    0 -0.71054273576E-14 -0.88817841970E-15  0.00000000000E+00  0.91188000000E+02  0.91188000000E+02 0.  0.
    9900012    2    3    3    0    0 -0.37677460926E+02  0.68627618214E+01  0.20419102026E+02  0.47787213265E+02  0.19999736558E+02 0.  0.
        -12    1    3    3    0    0  0.37677460926E+02 -0.68627618214E+01 -0.20419102026E+02  0.43400786735E+02  0.00000000000E+00 0.  1.
         11    1    4    4    0    0 -0.16310598440E+02 -0.30996527063E+01  0.46489514269E+01  0.17241119975E+02  0.51100000000E-03 0. -1.
        -11    1    4    4    0    0 -0.34544988590E+01 -0.25644287120E+01  0.26105934084E+01  0.50324005396E+01  0.51100000000E-03 0.  1.
        -12    1    4    4    0    0 -0.17912363627E+02  0.12526843240E+02  0.13159557191E+02  0.25513692750E+02  0.00000000000E+00 0.  1.
</event>
<event>
 8    1  0.5542925E-011  0.9118800E+02  0.7816164E-02  0.1184000E+00
        -11   -1    0    0    0    0  0.00000000000E+00  0.00000000000E+00  0.45593999997E+02  0.45594000000E+02  0.51100000000E-03 0. -1.
         11   -1    0    0    0    0 -0.00000000000E+00 -0.00000000000E+00 -0.45593999997E+02  0.45594000000E+02  0.51100000000E-03 0.  1.
         23    2    1    2    0    0  0.00000000000E+00  0.44408920985E-15  0.00000000000E+00  0.91188000000E+02  0.91188000000E+02 0.  0.
    9900012    2    3    3    0    0 -0.32392824841E+01  0.15941771805E+01 -0.43250313027E+02  0.47787263499E+02  0.19999965599E+02 0.  0.
         12    1    3    3    0    0  0.32392824841E+01 -0.15941771805E+01  0.43250313027E+02  0.43400736501E+02  0.00000000000E+00 0. -1.
         11    1    4    4    0    0 -0.29457947401E+01 -0.20817777555E+01 -0.18327635464E+02  0.18679232512E+02  0.51100000000E-03 0. -1.
        -11    1    4    4    0    0  0.36945427226E+01 -0.44923162581E+01 -0.78970854769E+01  0.98078800249E+01  0.51100000000E-03 0.  1.
         12    1    4    4    0    0 -0.39880304666E+01  0.81682711941E+01 -0.17025592086E+02  0.19300150963E+02  0.00000000000E+00 0. -1.
</event>
<event>
 8    1  0.8536196E-011  0.9118800E+02  0.7816164E-02  0.1184000E+00
        -11   -1    0    0    0    0  0.00000000000E+00  0.00000000000E+00  0.45593999997E+02  0.45594000000E+02  0.51100000000E-03 0. -1.
         11   -1    0    0    0    0 -0.00000000000E+00 -0.00000000000E+00 -0.45593999997E+02  0.45594000000E+02  0.51100000000E-03 0.  1.
         23    2    1    2    0    0 -0.11102230246E-15  0.00000000000E+00  0.00000000000E+00  0.91188000000E+02  0.91188000000E+02 0.  0.
    9900012    2    3    3    0    0 -0.45550600415E+00  0.11369706459E+02  0.41882522009E+02  0.47787270046E+02  0.19999995449E+02 0.  0.
        -12    1    3    3    0    0  0.45550600415E+00 -0.11369706459E+02 -0.41882522009E+02  0.43400729954E+02  0.00000000000E+00 0.  1.
         11    1    4    4    0    0 -0.23251793371E+01  0.30118288173E+01  0.45454385969E+00  0.38319945402E+01  0.51100000000E-03 0. -1.
        -11    1    4    4    0    0 -0.61607027590E+00 -0.27476336907E+01  0.44532526763E+01  0.52688227474E+01  0.51100000000E-03 0.  1.
         12    1    4    4    0    0  0.24857436089E+01  0.11105511332E+02  0.36974725473E+02  0.38686452759E+02  0.00000000000E+00 0. -1.
</event>
<event>
 8    1  0.5542925E-011  0.9118800E+02  0.7816164E-02  0.1184000E+00
        -11   -1    0    0    0    0  0.00000000000E+00  0.00000000000E+00  0.45593999997E+02  0.45594000000E+02  0.51100000000E-03 0. -1.
         11   -1    0    0    0    0 -0.00000000000E+00 -0.00000000000E+00 -0.45593999997E+02  0.45594000000E+02  0.51100000000E-03 0.  1.
         23    2    1    2    0    0  0.00000000000E+00  0.17763568394E-14  0.71054273576E-14  0.91188000000E+02  0.91188000000E+02 0.  0.
    9900012    2    3    3    0    0 -0.13793806475E+02 -0.84714144518E+01  0.40268963983E+02  0.47787269359E+02  0.19999992315E+02 0.  0.
        -12    1    3    3    0    0  0.13793806475E+02  0.84714144518E+01 -0.40268963983E+02  0.43400730641E+02  0.00000000000E+00 0.  1.
         11    1    4    4    0    0 -0.59147548202E+01  0.11668816565E+01  0.20094227337E+02  0.20979130342E+02  0.51100000000E-03 0. -1.
        -11    1    4    4    0    0 -0.73636444696E+01 -0.53315178259E+01  0.20533294821E+02  0.22455835293E+02  0.51100000000E-03 0.  1.
        -12    1    4    4    0    0 -0.51540718542E+00 -0.43067782824E+01 -0.35855817513E+00  0.43523037240E+01  0.00000000000E+00 0.  1.
</event>
<event>
 8    1  0.5542925E-011  0.9118800E+02  0.7816164E-02  0.1184000E+00
        -11   -1    0    0    0    0  0.00000000000E+00  0.00000000000E+00  0.45593999997E+02  0.45594000000E+02  0.51100000000E-03 0. -1.
         11   -1    0    0    0    0 -0.00000000000E+00 -0.00000000000E+00 -0.45593999997E+02  0.45594000000E+02  0.51100000000E-03 0.  1.
         23    2    1    2    0    0  0.00000000000E+00  0.00000000000E+00  0.00000000000E+00  0.91188000000E+02  0.91188000000E+02 0.  0.
    9900012    2    3    3    0    0 -0.72312056210E+01 -0.14001726428E+02  0.40438659547E+02  0.47787264249E+02  0.19999969019E+02 0.  0.
        -12    1    3    3    0    0  0.72312056210E+01  0.14001726428E+02 -0.40438659547E+02  0.43400735751E+02  0.00000000000E+00 0.  1.
         11    1    4    4    0    0 -0.37198778475E+01  0.24546290349E+01  0.14512953980E+02  0.15181848649E+02  0.51100000000E-03 0. -1.
        -11    1    4    4    0    0  0.29218996348E+01 -0.31076249087E+01  0.26772273935E+01  0.50361073089E+01  0.51100000000E-03 0.  1.
        -12    1    4    4    0    0 -0.64332274083E+01 -0.13348730555E+02  0.23248478174E+02  0.27569308292E+02  0.00000000000E+00 0.  1.
</event>
<event>
 8    1  0.5542925E-011  0.9118800E+02  0.7816164E-02  0.1184000E+00
        -11   -1    0    0    0    0  0.00000000000E+00  0.00000000000E+00  0.45593999997E+02  0.45594000000E+02  0.51100000000E-03 0. -1.
         11   -1    0    0    0    0 -0.00000000000E+00 -0.00000000000E+00 -0.45593999997E+02  0.45594000000E+02  0.51100000000E-03 0.  1.
         23    2    1    2    0    0  0.00000000000E+00  0.00000000000E+00  0.00000000000E+00  0.91188000000E+02  0.91188000000E+02 0.  0.
    9900012    2    3    3    0    0 -0.92129734517E+01 -0.34196488009E+02  0.25086743025E+02  0.47787270196E+02  0.19999996131E+02 0.  0.
        -12    1    3    3    0    0  0.92129734517E+01  0.34196488009E+02 -0.25086743025E+02  0.43400729804E+02  0.00000000000E+00 0.  1.
         11    1    4    4    0    0 -0.71380882285E+00 -0.43042256374E+01  0.14671924735E+01  0.46031006277E+01  0.51100000000E-03 0. -1.
        -11    1    4    4    0    0 -0.33870298664E+01  0.57245276450E+00  0.77026960480E+01  0.84339314766E+01  0.51100000000E-03 0.  1.
        -12    1    4    4    0    0 -0.51121347625E+01 -0.30464715136E+02  0.15916854503E+02  0.34750238092E+02  0.00000000000E+00 0.  1.
</event>
<event>
 8    1  0.5542925E-011  0.9118800E+02  0.7816164E-02  0.1184000E+00
        -11   -1    0    0    0    0  0.00000000000E+00  0.00000000000E+00  0.45593999997E+02  0.45594000000E+02  0.51100000000E-03 0. -1.
         11   -1    0    0    0    0 -0.00000000000E+00 -0.00000000000E+00 -0.45593999997E+02  0.45594000000E+02  0.51100000000E-03 0.  1.
         23    2    1    2    0    0  0.00000000000E+00  0.00000000000E+00  0.00000000000E+00  0.91188000000E+02  0.91188000000E+02 0.  0.
    9900012    2    3    3    0    0 -0.22970866960E+02  0.10841793548E+02  0.35191175985E+02  0.47787261717E+02  0.19999957473E+02 0.  0.
        -12    1    3    3    0    0  0.22970866960E+02 -0.10841793548E+02 -0.35191175985E+02  0.43400738283E+02  0.00000000000E+00 0.  1.
         11    1    4    4    0    0 -0.95486039529E+01  0.12469998688E+02  0.22558740151E+02  0.27487696560E+02  0.51100000000E-03 0. -1.
        -11    1    4    4    0    0 -0.21445546310E+01  0.11660956533E+01  0.69489395014E+01  0.73652327929E+01  0.51100000000E-03 0.  1.
        -12    1    4    4    0    0 -0.11277708376E+02 -0.27943007924E+01  0.56834963332E+01  0.12934332364E+02  0.00000000000E+00 0.  1.
</event>
<event>
 8    1  0.5542925E-011  0.9118800E+02  0.7816164E-02  0.1184000E+00
        -11   -1    0    0    0    0  0.00000000000E+00  0.00000000000E+00  0.45593999997E+02  0.45594000000E+02  0.51100000000E-03 0. -1.
         11   -1    0    0    0    0 -0.00000000000E+00 -0.00000000000E+00 -0.45593999997E+02  0.45594000000E+02  0.51100000000E-03 0.  1.
         23    2    1    2    0    0  0.44408920985E-15  0.00000000000E+00  0.00000000000E+00  0.91188000000E+02  0.91188000000E+02 0.  0.
    9900012    2    3    3    0    0  0.24264750736E+01 -0.17960397835E+02 -0.39435515759E+02  0.47787267577E+02  0.19999984190E+02 0.  0.
         12    1    3    3    0    0 -0.24264750736E+01  0.17960397835E+02  0.39435515759E+02  0.43400732423E+02  0.00000000000E+00 0. -1.
         11    1    4    4    0    0  0.72564406738E+01 -0.65744346265E+01 -0.21193926701E+02  0.23346555446E+02  0.51100000000E-03 0. -1.
        -11    1    4    4    0    0 -0.14122983381E+01 -0.37572988358E+01 -0.14911958008E+02  0.15442744997E+02  0.51100000000E-03 0.  1.
         12    1    4    4    0    0 -0.34176672622E+01 -0.76286643726E+01 -0.33296310501E+01  0.89979671345E+01  0.00000000000E+00 0. -1.
</event>
<event>
 8    1  0.5542925E-011  0.9118800E+02  0.7816164E-02  0.1184000E+00
        -11   -1    0    0    0    0  0.00000000000E+00  0.00000000000E+00  0.45593999997E+02  0.45594000000E+02  0.51100000000E-03 0. -1.
         11   -1    0    0    0    0 -0.00000000000E+00 -0.00000000000E+00 -0.45593999997E+02  0.45594000000E+02  0.51100000000E-03 0.  1.
         23    2    1    2    0    0  0.00000000000E+00  0.17763568394E-14  0.00000000000E+00  0.91188000000E+02  0.91188000000E+02 0.  0.
    9900012    2    3    3    0    0 -0.20239614832E+01  0.13818968970E+02  0.41092107329E+02  0.47787290233E+02  0.20000087490E+02 0.  0.
        -12    1    3    3    0    0  0.20239614832E+01 -0.13818968970E+02 -0.41092107329E+02  0.43400709767E+02  0.00000000000E+00 0.  1.
         11    1    4    4    0    0  0.11253196211E+01 -0.14497093301E+01  0.49191457204E+00  0.18999951576E+01  0.51100000000E-03 0. -1.
        -11    1    4    4    0    0  0.57189237875E+01  0.64731852186E+01  0.20168157680E+02  0.21939981783E+02  0.51100000000E-03 0.  1.
         12    1    4    4    0    0 -0.88682048918E+01  0.87954930820E+01  0.20432035077E+02  0.23947313293E+02  0.00000000000E+00 0. -1.
</event>
<event>
 8    1  0.5542925E-011  0.9118800E+02  0.7816164E-02  0.1184000E+00
        -11   -1    0    0    0    0  0.00000000000E+00  0.00000000000E+00  0.45593999997E+02  0.45594000000E+02  0.51100000000E-03 0.  1.
         11   -1    0    0    0    0 -0.00000000000E+00 -0.00000000000E+00 -0.45593999997E+02  0.45594000000E+02  0.51100000000E-03 0. -1.
         23    2    1    2    0    0  0.00000000000E+00 -0.35527136788E-14  0.00000000000E+00  0.91188000000E+02  0.91188000000E+02 0.  0.
    9900012    2    3    3    0    0  0.34411072324E+02 -0.17994055163E+02 -0.19383381564E+02  0.47787269585E+02  0.19999993346E+02 0.  0.
         12    1    3    3    0    0 -0.34411072324E+02  0.17994055163E+02  0.19383381564E+02  0.43400730415E+02  0.00000000000E+00 0. -1.
         11    1    4    4    0    0  0.40368706558E+01 -0.13043289165E+01 -0.10162128183E+01  0.43623717594E+01  0.51100000000E-03 0. -1.
        -11    1    4    4    0    0  0.17488667195E+02 -0.10879371128E+02 -0.44738874179E+00  0.20601319214E+02  0.51100000000E-03 0.  1.
         12    1    4    4    0    0  0.12885534473E+02 -0.58103551184E+01 -0.17919780004E+02  0.22823578612E+02  0.00000000000E+00 0. -1.
</event>
<event>
 8    1  0.5542925E-011  0.9118800E+02  0.7816164E-02  0.1184000E+00
        -11   -1    0    0    0    0  0.00000000000E+00  0.00000000000E+00  0.45593999997E+02  0.45594000000E+02  0.51100000000E-03 0. -1.
         11   -1    0    0    0    0 -0.00000000000E+00 -0.00000000000E+00 -0.45593999997E+02  0.45594000000E+02  0.51100000000E-03 0.  1.
         23    2    1    2    0    0 -0.35527136788E-14 -0.71054273576E-14  0.71054273576E-14  0.91188000000E+02  0.91188000000E+02 0.  0.
    9900012    2    3    3    0    0  0.22464804748E+02  0.26885452151E+02 -0.25615001483E+02  0.47787270851E+02  0.19999999117E+02 0.  0.
         12    1    3    3    0    0 -0.22464804748E+02 -0.26885452151E+02  0.25615001483E+02  0.43400729149E+02  0.00000000000E+00 0. -1.
         11    1    4    4    0    0  0.12906860674E+02  0.16381257231E+02 -0.19609534328E+02  0.28626324908E+02  0.51100000000E-03 0. -1.
        -11    1    4    4    0    0  0.11428278100E+02  0.83406414937E+01 -0.74138997950E+01  0.15973032001E+02  0.51100000000E-03 0.  1.
         12    1    4    4    0    0 -0.18703340266E+01  0.21635534259E+01  0.14084326399E+01  0.31879139416E+01  0.00000000000E+00 0. -1.
</event>
<event>
 8    1  0.5542925E-011  0.9118800E+02  0.7816164E-02  0.1184000E+00
        -11   -1    0    0    0    0  0.00000000000E+00  0.00000000000E+00  0.45593999997E+02  0.45594000000E+02  0.51100000000E-03 0.  1.
         11   -1    0    0    0    0 -0.00000000000E+00 -0.00000000000E+00 -0.45593999997E+02  0.45594000000E+02  0.51100000000E-03 0. -1.
         23    2    1    2    0    0  0.35527136788E-14  0.00000000000E+00  0.00000000000E+00  0.91188000000E+02  0.91188000000E+02 0.  0.
    9900012    2    3    3    0    0 -0.21885590642E+02 -0.36885646649E+02 -0.66402217865E+01  0.47787279363E+02  0.20000037927E+02 0.  0.
         12    1    3    3    0    0  0.21885590642E+02  0.36885646649E+02  0.66402217865E+01  0.43400720637E+02  0.00000000000E+00 0. -1.
         11    1    4    4    0    0 -0.12032395215E+02 -0.13218648166E+02 -0.12294491847E+01  0.17917107454E+02  0.51100000000E-03 0. -1.
        -11    1    4    4    0    0 -0.10361816699E+02 -0.25064965087E+02 -0.33497877667E+01  0.27328388143E+02  0.51100000000E-03 0.  1.
         12    1    4    4    0    0  0.50862127219E+00  0.13979666043E+01 -0.20609848351E+01  0.25417837666E+01  0.00000000000E+00 0. -1.
</event>
<event>
 8    1  0.5542925E-011  0.9118800E+02  0.7816164E-02  0.1184000E+00
        -11   -1    0    0    0    0  0.00000000000E+00  0.00000000000E+00  0.45593999997E+02  0.45594000000E+02  0.51100000000E-03 0.  1.
         11   -1    0    0    0    0 -0.00000000000E+00 -0.00000000000E+00 -0.45593999997E+02  0.45594000000E+02  0.51100000000E-03 0. -1.
         23    2    1    2    0    0 -0.35527136788E-14  0.00000000000E+00  0.00000000000E+00  0.91188000000E+02  0.91188000000E+02 0.  0.
    9900012    2    3    3    0    0  0.29109441344E+02 -0.20061515351E+02  0.25175366439E+02  0.47787273636E+02  0.20000011817E+02 0.  0.
         12    1    3    3    0    0 -0.29109441344E+02  0.20061515351E+02 -0.25175366439E+02  0.43400726364E+02  0.00000000000E+00 0. -1.
         11    1    4    4    0    0  0.14106592936E+01 -0.78598409374E+00  0.73048332337E+01  0.74811977297E+01  0.51100000000E-03 0. -1.
        -11    1    4    4    0    0  0.52781355995E+01 -0.83467566764E+01  0.45645633054E+00  0.98861223472E+01  0.51100000000E-03 0.  1.
        -12    1    4    4    0    0  0.22420646451E+02 -0.10928774581E+02  0.17414076875E+02  0.30419953559E+02  0.00000000000E+00 0.  1.
</event>
<event>
 8    1  0.5542925E-011  0.9118800E+02  0.7816164E-02  0.1184000E+00
        -11   -1    0    0    0    0  0.00000000000E+00  0.00000000000E+00  0.45593999997E+02  0.45594000000E+02  0.51100000000E-03 0. -1.
         11   -1    0    0    0    0 -0.00000000000E+00 -0.00000000000E+00 -0.45593999997E+02  0.45594000000E+02  0.51100000000E-03 0.  1.
         23    2    1    2    0    0  0.00000000000E+00  0.00000000000E+00  0.17763568394E-14  0.91188000000E+02  0.91188000000E+02 0.  0.
    9900012    2    3    3    0    0 -0.14645422911E+02  0.39152943290E+02  0.11669705362E+02  0.47787269549E+02  0.19999993180E+02 0.  0.
        -12    1    3    3    0    0  0.14645422911E+02 -0.39152943290E+02 -0.11669705362E+02  0.43400730451E+02  0.00000000000E+00 0.  1.
         11    1    4    4    0    0 -0.10520052450E+02  0.91191294386E+01  0.19657829455E+01  0.14060381507E+02  0.51100000000E-03 0. -1.
        -11    1    4    4    0    0 -0.63338726166E+00 -0.59553455236E+00 -0.77716115090E+00  0.11661134344E+01  0.51100000000E-03 0.  1.
        -12    1    4    4    0    0 -0.34919831993E+01  0.30629348403E+02  0.10481083567E+02  0.32560774607E+02  0.00000000000E+00 0.  1.
</event>
<event>
 8    1  0.5542925E-011  0.9118800E+02  0.7816164E-02  0.1184000E+00
        -11   -1    0    0    0    0  0.00000000000E+00  0.00000000000E+00  0.45593999997E+02  0.45594000000E+02  0.51100000000E-03 0. -1.
         11   -1    0    0    0    0 -0.00000000000E+00 -0.00000000000E+00 -0.45593999997E+02  0.45594000000E+02  0.51100000000E-03 0.  1.
         23    2    1    2    0    0  0.00000000000E+00  0.17763568394E-14  0.00000000000E+00  0.91188000000E+02  0.91188000000E+02 0.  0.
    9900012    2    3    3    0    0  0.33661798108E+02  0.13912230805E+02 -0.23599925629E+02  0.47787270657E+02  0.19999998233E+02 0.  0.
         12    1    3    3    0    0 -0.33661798108E+02 -0.13912230805E+02  0.23599925629E+02  0.43400729343E+02  0.00000000000E+00 0. -1.
         11    1    4    4    0    0  0.13644353281E+01  0.35001409878E+01 -0.28429948303E+01  0.47111878083E+01  0.51100000000E-03 0. -1.
        -11    1    4    4    0    0  0.49978243069E-01  0.45842653730E+01 -0.47652137671E+01  0.66125070391E+01  0.51100000000E-03 0.  1.
        -12    1    4    4    0    0  0.32247384536E+02  0.58278244441E+01 -0.15991717032E+02  0.36463575810E+02  0.00000000000E+00 0.  1.
</event>
<event>
 8    1  0.5542925E-011  0.9118800E+02  0.7816164E-02  0.1184000E+00
        -11   -1    0    0    0    0  0.00000000000E+00  0.00000000000E+00  0.45593999997E+02  0.45594000000E+02  0.51100000000E-03 0.  1.
         11   -1    0    0    0    0 -0.00000000000E+00 -0.00000000000E+00 -0.45593999997E+02  0.45594000000E+02  0.51100000000E-03 0. -1.
         23    2    1    2    0    0 -0.35527136788E-14  0.00000000000E+00  0.00000000000E+00  0.91188000000E+02  0.91188000000E+02 0.  0.
    9900012    2    3    3    0    0  0.25784881381E+02 -0.29278972472E+02  0.19013279925E+02  0.47787272467E+02  0.20000006487E+02 0.  0.
        -12    1    3    3    0    0 -0.25784881381E+02  0.29278972472E+02 -0.19013279925E+02  0.43400727533E+02  0.00000000000E+00 0.  1.
         11    1    4    4    0    0  0.16515212259E+02 -0.10559262012E+02  0.54592708076E+01  0.20348314137E+02  0.51100000000E-03 0. -1.
        -11    1    4    4    0    0  0.62012117985E+01 -0.50405219227E+01  0.75904733032E-01  0.79917238949E+01  0.51100000000E-03 0.  1.
         12    1    4    4    0    0  0.30684573236E+01 -0.13679188537E+02  0.13478104385E+02  0.19447234435E+02  0.00000000000E+00 0. -1.
</event>
<event>
 8    1  0.5542925E-011  0.9118800E+02  0.7816164E-02  0.1184000E+00
        -11   -1    0    0    0    0  0.00000000000E+00  0.00000000000E+00  0.45593999997E+02  0.45594000000E+02  0.51100000000E-03 0. -1.
         11   -1    0    0    0    0 -0.00000000000E+00 -0.00000000000E+00 -0.45593999997E+02  0.45594000000E+02  0.51100000000E-03 0.  1.
         23    2    1    2    0    0  0.00000000000E+00  0.00000000000E+00  0.00000000000E+00  0.91188000000E+02  0.91188000000E+02 0.  0.
    9900012    2    3    3    0    0  0.24326043856E+02  0.13335127500E+02 -0.33377255252E+02  0.47787271857E+02  0.20000003707E+02 0.  0.
         12    1    3    3    0    0 -0.24326043856E+02 -0.13335127500E+02  0.33377255252E+02  0.43400728143E+02  0.00000000000E+00 0. -1.
         11    1    4    4    0    0  0.60535988796E+01  0.10504975612E+01 -0.13736786382E+01  0.62957603022E+01  0.51100000000E-03 0. -1.
        -11    1    4    4    0    0  0.11109105250E+02 -0.44573578997E+00 -0.93008101620E+01  0.14495377532E+02  0.51100000000E-03 0.  1.
         12    1    4    4    0    0  0.71633397259E+01  0.12730365729E+02 -0.22702766452E+02  0.26996134023E+02  0.00000000000E+00 0. -1.
</event>
<event>
 8    1  0.5542925E-011  0.9118800E+02  0.7816164E-02  0.1184000E+00
        -11   -1    0    0    0    0  0.00000000000E+00  0.00000000000E+00  0.45593999997E+02  0.45594000000E+02  0.51100000000E-03 0. -1.
         11   -1    0    0    0    0 -0.00000000000E+00 -0.00000000000E+00 -0.45593999997E+02  0.45594000000E+02  0.51100000000E-03 0.  1.
         23    2    1    2    0    0 -0.35527136788E-14  0.27755575616E-16  0.00000000000E+00  0.91188000000E+02  0.91188000000E+02 0.  0.
    9900012    2    3    3    0    0  0.18921881828E+02 -0.19051061120E+00 -0.39058263794E+02  0.47787287140E+02  0.20000073384E+02 0.  0.
         12    1    3    3    0    0 -0.18921881828E+02  0.19051061120E+00  0.39058263794E+02  0.43400712860E+02  0.00000000000E+00 0. -1.
         11    1    4    4    0    0  0.25275109782E+01  0.10420983828E+01  0.74465809231E+00  0.28335131409E+01  0.51100000000E-03 0. -1.
        -11    1    4    4    0    0  0.13486787416E+02 -0.36743635302E+00 -0.15872406737E+02  0.20831748371E+02  0.51100000000E-03 0.  1.
        -12    1    4    4    0    0  0.29075834341E+01 -0.86517264097E+00 -0.23930515149E+02  0.24122025628E+02  0.00000000000E+00 0.  1.
</event>
<event>
 8    1  0.5542925E-011  0.9118800E+02  0.7816164E-02  0.1184000E+00
        -11   -1    0    0    0    0  0.00000000000E+00  0.00000000000E+00  0.45593999997E+02  0.45594000000E+02  0.51100000000E-03 0. -1.
         11   -1    0    0    0    0 -0.00000000000E+00 -0.00000000000E+00 -0.45593999997E+02  0.45594000000E+02  0.51100000000E-03 0.  1.
         23    2    1    2    0    0  0.17763568394E-14  0.88817841970E-15  0.00000000000E+00  0.91188000000E+02  0.91188000000E+02 0.  0.
    9900012    2    3    3    0    0 -0.87843253316E+01 -0.56406799393E+01  0.42126496539E+02  0.47787270140E+02  0.19999995876E+02 0.  0.
        -12    1    3    3    0    0  0.87843253316E+01  0.56406799393E+01 -0.42126496539E+02  0.43400729860E+02  0.00000000000E+00 0.  1.
         11    1    4    4    0    0 -0.69336901542E+01 -0.62148314370E+00  0.65181682779E+01  0.95367089928E+01  0.51100000000E-03 0. -1.
        -11    1    4    4    0    0 -0.61563553070E+01 -0.61008080954E+01  0.16551923623E+02  0.18683863250E+02  0.51100000000E-03 0.  1.
         12    1    4    4    0    0  0.43057201296E+01  0.10816112997E+01  0.19056404639E+02  0.19566697897E+02  0.00000000000E+00 0. -1.
</event>
<event>
 8    1  0.5542925E-011  0.9118800E+02  0.7816164E-02  0.1184000E+00
        -11   -1    0    0    0    0  0.00000000000E+00  0.00000000000E+00  0.45593999997E+02  0.45594000000E+02  0.51100000000E-03 0. -1.
         11   -1    0    0    0    0 -0.00000000000E+00 -0.00000000000E+00 -0.45593999997E+02  0.45594000000E+02  0.51100000000E-03 0.  1.
         23    2    1    2    0    0  0.00000000000E+00 -0.35527136788E-14  0.71054273576E-14  0.91188000000E+02  0.91188000000E+02 0.  0.
    9900012    2    3    3    0    0  0.47181309448E+01 -0.18777135618E+02 -0.38843033786E+02  0.47787275866E+02  0.20000021984E+02 0.  0.
         12    1    3    3    0    0 -0.47181309448E+01  0.18777135618E+02  0.38843033786E+02  0.43400724134E+02  0.00000000000E+00 0. -1.
         11    1    4    4    0    0  0.38536903966E+00  0.20056113439E+01 -0.23589437917E+01  0.31201926596E+01  0.51100000000E-03 0. -1.
        -11    1    4    4    0    0  0.13675975342E+01 -0.33834575678E+01 -0.20603746362E+02  0.20924446768E+02  0.51100000000E-03 0.  1.
        -12    1    4    4    0    0  0.29651643710E+01 -0.17399289394E+02 -0.15880343632E+02  0.23742636438E+02  0.00000000000E+00 0.  1.
</event>
<event>
 8    1  0.5542925E-011  0.9118800E+02  0.7816164E-02  0.1184000E+00
        -11   -1    0    0    0    0  0.00000000000E+00  0.00000000000E+00  0.45593999997E+02  0.45594000000E+02  0.51100000000E-03 0. -1.
         11   -1    0    0    0    0 -0.00000000000E+00 -0.00000000000E+00 -0.45593999997E+02  0.45594000000E+02  0.51100000000E-03 0.  1.
         23    2    1    2    0    0  0.00000000000E+00 -0.17763568394E-14  0.00000000000E+00  0.91188000000E+02  0.91188000000E+02 0.  0.
    9900012    2    3    3    0    0 -0.33591073559E+02 -0.59448112129E+01 -0.26831375147E+02  0.47787266187E+02  0.19999977854E+02 0.  0.
         12    1    3    3    0    0  0.33591073559E+02  0.59448112129E+01  0.26831375147E+02  0.43400733813E+02  0.00000000000E+00 0. -1.
         11    1    4    4    0    0 -0.37854111374E+01  0.24630008266E+01 -0.17626582811E+00  0.45195995900E+01  0.51100000000E-03 0. -1.
        -11    1    4    4    0    0 -0.64404990429E+01  0.31020307746E+01 -0.20487627617E+01  0.74364004709E+01  0.51100000000E-03 0.  1.
        -12    1    4    4    0    0 -0.23365163379E+02 -0.11509842814E+02 -0.24606346557E+02  0.35831266126E+02  0.00000000000E+00 0.  1.
</event>
<event>
 8    1  0.5542925E-011  0.9118800E+02  0.7816164E-02  0.1184000E+00
        -11   -1    0    0    0    0  0.00000000000E+00  0.00000000000E+00  0.45593999997E+02  0.45594000000E+02  0.51100000000E-03 0. -1.
         11   -1    0    0    0    0 -0.00000000000E+00 -0.00000000000E+00 -0.45593999997E+02  0.45594000000E+02  0.51100000000E-03 0.  1.
         23    2    1    2    0    0  0.00000000000E+00  0.35527136788E-14  0.00000000000E+00  0.91188000000E+02  0.91188000000E+02 0.  0.
    9900012    2    3    3    0    0 -0.13174995860E+02  0.19085374628E+02  0.36685026757E+02  0.47787271564E+02  0.20000002370E+02 0.  0.
        -12    1    3    3    0    0  0.13174995860E+02 -0.19085374628E+02 -0.36685026757E+02  0.43400728436E+02  0.00000000000E+00 0.  1.
         11    1    4    4    0    0  0.99816897666E+00  0.77523172292E+01  0.17573591219E+02  0.19233457108E+02  0.51100000000E-03 0. -1.
        -11    1    4    4    0    0 -0.37343388070E+01  0.89101781448E+01  0.51321845902E+01  0.10939647153E+02  0.51100000000E-03 0.  1.
        -12    1    4    4    0    0 -0.10438826029E+02  0.24228792541E+01  0.13979250948E+02  0.17614167304E+02  0.00000000000E+00 0.  1.
</event>
<event>
 8    1  0.5542925E-011  0.9118800E+02  0.7816164E-02  0.1184000E+00
        -11   -1    0    0    0    0  0.00000000000E+00  0.00000000000E+00  0.45593999997E+02  0.45594000000E+02  0.51100000000E-03 0. -1.
         11   -1    0    0    0    0 -0.00000000000E+00 -0.00000000000E+00 -0.45593999997E+02  0.45594000000E+02  0.51100000000E-03 0.  1.
         23    2    1    2    0    0  0.35527136788E-14  0.00000000000E+00  0.17763568394E-14  0.91188000000E+02  0.91188000000E+02 0.  0.
    9900012    2    3    3    0    0 -0.27544983022E+02  0.32461151785E+02 -0.84363078086E+01  0.47787265509E+02  0.19999974762E+02 0.  0.
        -12    1    3    3    0    0  0.27544983022E+02 -0.32461151785E+02  0.84363078086E+01  0.43400734491E+02  0.00000000000E+00 0.  1.
         11    1    4    4    0    0 -0.17931043874E+02  0.14917749539E+02 -0.33644458192E+01  0.23566524599E+02  0.51100000000E-03 0. -1.
        -11    1    4    4    0    0 -0.99582713116E+01  0.11672266560E+02 -0.83702817393E+01  0.17477716979E+02  0.51100000000E-03 0.  1.
         12    1    4    4    0    0  0.34433216392E+00  0.58711356864E+01  0.32984197499E+01  0.67430239309E+01  0.00000000000E+00 0. -1.
</event>
<event>
 8    1  0.5542925E-011  0.9118800E+02  0.7816164E-02  0.1184000E+00
        -11   -1    0    0    0    0  0.00000000000E+00  0.00000000000E+00  0.45593999997E+02  0.45594000000E+02  0.51100000000E-03 0. -1.
         11   -1    0    0    0    0 -0.00000000000E+00 -0.00000000000E+00 -0.45593999997E+02  0.45594000000E+02  0.51100000000E-03 0.  1.
         23    2    1    2    0    0 -0.35527136788E-14  0.00000000000E+00  0.71054273576E-14  0.91188000000E+02  0.91188000000E+02 0.  0.
    9900012    2    3    3    0    0  0.25135442806E+02  0.63935493618E+01 -0.34798803153E+02  0.47787255083E+02  0.19999927224E+02 0.  0.
         12    1    3    3    0    0 -0.25135442806E+02 -0.63935493618E+01  0.34798803153E+02  0.43400744917E+02  0.00000000000E+00 0. -1.
         11    1    4    4    0    0 -0.15241273271E+01  0.93119062541E+00  0.20125783591E+00  0.17973828384E+01  0.51100000000E-03 0. -1.
        -11    1    4    4    0    0  0.78095940294E+01 -0.33174959140E+01 -0.63940366924E+01  0.10624464388E+02  0.51100000000E-03 0.  1.
        -12    1    4    4    0    0  0.18849976104E+02  0.87798546504E+01 -0.28606024296E+02  0.35365407856E+02  0.00000000000E+00 0.  1.
</event>
<event>
 8    1  0.5542925E-011  0.9118800E+02  0.7816164E-02  0.1184000E+00
        -11   -1    0    0    0    0  0.00000000000E+00  0.00000000000E+00  0.45593999997E+02  0.45594000000E+02  0.51100000000E-03 0. -1.
         11   -1    0    0    0    0 -0.00000000000E+00 -0.00000000000E+00 -0.45593999997E+02  0.45594000000E+02  0.51100000000E-03 0.  1.
         23    2    1    2    0    0 -0.35527136788E-14  0.00000000000E+00 -0.71054273576E-14  0.91188000000E+02  0.91188000000E+02 0.  0.
    9900012    2    3    3    0    0  0.21039179562E+02 -0.84852953802E+01  0.36999668778E+02  0.47787276458E+02  0.20000024681E+02 0.  0.
        -12    1    3    3    0    0 -0.21039179562E+02  0.84852953802E+01 -0.36999668778E+02  0.43400723542E+02  0.00000000000E+00 0.  1.
         11    1    4    4    0    0  0.85956424753E+01 -0.25566058422E+01  0.13796145963E+02  0.16454632985E+02  0.51100000000E-03 0. -1.
        -11    1    4    4    0    0  0.12830693812E+02  0.80414702475E+00  0.92593463549E+01  0.15843258860E+02  0.51100000000E-03 0.  1.
         12    1    4    4    0    0 -0.38715672527E+00 -0.67328365627E+01  0.13944176460E+02  0.15489384612E+02  0.00000000000E+00 0. -1.
</event>
<event>
 8    1  0.5542925E-011  0.9118800E+02  0.7816164E-02  0.1184000E+00
        -11   -1    0    0    0    0  0.00000000000E+00  0.00000000000E+00  0.45593999997E+02  0.45594000000E+02  0.51100000000E-03 0. -1.
         11   -1    0    0    0    0 -0.00000000000E+00 -0.00000000000E+00 -0.45593999997E+02  0.45594000000E+02  0.51100000000E-03 0.  1.
         23    2    1    2    0    0 -0.88817841970E-15  0.00000000000E+00 -0.14210854715E-13  0.91188000000E+02  0.91188000000E+02 0.  0.
    9900012    2    3    3    0    0  0.32531918997E+01  0.23399246381E+02  0.36407627868E+02  0.47787270102E+02  0.19999995702E+02 0.  0.
        -12    1    3    3    0    0 -0.32531918997E+01 -0.23399246381E+02 -0.36407627868E+02  0.43400729898E+02  0.00000000000E+00 0.  1.
         11    1    4    4    0    0 -0.68841724741E+00  0.14663550903E+02  0.20582730776E+02  0.25281266777E+02  0.51100000000E-03 0. -1.
        -11    1    4    4    0    0 -0.14781094836E+01  0.76533960032E+01  0.15018393856E+02  0.16920739709E+02  0.51100000000E-03 0.  1.
        -12    1    4    4    0    0  0.54197186308E+01  0.10822994751E+01  0.80650323596E+00  0.55852636160E+01  0.00000000000E+00 0.  1.
</event>
<event>
 8    1  0.5542925E-011  0.9118800E+02  0.7816164E-02  0.1184000E+00
        -11   -1    0    0    0    0  0.00000000000E+00  0.00000000000E+00  0.45593999997E+02  0.45594000000E+02  0.51100000000E-03 0. -1.
         11   -1    0    0    0    0 -0.00000000000E+00 -0.00000000000E+00 -0.45593999997E+02  0.45594000000E+02  0.51100000000E-03 0.  1.
         23    2    1    2    0    0 -0.35527136788E-14 -0.35527136788E-14 -0.35527136788E-14  0.91188000000E+02  0.91188000000E+02 0.  0.
    9900012    2    3    3    0    0 -0.31696153137E+02 -0.22075799837E+02 -0.19789820232E+02  0.47787262138E+02  0.19999959393E+02 0.  0.
         12    1    3    3    0    0  0.31696153137E+02  0.22075799837E+02  0.19789820232E+02  0.43400737862E+02  0.00000000000E+00 0. -1.
         11    1    4    4    0    0 -0.17394921688E+02 -0.16892638851E+02 -0.22131571718E+01  0.24348359551E+02  0.51100000000E-03 0. -1.
        -11    1    4    4    0    0 -0.29859423352E+01 -0.23618837296E+01 -0.36462243151E+01  0.52715555957E+01  0.51100000000E-03 0.  1.
        -12    1    4    4    0    0 -0.11315289114E+02 -0.28212772559E+01 -0.13930438745E+02  0.18167346992E+02  0.00000000000E+00 0.  1.
</event>
<event>
 8    1  0.5542925E-011  0.9118800E+02  0.7816164E-02  0.1184000E+00
        -11   -1    0    0    0    0  0.00000000000E+00  0.00000000000E+00  0.45593999997E+02  0.45594000000E+02  0.51100000000E-03 0. -1.
         11   -1    0    0    0    0 -0.00000000000E+00 -0.00000000000E+00 -0.45593999997E+02  0.45594000000E+02  0.51100000000E-03 0.  1.
         23    2    1    2    0    0  0.00000000000E+00  0.00000000000E+00  0.00000000000E+00  0.91188000000E+02  0.91188000000E+02 0.  0.
    9900012    2    3    3    0    0 -0.37877254670E+02  0.66647975553E+01  0.20112613964E+02  0.47787272031E+02  0.20000004497E+02 0.  0.
        -12    1    3    3    0    0  0.37877254670E+02 -0.66647975553E+01 -0.20112613964E+02  0.43400727969E+02  0.00000000000E+00 0.  1.
         11    1    4    4    0    0 -0.76776613622E+01 -0.19402975128E+01  0.37857413858E+01  0.87774185574E+01  0.51100000000E-03 0. -1.
        -11    1    4    4    0    0 -0.23598407779E+02  0.56172765423E+00  0.60127961191E+01  0.24358860915E+02  0.51100000000E-03 0.  1.
         12    1    4    4    0    0 -0.66011855294E+01  0.80433674139E+01  0.10314076459E+02  0.14650992558E+02  0.00000000000E+00 0. -1.
</event>
<event>
 8    1  0.5542925E-011  0.9118800E+02  0.7816164E-02  0.1184000E+00
        -11   -1    0    0    0    0  0.00000000000E+00  0.00000000000E+00  0.45593999997E+02  0.45594000000E+02  0.51100000000E-03 0. -1.
         11   -1    0    0    0    0 -0.00000000000E+00 -0.00000000000E+00 -0.45593999997E+02  0.45594000000E+02  0.51100000000E-03 0.  1.
         23    2    1    2    0    0 -0.44408920985E-15  0.00000000000E+00  0.71054273576E-14  0.91188000000E+02  0.91188000000E+02 0.  0.
    9900012    2    3    3    0    0  0.31176589554E+01 -0.94321384799E+01 -0.42248528092E+02  0.47787272361E+02  0.20000006002E+02 0.  0.
         12    1    3    3    0    0 -0.31176589554E+01  0.94321384799E+01  0.42248528092E+02  0.43400727639E+02  0.00000000000E+00 0. -1.
         11    1    4    4    0    0 -0.54386064789E+01 -0.29099940157E+01 -0.14581052309E+02  0.15832043213E+02  0.51100000000E-03 0. -1.
        -11    1    4    4    0    0  0.95019467453E-01 -0.73770725385E+01 -0.14705972602E+02  0.16452837396E+02  0.51100000000E-03 0.  1.
        -12    1    4    4    0    0  0.84612459669E+01  0.85492807434E+00 -0.12961503181E+02  0.15502391752E+02  0.00000000000E+00 0.  1.
</event>
<event>
 8    1  0.5718614E-011  0.9118800E+02  0.7816164E-02  0.1184000E+00
        -11   -1    0    0    0    0  0.00000000000E+00  0.00000000000E+00  0.45593999997E+02  0.45594000000E+02  0.51100000000E-03 0. -1.
         11   -1    0    0    0    0 -0.00000000000E+00 -0.00000000000E+00 -0.45593999997E+02  0.45594000000E+02  0.51100000000E-03 0.  1.
         23    2    1    2    0    0  0.00000000000E+00  0.00000000000E+00  0.00000000000E+00  0.91188000000E+02  0.91188000000E+02 0.  0.
    9900012    2    3    3    0    0  0.26239774032E+02  0.21510777122E+02  0.27062611318E+02  0.47787260317E+02  0.19999951091E+02 0.  0.
        -12    1    3    3    0    0 -0.26239774032E+02 -0.21510777122E+02 -0.27062611318E+02  0.43400739683E+02  0.00000000000E+00 0.  1.
         11    1    4    4    0    0 -0.84267183445E+00  0.24959483541E+01  0.42176296981E+00  0.26679089698E+01  0.51100000000E-03 0. -1.
        -11    1    4    4    0    0  0.58810008747E+01  0.12454839235E+02  0.68463499654E+01  0.15381212558E+02  0.51100000000E-03 0.  1.
         12    1    4    4    0    0  0.21201444992E+02  0.65599895331E+01  0.19794498382E+02  0.29738138789E+02  0.00000000000E+00 0. -1.
</event>
<event>
 8    1  0.5542925E-011  0.9118800E+02  0.7816164E-02  0.1184000E+00
        -11   -1    0    0    0    0  0.00000000000E+00  0.00000000000E+00  0.45593999997E+02  0.45594000000E+02  0.51100000000E-03 0. -1.
         11   -1    0    0    0    0 -0.00000000000E+00 -0.00000000000E+00 -0.45593999997E+02  0.45594000000E+02  0.51100000000E-03 0.  1.
         23    2    1    2    0    0  0.00000000000E+00  0.71054273576E-14  0.00000000000E+00  0.91188000000E+02  0.91188000000E+02 0.  0.
    9900012    2    3    3    0    0  0.23988794151E+02 -0.17633169294E+02  0.31578984342E+02  0.47787272400E+02  0.20000006180E+02 0.  0.
        -12    1    3    3    0    0 -0.23988794151E+02  0.17633169294E+02 -0.31578984342E+02  0.43400727600E+02  0.00000000000E+00 0.  1.
         11    1    4    4    0    0  0.12785192948E+02 -0.19028864554E+02  0.24273364451E+02  0.33387947930E+02  0.51100000000E-03 0. -1.
        -11    1    4    4    0    0  0.38237445283E+00 -0.29084187678E+00 -0.68898066207E+00  0.83993680316E+00  0.51100000000E-03 0.  1.
        -12    1    4    4    0    0  0.10821226750E+02  0.16865371371E+01  0.79946005530E+01  0.13559387667E+02  0.00000000000E+00 0.  1.
</event>
<event>
 8    1  0.5542925E-011  0.9118800E+02  0.7816164E-02  0.1184000E+00
        -11   -1    0    0    0    0  0.00000000000E+00  0.00000000000E+00  0.45593999997E+02  0.45594000000E+02  0.51100000000E-03 0. -1.
         11   -1    0    0    0    0 -0.00000000000E+00 -0.00000000000E+00 -0.45593999997E+02  0.45594000000E+02  0.51100000000E-03 0.  1.
         23    2    1    2    0    0  0.00000000000E+00  0.00000000000E+00  0.00000000000E+00  0.91188000000E+02  0.91188000000E+02 0.  0.
    9900012    2    3    3    0    0 -0.29054742060E+02  0.20380236655E+02 -0.24981817458E+02  0.47787270907E+02  0.19999999372E+02 0.  0.
         12    1    3    3    0    0  0.29054742060E+02 -0.20380236655E+02  0.24981817458E+02  0.43400729093E+02  0.00000000000E+00 0. -1.
         11    1    4    4    0    0 -0.93558759776E+00  0.70190616732E+01 -0.78942528909E+01  0.10604799852E+02  0.51100000000E-03 0. -1.
        -11    1    4    4    0    0 -0.82185426331E+01  0.69315301826E+01 -0.11044555997E+02  0.15413395833E+02  0.51100000000E-03 0.  1.
        -12    1    4    4    0    0 -0.19900611829E+02  0.64296447994E+01 -0.60430085703E+01  0.21769075222E+02  0.00000000000E+00 0.  1.
</event>
<event>
 8    1  0.5542925E-011  0.9118800E+02  0.7816164E-02  0.1184000E+00
        -11   -1    0    0    0    0  0.00000000000E+00  0.00000000000E+00  0.45593999997E+02  0.45594000000E+02  0.51100000000E-03 0. -1.
         11   -1    0    0    0    0 -0.00000000000E+00 -0.00000000000E+00 -0.45593999997E+02  0.45594000000E+02  0.51100000000E-03 0.  1.
         23    2    1    2    0    0  0.00000000000E+00  0.00000000000E+00  0.00000000000E+00  0.91188000000E+02  0.91188000000E+02 0.  0.
    9900012    2    3    3    0    0 -0.28310124264E+02 -0.29978344356E+02 -0.13544704993E+02  0.47787270749E+02  0.19999998653E+02 0.  0.
         12    1    3    3    0    0  0.28310124264E+02  0.29978344356E+02  0.13544704993E+02  0.43400729251E+02  0.00000000000E+00 0. -1.
         11    1    4    4    0    0 -0.31618419774E-01  0.11865154708E-01 -0.22981149940E+01  0.22983631769E+01  0.51100000000E-03 0. -1.
        -11    1    4    4    0    0 -0.19501082485E+02 -0.14292707028E+02 -0.12942790109E+02  0.27424250370E+02  0.51100000000E-03 0.  1.
         12    1    4    4    0    0 -0.87774233598E+01 -0.15697502483E+02  0.16962001103E+01  0.18064657202E+02  0.00000000000E+00 0. -1.
</event>
<event>
 8    1  0.5542925E-011  0.9118800E+02  0.7816164E-02  0.1184000E+00
        -11   -1    0    0    0    0  0.00000000000E+00  0.00000000000E+00  0.45593999997E+02  0.45594000000E+02  0.51100000000E-03 0. -1.
         11   -1    0    0    0    0 -0.00000000000E+00 -0.00000000000E+00 -0.45593999997E+02  0.45594000000E+02  0.51100000000E-03 0.  1.
         23    2    1    2    0    0  0.88817841970E-15  0.00000000000E+00  0.17763568394E-14  0.91188000000E+02  0.91188000000E+02 0.  0.
    9900012    2    3    3    0    0 -0.37741229392E+01 -0.40387048244E+02  0.15435857676E+02  0.47787269914E+02  0.19999994845E+02 0.  0.
        -12    1    3    3    0    0  0.37741229392E+01  0.40387048244E+02 -0.15435857676E+02  0.43400730086E+02  0.00000000000E+00 0.  1.
         11    1    4    4    0    0  0.43358232343E+01 -0.39167296181E+01  0.40691190510E+01  0.71202432636E+01  0.51100000000E-03 0.  1.
        -11    1    4    4    0    0 -0.23362524975E+00 -0.17611531441E+02  0.98332701518E+01  0.20172105061E+02  0.51100000000E-03 0. -1.
         12    1    4    4    0    0 -0.78763209237E+01 -0.18858787185E+02  0.15334684730E+01  0.20494921589E+02  0.00000000000E+00 0. -1.
</event>
<event>
 8    1  0.5542925E-011  0.9118800E+02  0.7816164E-02  0.1184000E+00
        -11   -1    0    0    0    0  0.00000000000E+00  0.00000000000E+00  0.45593999997E+02  0.45594000000E+02  0.51100000000E-03 0. -1.
         11   -1    0    0    0    0 -0.00000000000E+00 -0.00000000000E+00 -0.45593999997E+02  0.45594000000E+02  0.51100000000E-03 0.  1.
         23    2    1    2    0    0  0.00000000000E+00  0.00000000000E+00  0.00000000000E+00  0.91188000000E+02  0.91188000000E+02 0.  0.
    9900012    2    3    3    0    0 -0.16127408615E+02 -0.66561874252E+01 -0.39739466481E+02  0.47787270330E+02  0.19999996742E+02 0.  0.
         12    1    3    3    0    0  0.16127408615E+02  0.66561874252E+01  0.39739466481E+02  0.43400729670E+02  0.00000000000E+00 0. -1.
         11    1    4    4    0    0 -0.13539571386E+01 -0.73952800873E+01 -0.10339253585E+02  0.12783721386E+02  0.51100000000E-03 0.  1.
        -11    1    4    4    0    0 -0.22192616139E+01  0.45902635150E+01 -0.13194623585E+02  0.14145449199E+02  0.51100000000E-03 0. -1.
        -12    1    4    4    0    0 -0.12554189863E+02 -0.38511708530E+01 -0.16205589311E+02  0.20858099745E+02  0.00000000000E+00 0.  1.
</event>
<event>
 8    1  0.5542925E-011  0.9118800E+02  0.7816164E-02  0.1184000E+00
        -11   -1    0    0    0    0  0.00000000000E+00  0.00000000000E+00  0.45593999997E+02  0.45594000000E+02  0.51100000000E-03 0. -1.
         11   -1    0    0    0    0 -0.00000000000E+00 -0.00000000000E+00 -0.45593999997E+02  0.45594000000E+02  0.51100000000E-03 0.  1.
         23    2    1    2    0    0  0.00000000000E+00  0.35527136788E-14  0.00000000000E+00  0.91188000000E+02  0.91188000000E+02 0.  0.
    9900012    2    3    3    0    0  0.20459428197E+02 -0.18773026376E+02  0.33355788048E+02  0.47787270539E+02  0.19999997693E+02 0.  0.
        -12    1    3    3    0    0 -0.20459428197E+02  0.18773026376E+02 -0.33355788048E+02  0.43400729461E+02  0.00000000000E+00 0.  1.
         11    1    4    4    0    0  0.14563457043E+01 -0.12263196021E+01  0.26337036699E+01  0.32497996644E+01  0.51100000000E-03 0. -1.
        -11    1    4    4    0    0  0.63757731712E+01 -0.63006066680E+01  0.25204135267E+02  0.26750636679E+02  0.51100000000E-03 0.  1.
        -12    1    4    4    0    0  0.12627309321E+02 -0.11246100106E+02  0.55179491118E+01  0.17786834195E+02  0.00000000000E+00 0.  1.
</event>
<event>
 8    1  0.5575160E-011  0.9118800E+02  0.7816164E-02  0.1184000E+00
        -11   -1    0    0    0    0  0.00000000000E+00  0.00000000000E+00  0.45593999997E+02  0.45594000000E+02  0.51100000000E-03 0. -1.
         11   -1    0    0    0    0 -0.00000000000E+00 -0.00000000000E+00 -0.45593999997E+02  0.45594000000E+02  0.51100000000E-03 0.  1.
         23    2    1    2    0    0  0.00000000000E+00  0.00000000000E+00  0.00000000000E+00  0.91188000000E+02  0.91188000000E+02 0.  0.
    9900012    2    3    3    0    0 -0.10809404316E+02  0.34484085015E+02  0.24033886300E+02  0.47787273834E+02  0.20000012721E+02 0.  0.
        -12    1    3    3    0    0  0.10809404316E+02 -0.34484085015E+02 -0.24033886300E+02  0.43400726166E+02  0.00000000000E+00 0.  1.
         11    1    4    4    0    0  0.62185463620E+00  0.14281207373E+02  0.47527005046E+01  0.15064121268E+02  0.51100000000E-03 0. -1.
        -11    1    4    4    0    0  0.15383890527E+01 -0.81437778851E+00  0.11751267649E+01  0.21001845715E+01  0.51100000000E-03 0.  1.
         12    1    4    4    0    0 -0.12969648005E+02  0.21017255431E+02  0.18106059031E+02  0.30622967995E+02  0.00000000000E+00 0. -1.
</event>
<event>
 8    1  0.5542925E-011  0.9118800E+02  0.7816164E-02  0.1184000E+00
        -11   -1    0    0    0    0  0.00000000000E+00  0.00000000000E+00  0.45593999997E+02  0.45594000000E+02  0.51100000000E-03 0. -1.
         11   -1    0    0    0    0 -0.00000000000E+00 -0.00000000000E+00 -0.45593999997E+02  0.45594000000E+02  0.51100000000E-03 0.  1.
         23    2    1    2    0    0  0.00000000000E+00  0.00000000000E+00  0.00000000000E+00  0.91188000000E+02  0.91188000000E+02 0.  0.
    9900012    2    3    3    0    0  0.84723779961E+00 -0.60899056257E+01 -0.42963026980E+02  0.47787234457E+02  0.19999833183E+02 0.  0.
         12    1    3    3    0    0 -0.84723779961E+00  0.60899056257E+01  0.42963026980E+02  0.43400765543E+02  0.00000000000E+00 0. -1.
         11    1    4    4    0    0  0.87847307255E+00  0.36230229394E+01 -0.10974989829E+02  0.11590876246E+02  0.51100000000E-03 0. -1.
        -11    1    4    4    0    0  0.36804475328E+01 -0.11176924621E-01 -0.19992088429E+02  0.20328045135E+02  0.51100000000E-03 0.  1.
        -12    1    4    4    0    0 -0.37116828057E+01 -0.97017516405E+01 -0.11995948722E+02  0.15868313076E+02  0.00000000000E+00 0.  1.
</event>
<event>
 8    1  0.5542925E-011  0.9118800E+02  0.7816164E-02  0.1184000E+00
        -11   -1    0    0    0    0  0.00000000000E+00  0.00000000000E+00  0.45593999997E+02  0.45594000000E+02  0.51100000000E-03 0. -1.
         11   -1    0    0    0    0 -0.00000000000E+00 -0.00000000000E+00 -0.45593999997E+02  0.45594000000E+02  0.51100000000E-03 0.  1.
         23    2    1    2    0    0  0.00000000000E+00  0.00000000000E+00 -0.35527136788E-14  0.91188000000E+02  0.91188000000E+02 0.  0.
    9900012    2    3    3    0    0 -0.14880950276E+02 -0.27974357267E+02  0.29658327422E+02  0.47787265777E+02  0.19999975985E+02 0.  0.
        -12    1    3    3    0    0  0.14880950276E+02  0.27974357267E+02 -0.29658327422E+02  0.43400734223E+02  0.00000000000E+00 0.  1.
         11    1    4    4    0    0  0.11841733498E+01 -0.46966559612E+01  0.90071021008E+01  0.10226863266E+02  0.51100000000E-03 0. -1.
        -11    1    4    4    0    0 -0.87968902512E+01 -0.37172916487E+01  0.11006741441E+02  0.14572298813E+02  0.51100000000E-03 0.  1.
        -12    1    4    4    0    0 -0.72682333747E+01 -0.19560409657E+02  0.96444838801E+01  0.22988103698E+02  0.00000000000E+00 0.  1.
</event>
<event>
 8    1  0.5542925E-011  0.9118800E+02  0.7816164E-02  0.1184000E+00
        -11   -1    0    0    0    0  0.00000000000E+00  0.00000000000E+00  0.45593999997E+02  0.45594000000E+02  0.51100000000E-03 0. -1.
         11   -1    0    0    0    0 -0.00000000000E+00 -0.00000000000E+00 -0.45593999997E+02  0.45594000000E+02  0.51100000000E-03 0.  1.
         23    2    1    2    0    0  0.00000000000E+00  0.35527136788E-14  0.17763568394E-14  0.91188000000E+02  0.91188000000E+02 0.  0.
    9900012    2    3    3    0    0 -0.35763828767E+02 -0.20335140444E+02 -0.13822200214E+02  0.47787278766E+02  0.20000035203E+02 0.  0.
         12    1    3    3    0    0  0.35763828767E+02  0.20335140444E+02  0.13822200214E+02  0.43400721234E+02  0.00000000000E+00 0. -1.
         11    1    4    4    0    0 -0.15494127572E+02 -0.11482145806E+01 -0.61632807806E+01  0.16714437358E+02  0.51100000000E-03 0. -1.
        -11    1    4    4    0    0 -0.50156150289E+01 -0.66925277935E+01 -0.76803136014E+01  0.11354890561E+02  0.51100000000E-03 0.  1.
        -12    1    4    4    0    0 -0.15254086166E+02 -0.12494398069E+02  0.21394167934E-01  0.19717950847E+02  0.00000000000E+00 0.  1.
</event>
<event>
 8    1  0.5542925E-011  0.9118800E+02  0.7816164E-02  0.1184000E+00
        -11   -1    0    0    0    0  0.00000000000E+00  0.00000000000E+00  0.45593999997E+02  0.45594000000E+02  0.51100000000E-03 0. -1.
         11   -1    0    0    0    0 -0.00000000000E+00 -0.00000000000E+00 -0.45593999997E+02  0.45594000000E+02  0.51100000000E-03 0.  1.
         23    2    1    2    0    0  0.00000000000E+00 -0.88817841970E-15  0.35527136788E-14  0.91188000000E+02  0.91188000000E+02 0.  0.
    9900012    2    3    3    0    0  0.37001645358E+02  0.10245915397E+01  0.22659480529E+02  0.47787267231E+02  0.19999982615E+02 0.  0.
        -12    1    3    3    0    0 -0.37001645358E+02 -0.10245915397E+01 -0.22659480529E+02  0.43400732769E+02  0.00000000000E+00 0.  1.
         11    1    4    4    0    0  0.13905195451E+02 -0.38237587141E+01  0.96846903134E+01  0.17371494408E+02  0.51100000000E-03 0. -1.
        -11    1    4    4    0    0  0.13353323012E+02 -0.19479702772E+01  0.12703505612E+02  0.18533345050E+02  0.51100000000E-03 0.  1.
        -12    1    4    4    0    0  0.97431268955E+01  0.67963205311E+01  0.27128460374E+00  0.11882427774E+02  0.00000000000E+00 0.  1.
</event>
<event>
 8    1  0.5542925E-011  0.9118800E+02  0.7816164E-02  0.1184000E+00
        -11   -1    0    0    0    0  0.00000000000E+00  0.00000000000E+00  0.45593999997E+02  0.45594000000E+02  0.51100000000E-03 0. -1.
         11   -1    0    0    0    0 -0.00000000000E+00 -0.00000000000E+00 -0.45593999997E+02  0.45594000000E+02  0.51100000000E-03 0.  1.
         23    2    1    2    0    0  0.35527136788E-14  0.88817841970E-15  0.00000000000E+00  0.91188000000E+02  0.91188000000E+02 0.  0.
    9900012    2    3    3    0    0 -0.18397379814E+02  0.47185874559E+01 -0.39024279825E+02  0.47787273423E+02  0.20000010844E+02 0.  0.
         12    1    3    3    0    0  0.18397379814E+02 -0.47185874559E+01  0.39024279825E+02  0.43400726577E+02  0.00000000000E+00 0. -1.
         11    1    4    4    0    0 -0.75347150936E+01  0.57893597048E+01 -0.78920772109E+01  0.12352064617E+02  0.51100000000E-03 0. -1.
        -11    1    4    4    0    0 -0.10029513922E+02  0.44076171293E+01 -0.24170314295E+02  0.26537187712E+02  0.51100000000E-03 0.  1.
        -12    1    4    4    0    0 -0.83315079805E+00 -0.54783893782E+01 -0.69618883187E+01  0.88980210942E+01  0.00000000000E+00 0.  1.
</event>
<event>
 8    1  0.5542925E-011  0.9118800E+02  0.7816164E-02  0.1184000E+00
        -11   -1    0    0    0    0  0.00000000000E+00  0.00000000000E+00  0.45593999997E+02  0.45594000000E+02  0.51100000000E-03 0. -1.
         11   -1    0    0    0    0 -0.00000000000E+00 -0.00000000000E+00 -0.45593999997E+02  0.45594000000E+02  0.51100000000E-03 0.  1.
         23    2    1    2    0    0  0.00000000000E+00  0.00000000000E+00  0.00000000000E+00  0.91188000000E+02  0.91188000000E+02 0.  0.
    9900012    2    3    3    0    0  0.13720883994E+02 -0.18324927281E+02 -0.36872185729E+02  0.47787266160E+02  0.19999977728E+02 0.  0.
         12    1    3    3    0    0 -0.13720883994E+02  0.18324927281E+02  0.36872185729E+02  0.43400733840E+02  0.00000000000E+00 0. -1.
         11    1    4    4    0    0  0.56754396510E+01 -0.93744061115E+00 -0.11869227611E+01  0.58735164964E+01  0.51100000000E-03 0. -1.
        -11    1    4    4    0    0 -0.12217718250E+01  0.58634437245E+00 -0.48747033532E+01  0.50595710449E+01  0.51100000000E-03 0.  1.
        -12    1    4    4    0    0  0.92672161684E+01 -0.17973831042E+02 -0.30810559615E+02  0.36854178618E+02  0.00000000000E+00 0.  1.
</event>
<event>
 8    1  0.5542925E-011  0.9118800E+02  0.7816164E-02  0.1184000E+00
        -11   -1    0    0    0    0  0.00000000000E+00  0.00000000000E+00  0.45593999997E+02  0.45594000000E+02  0.51100000000E-03 0. -1.
         11   -1    0    0    0    0 -0.00000000000E+00 -0.00000000000E+00 -0.45593999997E+02  0.45594000000E+02  0.51100000000E-03 0.  1.
         23    2    1    2    0    0 -0.88817841970E-15  0.00000000000E+00  0.00000000000E+00  0.91188000000E+02  0.91188000000E+02 0.  0.
    9900012    2    3    3    0    0 -0.42031313982E+01  0.63843600214E+01 -0.42722320196E+02  0.47787274091E+02  0.20000013893E+02 0.  0.
         12    1    3    3    0    0  0.42031313982E+01 -0.63843600214E+01  0.42722320196E+02  0.43400725909E+02  0.00000000000E+00 0. -1.
         11    1    4    4    0    0 -0.37071871836E+01  0.65860357060E+01 -0.10509770685E+02  0.12945052462E+02  0.51100000000E-03 0. -1.
        -11    1    4    4    0    0 -0.54480819684E+01  0.38108464278E+01 -0.13025187908E+02  0.14623941600E+02  0.51100000000E-03 0.  1.
        -12    1    4    4    0    0  0.49521377538E+01 -0.40125221124E+01 -0.19187361603E+02  0.20218280029E+02  0.00000000000E+00 0.  1.
</event>
<event>
 8    1  0.5542925E-011  0.9118800E+02  0.7816164E-02  0.1184000E+00
        -11   -1    0    0    0    0  0.00000000000E+00  0.00000000000E+00  0.45593999997E+02  0.45594000000E+02  0.51100000000E-03 0. -1.
         11   -1    0    0    0    0 -0.00000000000E+00 -0.00000000000E+00 -0.45593999997E+02  0.45594000000E+02  0.51100000000E-03 0.  1.
         23    2    1    2    0    0 -0.88817841970E-15 -0.35527136788E-14  0.14210854715E-13  0.91188000000E+02  0.91188000000E+02 0.  0.
    9900012    2    3    3    0    0 -0.39382645590E+01 -0.16667351422E+02  0.39878722159E+02  0.47787274060E+02  0.20000013748E+02 0.  0.
        -12    1    3    3    0    0  0.39382645590E+01  0.16667351422E+02 -0.39878722159E+02  0.43400725940E+02  0.00000000000E+00 0.  1.
         11    1    4    4    0    0 -0.39508408552E+01 -0.14357248751E+02  0.38252085935E+02  0.41048286368E+02  0.51100000000E-03 0. -1.
        -11    1    4    4    0    0  0.17810660321E+01 -0.10520638402E+01  0.33706486262E+01  0.39547827952E+01  0.51100000000E-03 0.  1.
        -12    1    4    4    0    0 -0.17684897358E+01 -0.12580388305E+01 -0.17440124023E+01  0.27842048962E+01  0.00000000000E+00 0.  1.
</event>
<event>
 8    1  0.5542925E-011  0.9118800E+02  0.7816164E-02  0.1184000E+00
        -11   -1    0    0    0    0  0.00000000000E+00  0.00000000000E+00  0.45593999997E+02  0.45594000000E+02  0.51100000000E-03 0.  1.
         11   -1    0    0    0    0 -0.00000000000E+00 -0.00000000000E+00 -0.45593999997E+02  0.45594000000E+02  0.51100000000E-03 0. -1.
         23    2    1    2    0    0  0.00000000000E+00  0.00000000000E+00 -0.17763568394E-14  0.91188000000E+02  0.91188000000E+02 0.  0.
    9900012    2    3    3    0    0  0.26013321254E+02 -0.31197080899E+02 -0.15286310032E+02  0.47787285563E+02  0.20000066195E+02 0.  0.
         12    1    3    3    0    0 -0.26013321254E+02  0.31197080899E+02  0.15286310032E+02  0.43400714437E+02  0.00000000000E+00 0. -1.
         11    1    4    4    0    0  0.33180699834E+01 -0.20133931688E+01 -0.70688034649E+01  0.80642000938E+01  0.51100000000E-03 0. -1.
        -11    1    4    4    0    0  0.35896187761E+01 -0.74559799231E+01 -0.68759806027E+01  0.10759001305E+02  0.51100000000E-03 0.  1.
        -12    1    4    4    0    0  0.19105632495E+02 -0.21727707807E+02 -0.13415259646E+01  0.28964084164E+02  0.00000000000E+00 0.  1.
</event>
<event>
 8    1  0.5542925E-011  0.9118800E+02  0.7816164E-02  0.1184000E+00
        -11   -1    0    0    0    0  0.00000000000E+00  0.00000000000E+00  0.45593999997E+02  0.45594000000E+02  0.51100000000E-03 0. -1.
         11   -1    0    0    0    0 -0.00000000000E+00 -0.00000000000E+00 -0.45593999997E+02  0.45594000000E+02  0.51100000000E-03 0.  1.
         23    2    1    2    0    0  0.00000000000E+00  0.00000000000E+00  0.00000000000E+00  0.91188000000E+02  0.91188000000E+02 0.  0.
    9900012    2    3    3    0    0  0.11166532588E+02 -0.19014731594E+02 -0.37381435211E+02  0.47787272286E+02  0.20000005661E+02 0.  0.
         12    1    3    3    0    0 -0.11166532588E+02  0.19014731594E+02  0.37381435211E+02  0.43400727714E+02  0.00000000000E+00 0. -1.
         11    1    4    4    0    0  0.50341917595E+01  0.18698724803E+01 -0.67959663084E+01  0.86616781336E+01  0.51100000000E-03 0. -1.
        -11    1    4    4    0    0  0.30813310519E+01 -0.11066414552E+01 -0.10296148692E+01  0.34321077200E+01  0.51100000000E-03 0.  1.
        -12    1    4    4    0    0  0.30510097767E+01 -0.19777962620E+02 -0.29555854034E+02  0.35693486432E+02  0.00000000000E+00 0.  1.
</event>
<event>
 8    1  0.5542925E-011  0.9118800E+02  0.7816164E-02  0.1184000E+00
        -11   -1    0    0    0    0  0.00000000000E+00  0.00000000000E+00  0.45593999997E+02  0.45594000000E+02  0.51100000000E-03 0. -1.
         11   -1    0    0    0    0 -0.00000000000E+00 -0.00000000000E+00 -0.45593999997E+02  0.45594000000E+02  0.51100000000E-03 0.  1.
         23    2    1    2    0    0  0.00000000000E+00  0.35527136788E-14  0.00000000000E+00  0.91188000000E+02  0.91188000000E+02 0.  0.
    9900012    2    3    3    0    0  0.10352236708E+02  0.31308790696E+02  0.28217263413E+02  0.47787272654E+02  0.20000007336E+02 0.  0.
        -12    1    3    3    0    0 -0.10352236708E+02 -0.31308790696E+02 -0.28217263413E+02  0.43400727346E+02  0.00000000000E+00 0.  1.
         11    1    4    4    0    0  0.32806025735E+01  0.12770034661E+01  0.42761459901E+01  0.55388189976E+01  0.51100000000E-03 0. -1.
        -11    1    4    4    0    0  0.34483428202E+01  0.13363629313E+02  0.20710489437E+02  0.24887788765E+02  0.51100000000E-03 0.  1.
         12    1    4    4    0    0  0.36232913145E+01  0.16668157917E+02  0.32306279860E+01  0.17360664891E+02  0.00000000000E+00 0. -1.
</event>
<event>
 8    1  0.5542925E-011  0.9118800E+02  0.7816164E-02  0.1184000E+00
        -11   -1    0    0    0    0  0.00000000000E+00  0.00000000000E+00  0.45593999997E+02  0.45594000000E+02  0.51100000000E-03 0. -1.
         11   -1    0    0    0    0 -0.00000000000E+00 -0.00000000000E+00 -0.45593999997E+02  0.45594000000E+02  0.51100000000E-03 0.  1.
         23    2    1    2    0    0  0.14432899320E-14  0.00000000000E+00  0.00000000000E+00  0.91188000000E+02  0.91188000000E+02 0.  0.
    9900012    2    3    3    0    0 -0.14258449196E+00  0.27163769803E+02  0.33848671047E+02  0.47787271298E+02  0.20000001154E+02 0.  0.
        -12    1    3    3    0    0  0.14258449196E+00 -0.27163769803E+02 -0.33848671047E+02  0.43400728702E+02  0.00000000000E+00 0.  1.
         11    1    4    4    0    0 -0.98500606716E+00 -0.86297669458E+00  0.26909302582E+00  0.13369282125E+01  0.51100000000E-03 0.  1.
        -11    1    4    4    0    0 -0.72371908352E+01  0.15287163844E+02  0.19525539581E+02  0.25832557089E+02  0.51100000000E-03 0. -1.
         12    1    4    4    0    0  0.80796124104E+01  0.12739582654E+02  0.14054038440E+02  0.20617785996E+02  0.00000000000E+00 0. -1.
</event>
<event>
 8    1  0.5542925E-011  0.9118800E+02  0.7816164E-02  0.1184000E+00
        -11   -1    0    0    0    0  0.00000000000E+00  0.00000000000E+00  0.45593999997E+02  0.45594000000E+02  0.51100000000E-03 0. -1.
         11   -1    0    0    0    0 -0.00000000000E+00 -0.00000000000E+00 -0.45593999997E+02  0.45594000000E+02  0.51100000000E-03 0.  1.
         23    2    1    2    0    0 -0.16653345369E-15  0.17763568394E-14 -0.71054273576E-14  0.91188000000E+02  0.91188000000E+02 0.  0.
    9900012    2    3    3    0    0  0.44923175980E+00  0.11692646166E+02 -0.41793577227E+02  0.47787275571E+02  0.20000020640E+02 0.  0.
         12    1    3    3    0    0 -0.44923175980E+00 -0.11692646166E+02  0.41793577227E+02  0.43400724429E+02  0.00000000000E+00 0. -1.
         11    1    4    4    0    0 -0.49112436691E+01  0.12444593988E+01 -0.17494873862E+01  0.53600093235E+01  0.51100000000E-03 0. -1.
        -11    1    4    4    0    0  0.27867068767E+01  0.36721869339E+00 -0.38462974881E+01  0.47638838580E+01  0.51100000000E-03 0.  1.
        -12    1    4    4    0    0  0.25737685522E+01  0.10080968074E+02 -0.36197792352E+02  0.37663382390E+02  0.00000000000E+00 0.  1.
</event>
<event>
 8    1  0.5542925E-011  0.9118800E+02  0.7816164E-02  0.1184000E+00
        -11   -1    0    0    0    0  0.00000000000E+00  0.00000000000E+00  0.45593999997E+02  0.45594000000E+02  0.51100000000E-03 0. -1.
         11   -1    0    0    0    0 -0.00000000000E+00 -0.00000000000E+00 -0.45593999997E+02  0.45594000000E+02  0.51100000000E-03 0.  1.
         23    2    1    2    0    0  0.88817841970E-15  0.00000000000E+00 -0.35527136788E-14  0.91188000000E+02  0.91188000000E+02 0.  0.
    9900012    2    3    3    0    0  0.75300634737E+01  0.37438891711E+02 -0.20621613935E+02  0.47787269249E+02  0.19999991812E+02 0.  0.
         12    1    3    3    0    0 -0.75300634737E+01 -0.37438891711E+02  0.20621613935E+02  0.43400730751E+02  0.00000000000E+00 0. -1.
         11    1    4    4    0    0 -0.79077065251E+00  0.52544630992E+00  0.33681509657E+00  0.10074009727E+01  0.51100000000E-03 0. -1.
        -11    1    4    4    0    0  0.58174172874E+01  0.23307752988E+02 -0.31484592866E+01  0.24228216801E+02  0.51100000000E-03 0.  1.
         12    1    4    4    0    0  0.25034168389E+01  0.13605692413E+02 -0.17809969745E+02  0.22551651475E+02  0.00000000000E+00 0. -1.
</event>
<event>
 8    1  0.5542925E-011  0.9118800E+02  0.7816164E-02  0.1184000E+00
        -11   -1    0    0    0    0  0.00000000000E+00  0.00000000000E+00  0.45593999997E+02  0.45594000000E+02  0.51100000000E-03 0.  1.
         11   -1    0    0    0    0 -0.00000000000E+00 -0.00000000000E+00 -0.45593999997E+02  0.45594000000E+02  0.51100000000E-03 0. -1.
         23    2    1    2    0    0  0.00000000000E+00  0.00000000000E+00  0.35527136788E-14  0.91188000000E+02  0.91188000000E+02 0.  0.
    9900012    2    3    3    0    0 -0.28325699049E+02  0.28595983280E+02  0.16234150662E+02  0.47787272655E+02  0.20000007344E+02 0.  0.
         12    1    3    3    0    0  0.28325699049E+02 -0.28595983280E+02 -0.16234150662E+02  0.43400727345E+02  0.00000000000E+00 0. -1.
         11    1    4    4    0    0 -0.46622319479E+01  0.93097798684E+01  0.84720505375E+01  0.13423265195E+02  0.51100000000E-03 0. -1.
        -11    1    4    4    0    0 -0.32789382934E+01  0.99925744734E+01 -0.38930938001E+00  0.10523998432E+02  0.51100000000E-03 0.  1.
         12    1    4    4    0    0 -0.20384528808E+02  0.92936289381E+01  0.81514095042E+01  0.23840009028E+02  0.00000000000E+00 0. -1.
</event>
<event>
 8    1  0.5542925E-011  0.9118800E+02  0.7816164E-02  0.1184000E+00
        -11   -1    0    0    0    0  0.00000000000E+00  0.00000000000E+00  0.45593999997E+02  0.45594000000E+02  0.51100000000E-03 0.  1.
         11   -1    0    0    0    0 -0.00000000000E+00 -0.00000000000E+00 -0.45593999997E+02  0.45594000000E+02  0.51100000000E-03 0. -1.
         23    2    1    2    0    0 -0.71054273576E-14  0.00000000000E+00  0.71054273576E-14  0.91188000000E+02  0.91188000000E+02 0.  0.
    9900012    2    3    3    0    0 -0.29816534643E+02 -0.76196845997E+01  0.30602934354E+02  0.47787252050E+02  0.19999913397E+02 0.  0.
        -12    1    3    3    0    0  0.29816534643E+02  0.76196845997E+01 -0.30602934354E+02  0.43400747950E+02  0.00000000000E+00 0.  1.
         11    1    4    4    0    0 -0.28096092680E+02 -0.11899035847E+02  0.20923353277E+02  0.36996813249E+02  0.51100000000E-03 0. -1.
        -11    1    4    4    0    0 -0.17083099103E+00  0.14287627923E+01  0.39789384064E+01  0.42311342979E+01  0.51100000000E-03 0.  1.
         12    1    4    4    0    0 -0.15496109726E+01  0.28505884548E+01  0.57006426712E+01  0.65593045035E+01  0.00000000000E+00 0. -1.
</event>
<event>
 8    1  0.5542925E-011  0.9118800E+02  0.7816164E-02  0.1184000E+00
        -11   -1    0    0    0    0  0.00000000000E+00  0.00000000000E+00  0.45593999997E+02  0.45594000000E+02  0.51100000000E-03 0. -1.
         11   -1    0    0    0    0 -0.00000000000E+00 -0.00000000000E+00 -0.45593999997E+02  0.45594000000E+02  0.51100000000E-03 0.  1.
         23    2    1    2    0    0  0.00000000000E+00  0.00000000000E+00 -0.35527136788E-14  0.91188000000E+02  0.91188000000E+02 0.  0.
    9900012    2    3    3    0    0 -0.35578635301E+02 -0.18299083507E+02  0.16820400290E+02  0.47787290178E+02  0.20000087238E+02 0.  0.
        -12    1    3    3    0    0  0.35578635301E+02  0.18299083507E+02 -0.16820400290E+02  0.43400709822E+02  0.00000000000E+00 0.  1.
         11    1    4    4    0    0 -0.29083361971E+02 -0.65105131784E+01  0.64471472196E+01  0.30492530772E+02  0.51100000000E-03 0. -1.
        -11    1    4    4    0    0 -0.64495293549E-01 -0.13822862699E+00 -0.23250662001E+00  0.27807622278E+00  0.51100000000E-03 0.  1.
         12    1    4    4    0    0 -0.64307780371E+01 -0.11650341702E+02  0.10605759691E+02  0.17016683183E+02  0.00000000000E+00 0. -1.
</event>
<event>
 8    1  0.5542925E-011  0.9118800E+02  0.7816164E-02  0.1184000E+00
        -11   -1    0    0    0    0  0.00000000000E+00  0.00000000000E+00  0.45593999997E+02  0.45594000000E+02  0.51100000000E-03 0. -1.
         11   -1    0    0    0    0 -0.00000000000E+00 -0.00000000000E+00 -0.45593999997E+02  0.45594000000E+02  0.51100000000E-03 0.  1.
         23    2    1    2    0    0  0.00000000000E+00 -0.71054273576E-14 -0.71054273576E-14  0.91188000000E+02  0.91188000000E+02 0.  0.
    9900012    2    3    3    0    0  0.94992856147E+01 -0.27601752539E+02 -0.32117413431E+02  0.47787292449E+02  0.20000097593E+02 0.  0.
         12    1    3    3    0    0 -0.94992856147E+01  0.27601752539E+02  0.32117413431E+02  0.43400707551E+02  0.00000000000E+00 0. -1.
         11    1    4    4    0    0 -0.30461114041E+01 -0.36094534339E+01 -0.51613377661E+01  0.69961672774E+01  0.51100000000E-03 0.  1.
        -11    1    4    4    0    0  0.56543716914E+01 -0.22433405781E+02 -0.23305254105E+02  0.32838460429E+02  0.51100000000E-03 0. -1.
         12    1    4    4    0    0  0.68910253274E+01 -0.15588933238E+01 -0.36508215599E+01  0.79526647433E+01  0.00000000000E+00 0. -1.
</event>
<event>
 8    1  0.5542925E-011  0.9118800E+02  0.7816164E-02  0.1184000E+00
        -11   -1    0    0    0    0  0.00000000000E+00  0.00000000000E+00  0.45593999997E+02  0.45594000000E+02  0.51100000000E-03 0. -1.
         11   -1    0    0    0    0 -0.00000000000E+00 -0.00000000000E+00 -0.45593999997E+02  0.45594000000E+02  0.51100000000E-03 0.  1.
         23    2    1    2    0    0  0.00000000000E+00  0.88817841970E-15 -0.71054273576E-14  0.91188000000E+02  0.91188000000E+02 0.  0.
    9900012    2    3    3    0    0 -0.24560350306E+02 -0.29818378559E+01  0.35658393645E+02  0.47787271878E+02  0.20000003802E+02 0.  0.
        -12    1    3    3    0    0  0.24560350306E+02  0.29818378559E+01 -0.35658393645E+02  0.43400728122E+02  0.00000000000E+00 0.  1.
         11    1    4    4    0    0 -0.64745199872E+01 -0.86521069463E+01  0.62849572818E+01  0.12501162025E+02  0.51100000000E-03 0. -1.
        -11    1    4    4    0    0 -0.56744868309E+00  0.13978129772E+01  0.19485931524E+01  0.24643243824E+01  0.51100000000E-03 0.  1.
         12    1    4    4    0    0 -0.17518381636E+02  0.42724561132E+01  0.27424843211E+02  0.32821785471E+02  0.00000000000E+00 0. -1.
</event>
<event>
 8    1  0.5542925E-011  0.9118800E+02  0.7816164E-02  0.1184000E+00
        -11   -1    0    0    0    0  0.00000000000E+00  0.00000000000E+00  0.45593999997E+02  0.45594000000E+02  0.51100000000E-03 0. -1.
         11   -1    0    0    0    0 -0.00000000000E+00 -0.00000000000E+00 -0.45593999997E+02  0.45594000000E+02  0.51100000000E-03 0.  1.
         23    2    1    2    0    0  0.00000000000E+00  0.88817841970E-15 -0.71054273576E-14  0.91188000000E+02  0.91188000000E+02 0.  0.
    9900012    2    3    3    0    0 -0.19170878087E+02  0.78686959775E+01 -0.38133765516E+02  0.47787274021E+02  0.20000013574E+02 0.  0.
         12    1    3    3    0    0  0.19170878087E+02 -0.78686959775E+01  0.38133765516E+02  0.43400725979E+02  0.00000000000E+00 0. -1.
         11    1    4    4    0    0 -0.42895179654E+01  0.78924994946E+01 -0.14694189059E+02  0.17222389643E+02  0.51100000000E-03 0. -1.
        -11    1    4    4    0    0 -0.54343726422E+01  0.52321082214E+01 -0.15211031675E+02  0.16978894173E+02  0.51100000000E-03 0.  1.
        -12    1    4    4    0    0 -0.94469874797E+01 -0.52559117384E+01 -0.82285447826E+01  0.13585990206E+02  0.00000000000E+00 0.  1.
</event>
<event>
 8    1  0.5542925E-011  0.9118800E+02  0.7816164E-02  0.1184000E+00
        -11   -1    0    0    0    0  0.00000000000E+00  0.00000000000E+00  0.45593999997E+02  0.45594000000E+02  0.51100000000E-03 0. -1.
         11   -1    0    0    0    0 -0.00000000000E+00 -0.00000000000E+00 -0.45593999997E+02  0.45594000000E+02  0.51100000000E-03 0.  1.
         23    2    1    2    0    0  0.00000000000E+00 -0.22204460493E-15  0.00000000000E+00  0.91188000000E+02  0.91188000000E+02 0.  0.
    9900012    2    3    3    0    0 -0.32855970397E+02 -0.13674353488E+01 -0.28323813544E+02  0.47787273234E+02  0.20000009982E+02 0.  0.
         12    1    3    3    0    0  0.32855970397E+02  0.13674353488E+01  0.28323813544E+02  0.43400726766E+02  0.00000000000E+00 0. -1.
         11    1    4    4    0    0 -0.31884615630E+01 -0.23560618598E+01 -0.27143312323E+01  0.48046757357E+01  0.51100000000E-03 0. -1.
        -11    1    4    4    0    0 -0.29206480186E+02 -0.15959193528E+00 -0.16016682427E+02  0.33310329789E+02  0.51100000000E-03 0.  1.
         12    1    4    4    0    0 -0.46102864877E+00  0.11482184463E+01 -0.95927998845E+01  0.96722677092E+01  0.00000000000E+00 0. -1.
</event>
<event>
 8    1  0.5542925E-011  0.9118800E+02  0.7816164E-02  0.1184000E+00
        -11   -1    0    0    0    0  0.00000000000E+00  0.00000000000E+00  0.45593999997E+02  0.45594000000E+02  0.51100000000E-03 0. -1.
         11   -1    0    0    0    0 -0.00000000000E+00 -0.00000000000E+00 -0.45593999997E+02  0.45594000000E+02  0.51100000000E-03 0.  1.
         23    2    1    2    0    0  0.00000000000E+00 -0.88817841970E-15  0.00000000000E+00  0.91188000000E+02  0.91188000000E+02 0.  0.
    9900012    2    3    3    0    0  0.78820699133E+01  0.44907666624E+01  0.42442066984E+02  0.47787273495E+02  0.20000011172E+02 0.  0.
        -12    1    3    3    0    0 -0.78820699133E+01 -0.44907666624E+01 -0.42442066984E+02  0.43400726505E+02  0.00000000000E+00 0.  1.
         11    1    4    4    0    0 -0.44264560971E+01  0.32234811833E+01  0.53000931613E+01  0.76207173086E+01  0.51100000000E-03 0. -1.
        -11    1    4    4    0    0  0.32404594911E+01 -0.17441067871E+01  0.31083894406E+01  0.48171123481E+01  0.51100000000E-03 0.  1.
        -12    1    4    4    0    0  0.90680665193E+01  0.30113922662E+01  0.34033584382E+02  0.35349443838E+02  0.00000000000E+00 0.  1.
</event>
<event>
 8    1  0.5542925E-011  0.9118800E+02  0.7816164E-02  0.1184000E+00
        -11   -1    0    0    0    0  0.00000000000E+00  0.00000000000E+00  0.45593999997E+02  0.45594000000E+02  0.51100000000E-03 0. -1.
         11   -1    0    0    0    0 -0.00000000000E+00 -0.00000000000E+00 -0.45593999997E+02  0.45594000000E+02  0.51100000000E-03 0.  1.
         23    2    1    2    0    0 -0.35527136788E-14  0.00000000000E+00  0.00000000000E+00  0.91188000000E+02  0.91188000000E+02 0.  0.
    9900012    2    3    3    0    0 -0.24396450302E+02  0.13211428393E+02  0.33375073238E+02  0.47787261053E+02  0.19999954443E+02 0.  0.
        -12    1    3    3    0    0  0.24396450302E+02 -0.13211428393E+02 -0.33375073238E+02  0.43400738947E+02  0.00000000000E+00 0.  1.
         11    1    4    4    0    0 -0.10143004047E+02  0.81229139901E+00  0.39267278170E+01  0.10906857477E+02  0.51100000000E-03 0. -1.
        -11    1    4    4    0    0 -0.70470137040E+01 -0.87114758734E+00  0.96024454585E+01  0.11942623636E+02  0.51100000000E-03 0.  1.
        -12    1    4    4    0    0 -0.72064325508E+01  0.13270284582E+02  0.19845899962E+02  0.24937779940E+02  0.00000000000E+00 0.  1.
</event>
<event>
 8    1  0.5542925E-011  0.9118800E+02  0.7816164E-02  0.1184000E+00
        -11   -1    0    0    0    0  0.00000000000E+00  0.00000000000E+00  0.45593999997E+02  0.45594000000E+02  0.51100000000E-03 0. -1.
         11   -1    0    0    0    0 -0.00000000000E+00 -0.00000000000E+00 -0.45593999997E+02  0.45594000000E+02  0.51100000000E-03 0.  1.
         23    2    1    2    0    0  0.00000000000E+00  0.35527136788E-14  0.00000000000E+00  0.91188000000E+02  0.91188000000E+02 0.  0.
    9900012    2    3    3    0    0  0.33442407161E+02 -0.20098258991E+02 -0.19007599025E+02  0.47787269224E+02  0.19999991700E+02 0.  0.
         12    1    3    3    0    0 -0.33442407161E+02  0.20098258991E+02  0.19007599025E+02  0.43400730776E+02  0.00000000000E+00 0. -1.
         11    1    4    4    0    0  0.11488862758E+02 -0.14667199704E+02 -0.68202876719E+01  0.19840288275E+02  0.51100000000E-03 0. -1.
        -11    1    4    4    0    0  0.12066030248E+02 -0.76638716071E+01 -0.38006936459E+01  0.14790851443E+02  0.51100000000E-03 0.  1.
        -12    1    4    4    0    0  0.98875141545E+01  0.22328123202E+01 -0.83866177073E+01  0.13156129506E+02  0.00000000000E+00 0.  1.
</event>
<event>
 8    1  0.5542925E-011  0.9118800E+02  0.7816164E-02  0.1184000E+00
        -11   -1    0    0    0    0  0.00000000000E+00  0.00000000000E+00  0.45593999997E+02  0.45594000000E+02  0.51100000000E-03 0. -1.
         11   -1    0    0    0    0 -0.00000000000E+00 -0.00000000000E+00 -0.45593999997E+02  0.45594000000E+02  0.51100000000E-03 0.  1.
         23    2    1    2    0    0  0.00000000000E+00  0.00000000000E+00  0.35527136788E-14  0.91188000000E+02  0.91188000000E+02 0.  0.
    9900012    2    3    3    0    0  0.98135624601E+01 -0.38339645339E+02  0.17815419185E+02  0.47787267592E+02  0.19999984258E+02 0.  0.
        -12    1    3    3    0    0 -0.98135624601E+01  0.38339645339E+02 -0.17815419185E+02  0.43400732408E+02  0.00000000000E+00 0.  1.
         11    1    4    4    0    0 -0.14596390521E+00 -0.10822059285E+02  0.65825962570E+01  0.12667629864E+02  0.51100000000E-03 0. -1.
        -11    1    4    4    0    0 -0.37077562500E+01 -0.23790888515E+01  0.70788628569E-01  0.44059654406E+01  0.51100000000E-03 0.  1.
        -12    1    4    4    0    0  0.13667282615E+02 -0.25138497202E+02  0.11162034299E+02  0.30713672287E+02  0.00000000000E+00 0.  1.
</event>
<event>
 8    1  0.5542925E-011  0.9118800E+02  0.7816164E-02  0.1184000E+00
        -11   -1    0    0    0    0  0.00000000000E+00  0.00000000000E+00  0.45593999997E+02  0.45594000000E+02  0.51100000000E-03 0.  1.
         11   -1    0    0    0    0 -0.00000000000E+00 -0.00000000000E+00 -0.45593999997E+02  0.45594000000E+02  0.51100000000E-03 0. -1.
         23    2    1    2    0    0  0.00000000000E+00  0.00000000000E+00  0.00000000000E+00  0.91188000000E+02  0.91188000000E+02 0.  0.
    9900012    2    3    3    0    0 -0.36198615203E+02  0.13901519203E+02 -0.19494393332E+02  0.47787270166E+02  0.19999995995E+02 0.  0.
        -12    1    3    3    0    0  0.36198615203E+02 -0.13901519203E+02  0.19494393332E+02  0.43400729834E+02  0.00000000000E+00 0.  1.
         11    1    4    4    0    0 -0.16741435337E+01  0.29324617456E-01 -0.31501200325E+01  0.35674743145E+01  0.51100000000E-03 0. -1.
        -11    1    4    4    0    0 -0.10664130596E+02 -0.74293978913E+00  0.18430582898E+01  0.10847695839E+02  0.51100000000E-03 0.  1.
         12    1    4    4    0    0 -0.23860341073E+02  0.14615134374E+02 -0.18187331589E+02  0.33372100013E+02  0.00000000000E+00 0. -1.
</event>
<event>
 8    1  0.5542925E-011  0.9118800E+02  0.7816164E-02  0.1184000E+00
        -11   -1    0    0    0    0  0.00000000000E+00  0.00000000000E+00  0.45593999997E+02  0.45594000000E+02  0.51100000000E-03 0. -1.
         11   -1    0    0    0    0 -0.00000000000E+00 -0.00000000000E+00 -0.45593999997E+02  0.45594000000E+02  0.51100000000E-03 0.  1.
         23    2    1    2    0    0  0.00000000000E+00  0.00000000000E+00  0.00000000000E+00  0.91188000000E+02  0.91188000000E+02 0.  0.
    9900012    2    3    3    0    0  0.36619062856E+02 -0.92029736250E+01  0.21400300809E+02  0.47787270021E+02  0.19999995334E+02 0.  0.
        -12    1    3    3    0    0 -0.36619062856E+02  0.92029736250E+01 -0.21400300809E+02  0.43400729979E+02  0.00000000000E+00 0.  1.
         11    1    4    4    0    0  0.16829669754E+02 -0.36998647217E+01  0.85643841610E+01  0.19242542953E+02  0.51100000000E-03 0. -1.
        -11    1    4    4    0    0  0.18670956898E+02  0.79027919959E+00  0.72125891774E+01  0.20031240990E+02  0.51100000000E-03 0.  1.
        -12    1    4    4    0    0  0.11184362043E+01 -0.62933881029E+01  0.56233274708E+01  0.85134860780E+01  0.00000000000E+00 0.  1.
</event>
<event>
 8    1  0.5542925E-011  0.9118800E+02  0.7816164E-02  0.1184000E+00
        -11   -1    0    0    0    0  0.00000000000E+00  0.00000000000E+00  0.45593999997E+02  0.45594000000E+02  0.51100000000E-03 0. -1.
         11   -1    0    0    0    0 -0.00000000000E+00 -0.00000000000E+00 -0.45593999997E+02  0.45594000000E+02  0.51100000000E-03 0.  1.
         23    2    1    2    0    0  0.00000000000E+00  0.00000000000E+00  0.00000000000E+00  0.91188000000E+02  0.91188000000E+02 0.  0.
    9900012    2    3    3    0    0 -0.22601223050E+02 -0.33739397947E+02  0.15312119752E+02  0.47787271106E+02  0.20000000283E+02 0.  0.
        -12    1    3    3    0    0  0.22601223050E+02  0.33739397947E+02 -0.15312119752E+02  0.43400728894E+02  0.00000000000E+00 0.  1.
         11    1    4    4    0    0 -0.12948132974E+02 -0.12117825511E+02  0.12478594170E+02  0.21684352777E+02  0.51100000000E-03 0. -1.
        -11    1    4    4    0    0 -0.28619610272E+01  0.15083077598E+00 -0.87476149129E+00  0.29964610413E+01  0.51100000000E-03 0.  1.
        -12    1    4    4    0    0 -0.67911290491E+01 -0.21772403212E+02  0.37082870726E+01  0.23106457288E+02  0.00000000000E+00 0.  1.
</event>
<event>
 8    1  0.5542925E-011  0.9118800E+02  0.7816164E-02  0.1184000E+00
        -11   -1    0    0    0    0  0.00000000000E+00  0.00000000000E+00  0.45593999997E+02  0.45594000000E+02  0.51100000000E-03 0. -1.
         11   -1    0    0    0    0 -0.00000000000E+00 -0.00000000000E+00 -0.45593999997E+02  0.45594000000E+02  0.51100000000E-03 0.  1.
         23    2    1    2    0    0  0.00000000000E+00  0.00000000000E+00  0.00000000000E+00  0.91188000000E+02  0.91188000000E+02 0.  0.
    9900012    2    3    3    0    0  0.18303415608E+02  0.14216371545E+02 -0.36694724658E+02  0.47787273502E+02  0.20000011207E+02 0.  0.
         12    1    3    3    0    0 -0.18303415608E+02 -0.14216371545E+02  0.36694724658E+02  0.43400726498E+02  0.00000000000E+00 0. -1.
         11    1    4    4    0    0  0.27340822873E+01  0.81038761373E+00  0.71715881129E+00  0.29404508259E+01  0.51100000000E-03 0. -1.
        -11    1    4    4    0    0  0.47019452723E+01  0.86818431453E+01 -0.67103158317E+01  0.11937798313E+02  0.51100000000E-03 0.  1.
        -12    1    4    4    0    0  0.10867388048E+02  0.47241407860E+01 -0.30701567637E+02  0.32909024363E+02  0.00000000000E+00 0.  1.
</event>
<event>
 8    1  0.5542925E-011  0.9118800E+02  0.7816164E-02  0.1184000E+00
        -11   -1    0    0    0    0  0.00000000000E+00  0.00000000000E+00  0.45593999997E+02  0.45594000000E+02  0.51100000000E-03 0. -1.
         11   -1    0    0    0    0 -0.00000000000E+00 -0.00000000000E+00 -0.45593999997E+02  0.45594000000E+02  0.51100000000E-03 0.  1.
         23    2    1    2    0    0  0.00000000000E+00  0.00000000000E+00  0.00000000000E+00  0.91188000000E+02  0.91188000000E+02 0.  0.
    9900012    2    3    3    0    0 -0.32087926186E+02 -0.11197786505E+02  0.26992548688E+02  0.47787272884E+02  0.20000008387E+02 0.  0.
        -12    1    3    3    0    0  0.32087926186E+02  0.11197786505E+02 -0.26992548688E+02  0.43400727116E+02  0.00000000000E+00 0.  1.
         11    1    4    4    0    0 -0.77845531078E+00 -0.86265415573E+00 -0.40084506052E+00  0.12291630840E+01  0.51100000000E-03 0. -1.
        -11    1    4    4    0    0 -0.17725850211E+02 -0.15353621492E+00  0.49254816052E+01  0.18398089802E+02  0.51100000000E-03 0.  1.
         12    1    4    4    0    0 -0.13583620665E+02 -0.10181596134E+02  0.22467912143E+02  0.28160019998E+02  0.00000000000E+00 0. -1.
</event>
<event>
 8    1  0.5542925E-011  0.9118800E+02  0.7816164E-02  0.1184000E+00
        -11   -1    0    0    0    0  0.00000000000E+00  0.00000000000E+00  0.45593999997E+02  0.45594000000E+02  0.51100000000E-03 0. -1.
         11   -1    0    0    0    0 -0.00000000000E+00 -0.00000000000E+00 -0.45593999997E+02  0.45594000000E+02  0.51100000000E-03 0.  1.
         23    2    1    2    0    0  0.00000000000E+00 -0.35527136788E-14  0.00000000000E+00  0.91188000000E+02  0.91188000000E+02 0.  0.
    9900012    2    3    3    0    0  0.40534238006E+01  0.25999083468E+02  0.34514300782E+02  0.47787314013E+02  0.20000195908E+02 0.  0.
        -12    1    3    3    0    0 -0.40534238006E+01 -0.25999083468E+02 -0.34514300782E+02  0.43400685987E+02  0.00000000000E+00 0.  1.
         11    1    4    4    0    0  0.30751736747E+01  0.19010540810E+02  0.18089502423E+02  0.26421344651E+02  0.51100000000E-03 0. -1.
        -11    1    4    4    0    0  0.10862551526E+01  0.35251183413E+01 -0.81812171929E+00  0.37783240974E+01  0.51100000000E-03 0.  1.
        -12    1    4    4    0    0 -0.10800502668E+00  0.34634243167E+01  0.17242920079E+02  0.17587645264E+02  0.00000000000E+00 0.  1.
</event>
<event>
 8    1  0.5542925E-011  0.9118800E+02  0.7816164E-02  0.1184000E+00
        -11   -1    0    0    0    0  0.00000000000E+00  0.00000000000E+00  0.45593999997E+02  0.45594000000E+02  0.51100000000E-03 0. -1.
         11   -1    0    0    0    0 -0.00000000000E+00 -0.00000000000E+00 -0.45593999997E+02  0.45594000000E+02  0.51100000000E-03 0.  1.
         23    2    1    2    0    0 -0.88817841970E-15  0.00000000000E+00  0.00000000000E+00  0.91188000000E+02  0.91188000000E+02 0.  0.
    9900012    2    3    3    0    0  0.79560972808E+01 -0.37478230362E+02 -0.20388868976E+02  0.47787271744E+02  0.20000003189E+02 0.  0.
         12    1    3    3    0    0 -0.79560972808E+01  0.37478230362E+02  0.20388868976E+02  0.43400728256E+02  0.00000000000E+00 0. -1.
         11    1    4    4    0    0  0.48664449642E+00  0.46824714092E+00 -0.69815869880E+00  0.97134138216E+00  0.51100000000E-03 0. -1.
        -11    1    4    4    0    0  0.41081005886E+01 -0.55431839611E+01 -0.11193087045E+02  0.13148710079E+02  0.51100000000E-03 0.  1.
         12    1    4    4    0    0  0.33613521958E+01 -0.32403293542E+02 -0.84976232320E+01  0.33667220283E+02  0.00000000000E+00 0. -1.
</event>
<event>
 8    1  0.5542925E-011  0.9118800E+02  0.7816164E-02  0.1184000E+00
        -11   -1    0    0    0    0  0.00000000000E+00  0.00000000000E+00  0.45593999997E+02  0.45594000000E+02  0.51100000000E-03 0. -1.
         11   -1    0    0    0    0 -0.00000000000E+00 -0.00000000000E+00 -0.45593999997E+02  0.45594000000E+02  0.51100000000E-03 0.  1.
         23    2    1    2    0    0  0.35527136788E-14 -0.35527136788E-14  0.35527136788E-14  0.91188000000E+02  0.91188000000E+02 0.  0.
    9900012    2    3    3    0    0 -0.20814605419E+02  0.30269650598E+02 -0.23111123373E+02  0.47787267637E+02  0.19999984466E+02 0.  0.
         12    1    3    3    0    0  0.20814605419E+02 -0.30269650598E+02  0.23111123373E+02  0.43400732363E+02  0.00000000000E+00 0. -1.
         11    1    4    4    0    0 -0.41673151335E+01  0.82447080359E+01 -0.16574330273E+02  0.18974987491E+02  0.51100000000E-03 0. -1.
        -11    1    4    4    0    0 -0.26443400866E+01  0.40259072510E+01 -0.31558496941E+01  0.57584591029E+01  0.51100000000E-03 0.  1.
        -12    1    4    4    0    0 -0.14002950199E+02  0.17999035311E+02 -0.33809434060E+01  0.23053821043E+02  0.00000000000E+00 0.  1.
</event>
<event>
 8    1  0.5542925E-011  0.9118800E+02  0.7816164E-02  0.1184000E+00
        -11   -1    0    0    0    0  0.00000000000E+00  0.00000000000E+00  0.45593999997E+02  0.45594000000E+02  0.51100000000E-03 0. -1.
         11   -1    0    0    0    0 -0.00000000000E+00 -0.00000000000E+00 -0.45593999997E+02  0.45594000000E+02  0.51100000000E-03 0.  1.
         23    2    1    2    0    0  0.88817841970E-15 -0.88817841970E-15  0.00000000000E+00  0.91188000000E+02  0.91188000000E+02 0.  0.
    9900012    2    3    3    0    0 -0.74469172025E+01 -0.26118608560E+01 -0.42677218131E+02  0.47787270279E+02  0.19999996508E+02 0.  0.
         12    1    3    3    0    0  0.74469172025E+01  0.26118608560E+01  0.42677218131E+02  0.43400729721E+02  0.00000000000E+00 0. -1.
         11    1    4    4    0    0 -0.26938631422E+01  0.44770926282E+01 -0.17935898472E+02  0.18681480436E+02  0.51100000000E-03 0. -1.
        -11    1    4    4    0    0 -0.56503320393E+01  0.30317990778E+00 -0.18637151139E+02  0.19477206500E+02  0.51100000000E-03 0.  1.
         12    1    4    4    0    0  0.89727797903E+00 -0.73921333920E+01 -0.61041685204E+01  0.96285833425E+01  0.00000000000E+00 0. -1.
</event>
<event>
 8    1  0.5542925E-011  0.9118800E+02  0.7816164E-02  0.1184000E+00
        -11   -1    0    0    0    0  0.00000000000E+00  0.00000000000E+00  0.45593999997E+02  0.45594000000E+02  0.51100000000E-03 0.  1.
         11   -1    0    0    0    0 -0.00000000000E+00 -0.00000000000E+00 -0.45593999997E+02  0.45594000000E+02  0.51100000000E-03 0. -1.
         23    2    1    2    0    0  0.17763568394E-14  0.00000000000E+00  0.00000000000E+00  0.91188000000E+02  0.91188000000E+02 0.  0.
    9900012    2    3    3    0    0 -0.14282927228E+02  0.38785747484E+02 -0.13239600563E+02  0.47787271422E+02  0.20000001720E+02 0.  0.
         12    1    3    3    0    0  0.14282927228E+02 -0.38785747484E+02  0.13239600563E+02  0.43400728578E+02  0.00000000000E+00 0. -1.
         11    1    4    4    0    0 -0.40018997276E+00 -0.98542415246E-01 -0.19954708236E+01  0.20375884498E+01  0.51100000000E-03 0. -1.
        -11    1    4    4    0    0 -0.60795892315E+00  0.15872329826E+02  0.20967563840E+01  0.16021761943E+02  0.51100000000E-03 0.  1.
        -12    1    4    4    0    0 -0.13274778332E+02  0.23011960073E+02 -0.13340886123E+02  0.29727921029E+02  0.00000000000E+00 0.  1.
</event>
<event>
 8    1  0.5542925E-011  0.9118800E+02  0.7816164E-02  0.1184000E+00
        -11   -1    0    0    0    0  0.00000000000E+00  0.00000000000E+00  0.45593999997E+02  0.45594000000E+02  0.51100000000E-03 0. -1.
         11   -1    0    0    0    0 -0.00000000000E+00 -0.00000000000E+00 -0.45593999997E+02  0.45594000000E+02  0.51100000000E-03 0.  1.
         23    2    1    2    0    0  0.17763568394E-14  0.00000000000E+00  0.00000000000E+00  0.91188000000E+02  0.91188000000E+02 0.  0.
    9900012    2    3    3    0    0  0.11728344495E+02 -0.51074677588E+01  0.41472678455E+02  0.47787270170E+02  0.19999996015E+02 0.  0.
        -12    1    3    3    0    0 -0.11728344495E+02  0.51074677588E+01 -0.41472678455E+02  0.43400729830E+02  0.00000000000E+00 0.  1.
         11    1    4    4    0    0  0.10834327430E+02 -0.12970745967E+01  0.17152982590E+02  0.20329531853E+02  0.51100000000E-03 0. -1.
        -11    1    4    4    0    0  0.43526443118E+01 -0.68457799747E+01  0.16445045606E+02  0.18337113764E+02  0.51100000000E-03 0.  1.
        -12    1    4    4    0    0 -0.34586272467E+01  0.30353868125E+01  0.78746502595E+01  0.91206245534E+01  0.00000000000E+00 0.  1.
</event>
<event>
 8    1  0.5542925E-011  0.9118800E+02  0.7816164E-02  0.1184000E+00
        -11   -1    0    0    0    0  0.00000000000E+00  0.00000000000E+00  0.45593999997E+02  0.45594000000E+02  0.51100000000E-03 0. -1.
         11   -1    0    0    0    0 -0.00000000000E+00 -0.00000000000E+00 -0.45593999997E+02  0.45594000000E+02  0.51100000000E-03 0.  1.
         23    2    1    2    0    0  0.00000000000E+00  0.00000000000E+00 -0.71054273576E-14  0.91188000000E+02  0.91188000000E+02 0.  0.
    9900012    2    3    3    0    0  0.19036369680E+02  0.20952287759E+02  0.32897444965E+02  0.47787267078E+02  0.19999981917E+02 0.  0.
        -12    1    3    3    0    0 -0.19036369680E+02 -0.20952287759E+02 -0.32897444965E+02  0.43400732922E+02  0.00000000000E+00 0.  1.
         11    1    4    4    0    0  0.10438514614E+02  0.14380679523E+02  0.17334870792E+02  0.24824670723E+02  0.51100000000E-03 0. -1.
        -11    1    4    4    0    0 -0.12945531581E+01  0.54761426249E+01  0.10219328866E+02  0.11666134264E+02  0.51100000000E-03 0.  1.
        -12    1    4    4    0    0  0.98924082237E+01  0.10954656107E+01  0.53432453077E+01  0.11296462092E+02  0.00000000000E+00 0.  1.
</event>
<event>
 8    1  0.5542925E-011  0.9118800E+02  0.7816164E-02  0.1184000E+00
        -11   -1    0    0    0    0  0.00000000000E+00  0.00000000000E+00  0.45593999997E+02  0.45594000000E+02  0.51100000000E-03 0. -1.
         11   -1    0    0    0    0 -0.00000000000E+00 -0.00000000000E+00 -0.45593999997E+02  0.45594000000E+02  0.51100000000E-03 0.  1.
         23    2    1    2    0    0 -0.35527136788E-14 -0.88817841970E-15  0.00000000000E+00  0.91188000000E+02  0.91188000000E+02 0.  0.
    9900012    2    3    3    0    0  0.17737502598E+02  0.39970504592E+01  0.39408475693E+02  0.47787269969E+02  0.19999995098E+02 0.  0.
        -12    1    3    3    0    0 -0.17737502598E+02 -0.39970504592E+01 -0.39408475693E+02  0.43400730031E+02  0.00000000000E+00 0.  1.
         11    1    4    4    0    0  0.66874937224E+01  0.61527905850E+01  0.86811625641E+01  0.12567497285E+02  0.51100000000E-03 0. -1.
        -11    1    4    4    0    0 -0.23993285728E+01  0.10703841227E+01  0.18875497963E+01  0.32350184335E+01  0.51100000000E-03 0.  1.
        -12    1    4    4    0    0  0.13449337448E+02 -0.32261242485E+01  0.28839763332E+02  0.31984754251E+02  0.00000000000E+00 0.  1.
</event>
<event>
 8    1  0.5542925E-011  0.9118800E+02  0.7816164E-02  0.1184000E+00
        -11   -1    0    0    0    0  0.00000000000E+00  0.00000000000E+00  0.45593999997E+02  0.45594000000E+02  0.51100000000E-03 0. -1.
         11   -1    0    0    0    0 -0.00000000000E+00 -0.00000000000E+00 -0.45593999997E+02  0.45594000000E+02  0.51100000000E-03 0.  1.
         23    2    1    2    0    0  0.00000000000E+00  0.00000000000E+00 -0.71054273576E-14  0.91188000000E+02  0.91188000000E+02 0.  0.
    9900012    2    3    3    0    0 -0.91579546915E+01  0.16661225003E+02  0.39014852617E+02  0.47787271003E+02  0.19999999813E+02 0.  0.
        -12    1    3    3    0    0  0.91579546915E+01 -0.16661225003E+02 -0.39014852617E+02  0.43400728997E+02  0.00000000000E+00 0.  1.
         11    1    4    4    0    0 -0.37181436303E+01  0.25130244795E+01  0.15362477771E+02  0.16004549591E+02  0.51100000000E-03 0. -1.
        -11    1    4    4    0    0 -0.86089787949E+01  0.24160989070E+01  0.82759512130E+01  0.12183735821E+02  0.51100000000E-03 0.  1.
         12    1    4    4    0    0  0.31691677337E+01  0.11732101616E+02  0.15376423633E+02  0.19598985591E+02  0.00000000000E+00 0. -1.
</event>
<event>
 8    1  0.5542925E-011  0.9118800E+02  0.7816164E-02  0.1184000E+00
        -11   -1    0    0    0    0  0.00000000000E+00  0.00000000000E+00  0.45593999997E+02  0.45594000000E+02  0.51100000000E-03 0. -1.
         11   -1    0    0    0    0 -0.00000000000E+00 -0.00000000000E+00 -0.45593999997E+02  0.45594000000E+02  0.51100000000E-03 0.  1.
         23    2    1    2    0    0  0.71054273576E-14  0.00000000000E+00 -0.17763568394E-14  0.91188000000E+02  0.91188000000E+02 0.  0.
    9900012    2    3    3    0    0  0.35695620799E+02  0.21769800233E+02  0.11641380333E+02  0.47787270945E+02  0.19999999548E+02 0.  0.
        -12    1    3    3    0    0 -0.35695620799E+02 -0.21769800233E+02 -0.11641380333E+02  0.43400729055E+02  0.00000000000E+00 0.  1.
         11    1    4    4    0    0  0.45234128950E+01  0.62396148763E+01  0.23758663066E+01  0.80646636007E+01  0.51100000000E-03 0. -1.
        -11    1    4    4    0    0  0.10792064976E+02 -0.15550100053E+01 -0.15501387626E+01  0.11013158175E+02  0.51100000000E-03 0.  1.
        -12    1    4    4    0    0  0.20380142929E+02  0.17085195362E+02  0.10815652789E+02  0.28709449169E+02  0.00000000000E+00 0.  1.
</event>
<event>
 8    1  0.5542925E-011  0.9118800E+02  0.7816164E-02  0.1184000E+00
        -11   -1    0    0    0    0  0.00000000000E+00  0.00000000000E+00  0.45593999997E+02  0.45594000000E+02  0.51100000000E-03 0. -1.
         11   -1    0    0    0    0 -0.00000000000E+00 -0.00000000000E+00 -0.45593999997E+02  0.45594000000E+02  0.51100000000E-03 0.  1.
         23    2    1    2    0    0  0.88817841970E-15  0.00000000000E+00  0.00000000000E+00  0.91188000000E+02  0.91188000000E+02 0.  0.
    9900012    2    3    3    0    0  0.24200633868E+01 -0.25379120706E+02 -0.35123591546E+02  0.47787272383E+02  0.20000006102E+02 0.  0.
         12    1    3    3    0    0 -0.24200633868E+01  0.25379120706E+02  0.35123591546E+02  0.43400727617E+02  0.00000000000E+00 0. -1.
         11    1    4    4    0    0 -0.56602321841E+01 -0.75187667218E+01 -0.92766918877E+01  0.13214654518E+02  0.51100000000E-03 0. -1.
        -11    1    4    4    0    0 -0.13094813953E+01 -0.35380045650E+01 -0.11907569871E+02  0.12490894217E+02  0.51100000000E-03 0.  1.
        -12    1    4    4    0    0  0.93897769662E+01 -0.14322349419E+02 -0.13939329787E+02  0.22081723648E+02  0.00000000000E+00 0.  1.
</event>
<event>
 8    1  0.5542925E-011  0.9118800E+02  0.7816164E-02  0.1184000E+00
        -11   -1    0    0    0    0  0.00000000000E+00  0.00000000000E+00  0.45593999997E+02  0.45594000000E+02  0.51100000000E-03 0. -1.
         11   -1    0    0    0    0 -0.00000000000E+00 -0.00000000000E+00 -0.45593999997E+02  0.45594000000E+02  0.51100000000E-03 0.  1.
         23    2    1    2    0    0 -0.88817841970E-15 -0.35527136788E-14  0.00000000000E+00  0.91188000000E+02  0.91188000000E+02 0.  0.
    9900012    2    3    3    0    0  0.69130217553E+01  0.27513733370E+02  0.32845513307E+02  0.47787272608E+02  0.20000007131E+02 0.  0.
        -12    1    3    3    0    0 -0.69130217553E+01 -0.27513733370E+02 -0.32845513307E+02  0.43400727392E+02  0.00000000000E+00 0.  1.
         11    1    4    4    0    0 -0.15609727768E+01  0.96065894327E+01  0.84329728556E+01  0.12877819225E+02  0.51100000000E-03 0. -1.
        -11    1    4    4    0    0  0.66833615789E+01  0.20492818510E+02  0.19444296593E+02  0.29029357602E+02  0.51100000000E-03 0.  1.
        -12    1    4    4    0    0  0.17906329532E+01 -0.25856745735E+01  0.49682438579E+01  0.58800957819E+01  0.00000000000E+00 0.  1.
</event>
<event>
 8    1  0.5542925E-011  0.9118800E+02  0.7816164E-02  0.1184000E+00
        -11   -1    0    0    0    0  0.00000000000E+00  0.00000000000E+00  0.45593999997E+02  0.45594000000E+02  0.51100000000E-03 0. -1.
         11   -1    0    0    0    0 -0.00000000000E+00 -0.00000000000E+00 -0.45593999997E+02  0.45594000000E+02  0.51100000000E-03 0.  1.
         23    2    1    2    0    0  0.71054273576E-14  0.17763568394E-14  0.00000000000E+00  0.91188000000E+02  0.91188000000E+02 0.  0.
    9900012    2    3    3    0    0 -0.37781224189E+02 -0.84511118636E+01 -0.19615818689E+02  0.47787279547E+02  0.20000038768E+02 0.  0.
         12    1    3    3    0    0  0.37781224189E+02  0.84511118636E+01  0.19615818689E+02  0.43400720453E+02  0.00000000000E+00 0. -1.
         11    1    4    4    0    0 -0.14554616407E+02  0.11638348216E+01 -0.42759038639E+01  0.15214293423E+02  0.51100000000E-03 0. -1.
        -11    1    4    4    0    0 -0.12284278737E+02 -0.71698488950E+01 -0.84629161390E+00  0.14248734927E+02  0.51100000000E-03 0.  1.
         12    1    4    4    0    0 -0.10942329044E+02 -0.24450977902E+01 -0.14493623212E+02  0.18324251197E+02  0.00000000000E+00 0. -1.
</event>
<event>
 8    1  0.5542925E-011  0.9118800E+02  0.7816164E-02  0.1184000E+00
        -11   -1    0    0    0    0  0.00000000000E+00  0.00000000000E+00  0.45593999997E+02  0.45594000000E+02  0.51100000000E-03 0. -1.
         11   -1    0    0    0    0 -0.00000000000E+00 -0.00000000000E+00 -0.45593999997E+02  0.45594000000E+02  0.51100000000E-03 0.  1.
         23    2    1    2    0    0 -0.35527136788E-14  0.00000000000E+00  0.00000000000E+00  0.91188000000E+02  0.91188000000E+02 0.  0.
    9900012    2    3    3    0    0 -0.29458611447E+02  0.87624377592E+01 -0.30643617891E+02  0.47787292387E+02  0.20000097310E+02 0.  0.
         12    1    3    3    0    0  0.29458611447E+02 -0.87624377592E+01  0.30643617891E+02  0.43400707613E+02  0.00000000000E+00 0. -1.
         11    1    4    4    0    0 -0.80148269798E+01 -0.47120371935E+01 -0.82994976005E+01  0.12462841037E+02  0.51100000000E-03 0. -1.
        -11    1    4    4    0    0 -0.80965427085E+01  0.24784973815E+01 -0.21471617920E+01  0.87354025163E+01  0.51100000000E-03 0.  1.
        -12    1    4    4    0    0 -0.13347241758E+02  0.10995977571E+02 -0.20196958498E+02  0.26589048834E+02  0.00000000000E+00 0.  1.
</event>
<event>
 8    1  0.6872417E-011  0.9118800E+02  0.7816164E-02  0.1184000E+00
        -11   -1    0    0    0    0  0.00000000000E+00  0.00000000000E+00  0.45593999997E+02  0.45594000000E+02  0.51100000000E-03 0. -1.
         11   -1    0    0    0    0 -0.00000000000E+00 -0.00000000000E+00 -0.45593999997E+02  0.45594000000E+02  0.51100000000E-03 0.  1.
         23    2    1    2    0    0  0.00000000000E+00 -0.88817841970E-15  0.35527136788E-14  0.91188000000E+02  0.91188000000E+02 0.  0.
    9900012    2    3    3    0    0  0.33917405181E+02  0.61944386631E+01  0.26360237891E+02  0.47787267446E+02  0.19999983593E+02 0.  0.
        -12    1    3    3    0    0 -0.33917405181E+02 -0.61944386631E+01 -0.26360237891E+02  0.43400732554E+02  0.00000000000E+00 0.  1.
         11    1    4    4    0    0  0.14408559292E+02 -0.13850176701E+00  0.16453739513E+02  0.21871243857E+02  0.51100000000E-03 0. -1.
        -11    1    4    4    0    0 -0.56471512124E+00  0.25132695197E+01  0.37973222834E+01  0.45885818759E+01  0.51100000000E-03 0.  1.
         12    1    4    4    0    0  0.20073561010E+02  0.38196709104E+01  0.61091760947E+01  0.21327441713E+02  0.00000000000E+00 0. -1.
</event>
<event>
 8    1  0.5542925E-011  0.9118800E+02  0.7816164E-02  0.1184000E+00
        -11   -1    0    0    0    0  0.00000000000E+00  0.00000000000E+00  0.45593999997E+02  0.45594000000E+02  0.51100000000E-03 0. -1.
         11   -1    0    0    0    0 -0.00000000000E+00 -0.00000000000E+00 -0.45593999997E+02  0.45594000000E+02  0.51100000000E-03 0.  1.
         23    2    1    2    0    0  0.00000000000E+00  0.00000000000E+00 -0.35527136788E-14  0.91188000000E+02  0.91188000000E+02 0.  0.
    9900012    2    3    3    0    0 -0.28981043761E+02  0.65869910771E+01  0.31628057797E+02  0.47787269719E+02  0.19999993955E+02 0.  0.
        -12    1    3    3    0    0  0.28981043761E+02 -0.65869910771E+01 -0.31628057797E+02  0.43400730281E+02  0.00000000000E+00 0.  1.
         11    1    4    4    0    0 -0.10865959146E+02 -0.20259604643E+01  0.56016407843E+01  0.12391608600E+02  0.51100000000E-03 0. -1.
        -11    1    4    4    0    0 -0.18574739769E+02  0.37382875806E+01  0.22167350907E+02  0.29161399110E+02  0.51100000000E-03 0.  1.
        -12    1    4    4    0    0  0.45965515326E+00  0.48746639608E+01  0.38590661055E+01  0.62342620090E+01  0.00000000000E+00 0.  1.
</event>
<event>
 8    1  0.5542925E-011  0.9118800E+02  0.7816164E-02  0.1184000E+00
        -11   -1    0    0    0    0  0.00000000000E+00  0.00000000000E+00  0.45593999997E+02  0.45594000000E+02  0.51100000000E-03 0. -1.
         11   -1    0    0    0    0 -0.00000000000E+00 -0.00000000000E+00 -0.45593999997E+02  0.45594000000E+02  0.51100000000E-03 0.  1.
         23    2    1    2    0    0  0.17763568394E-14 -0.35527136788E-14 -0.71054273576E-14  0.91188000000E+02  0.91188000000E+02 0.  0.
    9900012    2    3    3    0    0  0.13760670457E+02 -0.18058989692E+02 -0.36988378514E+02  0.47787270683E+02  0.19999998353E+02 0.  0.
         12    1    3    3    0    0 -0.13760670457E+02  0.18058989692E+02  0.36988378514E+02  0.43400729317E+02  0.00000000000E+00 0. -1.
         11    1    4    4    0    0  0.94651113906E+01 -0.91854301619E+01 -0.14996645798E+02  0.19971475818E+02  0.51100000000E-03 0. -1.
        -11    1    4    4    0    0 -0.24051949068E+01 -0.96195091121E+01 -0.10151851828E+02  0.14190842607E+02  0.51100000000E-03 0.  1.
         12    1    4    4    0    0  0.67007539735E+01  0.74594958216E+00 -0.11839880888E+02  0.13624952258E+02  0.00000000000E+00 0. -1.
</event>
<event>
 8    1  0.5542925E-011  0.9118800E+02  0.7816164E-02  0.1184000E+00
        -11   -1    0    0    0    0  0.00000000000E+00  0.00000000000E+00  0.45593999997E+02  0.45594000000E+02  0.51100000000E-03 0. -1.
         11   -1    0    0    0    0 -0.00000000000E+00 -0.00000000000E+00 -0.45593999997E+02  0.45594000000E+02  0.51100000000E-03 0.  1.
         23    2    1    2    0    0 -0.71054273576E-14  0.00000000000E+00  0.00000000000E+00  0.91188000000E+02  0.91188000000E+02 0.  0.
    9900012    2    3    3    0    0 -0.36340349862E+02  0.67569775164E+01 -0.22745239414E+02  0.47787266259E+02  0.19999978182E+02 0.  0.
         12    1    3    3    0    0  0.36340349862E+02 -0.67569775164E+01  0.22745239414E+02  0.43400733741E+02  0.00000000000E+00 0. -1.
         11    1    4    4    0    0 -0.81483789434E+01 -0.37738315289E+00 -0.79266842534E+01  0.11374129460E+02  0.51100000000E-03 0. -1.
        -11    1    4    4    0    0 -0.74565536104E+01  0.92613467417E+01 -0.85559402058E+01  0.14648441838E+02  0.51100000000E-03 0.  1.
        -12    1    4    4    0    0 -0.20735417308E+02 -0.21269860725E+01 -0.62626149549E+01  0.21764694962E+02  0.00000000000E+00 0.  1.
</event>
<event>
 8    1  0.5542925E-011  0.9118800E+02  0.7816164E-02  0.1184000E+00
        -11   -1    0    0    0    0  0.00000000000E+00  0.00000000000E+00  0.45593999997E+02  0.45594000000E+02  0.51100000000E-03 0. -1.
         11   -1    0    0    0    0 -0.00000000000E+00 -0.00000000000E+00 -0.45593999997E+02  0.45594000000E+02  0.51100000000E-03 0.  1.
         23    2    1    2    0    0  0.00000000000E+00  0.00000000000E+00 -0.35527136788E-14  0.91188000000E+02  0.91188000000E+02 0.  0.
    9900012    2    3    3    0    0  0.16218938796E+02  0.28030725485E+02 -0.28893730737E+02  0.47787271633E+02  0.20000002683E+02 0.  0.
         12    1    3    3    0    0 -0.16218938796E+02 -0.28030725485E+02  0.28893730737E+02  0.43400728367E+02  0.00000000000E+00 0. -1.
         11    1    4    4    0    0  0.16090700835E+01  0.28283029478E+01 -0.68004294724E+01  0.75388490745E+01  0.51100000000E-03 0. -1.
        -11    1    4    4    0    0  0.12652635730E+02  0.73362575974E+01 -0.14931017255E+02  0.20900840724E+02  0.51100000000E-03 0.  1.
         12    1    4    4    0    0  0.19572329830E+01  0.17866164940E+02 -0.71622840098E+01  0.19347581834E+02  0.00000000000E+00 0. -1.
</event>
<event>
 8    1  0.5542925E-011  0.9118800E+02  0.7816164E-02  0.1184000E+00
        -11   -1    0    0    0    0  0.00000000000E+00  0.00000000000E+00  0.45593999997E+02  0.45594000000E+02  0.51100000000E-03 0. -1.
         11   -1    0    0    0    0 -0.00000000000E+00 -0.00000000000E+00 -0.45593999997E+02  0.45594000000E+02  0.51100000000E-03 0.  1.
         23    2    1    2    0    0  0.00000000000E+00  0.00000000000E+00  0.00000000000E+00  0.91188000000E+02  0.91188000000E+02 0.  0.
    9900012    2    3    3    0    0  0.18167775007E+02  0.19793123917E+02  0.34085004683E+02  0.47787270198E+02  0.19999996139E+02 0.  0.
        -12    1    3    3    0    0 -0.18167775007E+02 -0.19793123917E+02 -0.34085004683E+02  0.43400729802E+02  0.00000000000E+00 0.  1.
         11    1    4    4    0    0  0.11072627368E+02  0.78329199220E+01  0.82446787065E+01  0.15872379739E+02  0.51100000000E-03 0. -1.
        -11    1    4    4    0    0  0.58462080201E+01  0.70353361523E+01  0.49202303699E+01  0.10386663090E+02  0.51100000000E-03 0.  1.
         12    1    4    4    0    0  0.12489396190E+01  0.49248678429E+01  0.20920095607E+02  0.21528227369E+02  0.00000000000E+00 0. -1.
</event>
<event>
 8    1  0.5542925E-011  0.9118800E+02  0.7816164E-02  0.1184000E+00
        -11   -1    0    0    0    0  0.00000000000E+00  0.00000000000E+00  0.45593999997E+02  0.45594000000E+02  0.51100000000E-03 0. -1.
         11   -1    0    0    0    0 -0.00000000000E+00 -0.00000000000E+00 -0.45593999997E+02  0.45594000000E+02  0.51100000000E-03 0.  1.
         23    2    1    2    0    0 -0.17763568394E-14  0.00000000000E+00  0.71054273576E-14  0.91188000000E+02  0.91188000000E+02 0.  0.
    9900012    2    3    3    0    0 -0.11051637294E+02  0.99170260703E+01  0.40781588670E+02  0.47787261902E+02  0.19999958317E+02 0.  0.
        -12    1    3    3    0    0  0.11051637294E+02 -0.99170260703E+01 -0.40781588670E+02  0.43400738098E+02  0.00000000000E+00 0.  1.
         11    1    4    4    0    0 -0.77076562839E+01  0.38624170353E+01  0.45610580890E+01  0.97534343643E+01  0.51100000000E-03 0. -1.
        -11    1    4    4    0    0 -0.41715643261E+01 -0.59782336004E+00  0.81636500041E+01  0.91871934424E+01  0.51100000000E-03 0.  1.
        -12    1    4    4    0    0  0.82758331632E+00  0.66524323950E+01  0.28056880577E+02  0.28846634096E+02  0.00000000000E+00 0.  1.
</event>
<event>
 8    1  0.5542925E-011  0.9118800E+02  0.7816164E-02  0.1184000E+00
        -11   -1    0    0    0    0  0.00000000000E+00  0.00000000000E+00  0.45593999997E+02  0.45594000000E+02  0.51100000000E-03 0.  1.
         11   -1    0    0    0    0 -0.00000000000E+00 -0.00000000000E+00 -0.45593999997E+02  0.45594000000E+02  0.51100000000E-03 0. -1.
         23    2    1    2    0    0  0.00000000000E+00  0.00000000000E+00 -0.35527136788E-14  0.91188000000E+02  0.91188000000E+02 0.  0.
    9900012    2    3    3    0    0  0.12662899866E+02  0.31344109562E+02 -0.27218023407E+02  0.47787273791E+02  0.20000012523E+02 0.  0.
         12    1    3    3    0    0 -0.12662899866E+02 -0.31344109562E+02  0.27218023407E+02  0.43400726209E+02  0.00000000000E+00 0. -1.
         11    1    4    4    0    0  0.62759253111E+00  0.49235710108E+01 -0.44279114299E+01  0.66514527568E+01  0.51100000000E-03 0. -1.
        -11    1    4    4    0    0  0.13718196747E+02  0.26263571688E+02 -0.15088584134E+02  0.33251007372E+02  0.51100000000E-03 0.  1.
         12    1    4    4    0    0 -0.16828894122E+01  0.15696686319E+00 -0.77015278432E+01  0.78848136623E+01  0.00000000000E+00 0. -1.
</event>
<event>
 8    1  0.5542925E-011  0.9118800E+02  0.7816164E-02  0.1184000E+00
        -11   -1    0    0    0    0  0.00000000000E+00  0.00000000000E+00  0.45593999997E+02  0.45594000000E+02  0.51100000000E-03 0. -1.
         11   -1    0    0    0    0 -0.00000000000E+00 -0.00000000000E+00 -0.45593999997E+02  0.45594000000E+02  0.51100000000E-03 0.  1.
         23    2    1    2    0    0  0.00000000000E+00  0.44408920985E-15  0.35527136788E-14  0.91188000000E+02  0.91188000000E+02 0.  0.
    9900012    2    3    3    0    0 -0.38803321429E+02  0.27437972375E+01 -0.19245709789E+02  0.47787268180E+02  0.19999986941E+02 0.  0.
         12    1    3    3    0    0  0.38803321429E+02 -0.27437972375E+01  0.19245709789E+02  0.43400731820E+02  0.00000000000E+00 0. -1.
         11    1    4    4    0    0  0.14618904160E+00  0.72139164375E+00 -0.38954989219E+01  0.39644279854E+01  0.51100000000E-03 0. -1.
        -11    1    4    4    0    0 -0.89103384385E+01 -0.42235747474E+01 -0.87922126108E+00  0.98997850998E+01  0.51100000000E-03 0.  1.
        -12    1    4    4    0    0 -0.30039172032E+02  0.62459803411E+01 -0.14470989606E+02  0.33923055095E+02  0.00000000000E+00 0.  1.
</event>
<event>
 8    1  0.5542925E-011  0.9118800E+02  0.7816164E-02  0.1184000E+00
        -11   -1    0    0    0    0  0.00000000000E+00  0.00000000000E+00  0.45593999997E+02  0.45594000000E+02  0.51100000000E-03 0. -1.
         11   -1    0    0    0    0 -0.00000000000E+00 -0.00000000000E+00 -0.45593999997E+02  0.45594000000E+02  0.51100000000E-03 0.  1.
         23    2    1    2    0    0 -0.11102230246E-14  0.00000000000E+00  0.00000000000E+00  0.91188000000E+02  0.91188000000E+02 0.  0.
    9900012    2    3    3    0    0 -0.95244398803E+00 -0.37857370961E+02  0.21202219426E+02  0.47787288091E+02  0.20000077721E+02 0.  0.
        -12    1    3    3    0    0  0.95244398803E+00  0.37857370961E+02 -0.21202219426E+02  0.43400711909E+02  0.00000000000E+00 0.  1.
         11    1    4    4    0    0 -0.40391309721E+01 -0.18187732498E+02  0.14535729287E+01  0.18687457477E+02  0.51100000000E-03 0.  1.
        -11    1    4    4    0    0 -0.24155130295E+01 -0.93846840275E+01  0.83709164786E+01  0.12805437925E+02  0.51100000000E-03 0. -1.
        -12    1    4    4    0    0  0.55022000135E+01 -0.10284954435E+02  0.11377730019E+02  0.16294392689E+02  0.00000000000E+00 0.  1.
</event>
<event>
 8    1  0.5542925E-011  0.9118800E+02  0.7816164E-02  0.1184000E+00
        -11   -1    0    0    0    0  0.00000000000E+00  0.00000000000E+00  0.45593999997E+02  0.45594000000E+02  0.51100000000E-03 0. -1.
         11   -1    0    0    0    0 -0.00000000000E+00 -0.00000000000E+00 -0.45593999997E+02  0.45594000000E+02  0.51100000000E-03 0.  1.
         23    2    1    2    0    0  0.00000000000E+00  0.00000000000E+00 -0.88817841970E-15  0.91188000000E+02  0.91188000000E+02 0.  0.
    9900012    2    3    3    0    0  0.23247263804E+02 -0.35944100081E+02 -0.71560842930E+01  0.47787272502E+02  0.20000006643E+02 0.  0.
         12    1    3    3    0    0 -0.23247263804E+02  0.35944100081E+02  0.71560842930E+01  0.43400727498E+02  0.00000000000E+00 0. -1.
         11    1    4    4    0    0  0.11206137522E+02 -0.14697828528E+02 -0.36132400399E+01  0.18832397231E+02  0.51100000000E-03 0. -1.
        -11    1    4    4    0    0  0.14194463866E+02 -0.22117775333E+02 -0.24715170975E+01  0.26396726826E+02  0.51100000000E-03 0.  1.
         12    1    4    4    0    0 -0.21533375841E+01  0.87150378022E+00 -0.10713271556E+01  0.25581484446E+01  0.00000000000E+00 0. -1.
</event>
<event>
 8    1  0.5542925E-011  0.9118800E+02  0.7816164E-02  0.1184000E+00
        -11   -1    0    0    0    0  0.00000000000E+00  0.00000000000E+00  0.45593999997E+02  0.45594000000E+02  0.51100000000E-03 0.  1.
         11   -1    0    0    0    0 -0.00000000000E+00 -0.00000000000E+00 -0.45593999997E+02  0.45594000000E+02  0.51100000000E-03 0. -1.
         23    2    1    2    0    0  0.00000000000E+00 -0.71054273576E-14  0.66613381478E-15  0.91188000000E+02  0.91188000000E+02 0.  0.
    9900012    2    3    3    0    0 -0.10406906205E+02  0.42100606222E+02 -0.16908263814E+01  0.47787266886E+02  0.19999981039E+02 0.  0.
        -12    1    3    3    0    0  0.10406906205E+02 -0.42100606222E+02  0.16908263814E+01  0.43400733114E+02  0.00000000000E+00 0.  1.
         11    1    4    4    0    0  0.22783315017E+01  0.15107060889E+01 -0.18667005491E+01  0.33102263547E+01  0.51100000000E-03 0. -1.
        -11    1    4    4    0    0  0.10516850662E+01  0.13764971434E+02 -0.31394210237E+01  0.14157557864E+02  0.51100000000E-03 0.  1.
        -12    1    4    4    0    0 -0.13736922773E+02  0.26824928699E+02  0.33152951914E+01  0.30319482667E+02  0.00000000000E+00 0.  1.
</event>
<event>
 8    1  0.5542925E-011  0.9118800E+02  0.7816164E-02  0.1184000E+00
        -11   -1    0    0    0    0  0.00000000000E+00  0.00000000000E+00  0.45593999997E+02  0.45594000000E+02  0.51100000000E-03 0. -1.
         11   -1    0    0    0    0 -0.00000000000E+00 -0.00000000000E+00 -0.45593999997E+02  0.45594000000E+02  0.51100000000E-03 0.  1.
         23    2    1    2    0    0  0.00000000000E+00  0.00000000000E+00 -0.19428902931E-15  0.91188000000E+02  0.91188000000E+02 0.  0.
    9900012    2    3    3    0    0 -0.41449527605E+02 -0.12866140200E+02  0.15614692747E+00  0.47787247884E+02  0.19999894404E+02 0.  0.
        -12    1    3    3    0    0  0.41449527605E+02  0.12866140200E+02 -0.15614692747E+00  0.43400752116E+02  0.00000000000E+00 0.  1.
         11    1    4    4    0    0  0.87326007750E+00  0.81647265206E+00  0.24802007112E+01  0.27532901379E+01  0.51100000000E-03 0. -1.
        -11    1    4    4    0    0 -0.12200850639E+01  0.27428947103E-01 -0.11685091236E+01  0.16896075708E+01  0.51100000000E-03 0.  1.
         12    1    4    4    0    0 -0.41102702619E+02 -0.13710041799E+02 -0.11555446601E+01  0.43344350176E+02  0.00000000000E+00 0. -1.
</event>
<event>
 8    1  0.5542925E-011  0.9118800E+02  0.7816164E-02  0.1184000E+00
        -11   -1    0    0    0    0  0.00000000000E+00  0.00000000000E+00  0.45593999997E+02  0.45594000000E+02  0.51100000000E-03 0. -1.
         11   -1    0    0    0    0 -0.00000000000E+00 -0.00000000000E+00 -0.45593999997E+02  0.45594000000E+02  0.51100000000E-03 0.  1.
         23    2    1    2    0    0  0.00000000000E+00  0.00000000000E+00  0.00000000000E+00  0.91188000000E+02  0.91188000000E+02 0.  0.
    9900012    2    3    3    0    0  0.95290952256E+01 -0.30660224384E+02 -0.29202235289E+02  0.47787267737E+02  0.19999984920E+02 0.  0.
         12    1    3    3    0    0 -0.95290952256E+01  0.30660224384E+02  0.29202235289E+02  0.43400732263E+02  0.00000000000E+00 0. -1.
         11    1    4    4    0    0  0.19326291463E+00 -0.16590826754E+02 -0.38857162885E+01  0.17040882438E+02  0.51100000000E-03 0.  1.
        -11    1    4    4    0    0 -0.67226103425E-01 -0.23324827509E+01 -0.44555785776E+01  0.50296297930E+01  0.51100000000E-03 0. -1.
         12    1    4    4    0    0  0.94030584144E+01 -0.11736914880E+02 -0.20860940423E+02  0.25716755506E+02  0.00000000000E+00 0. -1.
</event>
<event>
 8    1  0.5542925E-011  0.9118800E+02  0.7816164E-02  0.1184000E+00
        -11   -1    0    0    0    0  0.00000000000E+00  0.00000000000E+00  0.45593999997E+02  0.45594000000E+02  0.51100000000E-03 0. -1.
         11   -1    0    0    0    0 -0.00000000000E+00 -0.00000000000E+00 -0.45593999997E+02  0.45594000000E+02  0.51100000000E-03 0.  1.
         23    2    1    2    0    0  0.00000000000E+00  0.44408920985E-15  0.00000000000E+00  0.91188000000E+02  0.91188000000E+02 0.  0.
    9900012    2    3    3    0    0 -0.49102898794E+01 -0.33557748982E+00  0.43120745131E+02  0.47787283191E+02  0.20000055379E+02 0.  0.
        -12    1    3    3    0    0  0.49102898794E+01  0.33557748982E+00 -0.43120745131E+02  0.43400716809E+02  0.00000000000E+00 0.  1.
         11    1    4    4    0    0  0.20860942420E+01 -0.44316420286E+01  0.27402330033E+02  0.27836647280E+02  0.51100000000E-03 0. -1.
        -11    1    4    4    0    0 -0.15425905613E+01 -0.29588439599E+01  0.36523796886E+01  0.49471426975E+01  0.51100000000E-03 0.  1.
        -12    1    4    4    0    0 -0.54537935601E+01  0.70549084987E+01  0.12066035409E+02  0.15003493213E+02  0.00000000000E+00 0.  1.
</event>
<event>
 8    1  0.5542925E-011  0.9118800E+02  0.7816164E-02  0.1184000E+00
        -11   -1    0    0    0    0  0.00000000000E+00  0.00000000000E+00  0.45593999997E+02  0.45594000000E+02  0.51100000000E-03 0.  1.
         11   -1    0    0    0    0 -0.00000000000E+00 -0.00000000000E+00 -0.45593999997E+02  0.45594000000E+02  0.51100000000E-03 0. -1.
         23    2    1    2    0    0 -0.35527136788E-14  0.35527136788E-14  0.00000000000E+00  0.91188000000E+02  0.91188000000E+02 0.  0.
    9900012    2    3    3    0    0  0.29377013144E+02 -0.24901472969E+02 -0.20013274360E+02  0.47787269501E+02  0.19999992962E+02 0.  0.
         12    1    3    3    0    0 -0.29377013144E+02  0.24901472969E+02  0.20013274360E+02  0.43400730499E+02  0.00000000000E+00 0. -1.
         11    1    4    4    0    0  0.51225974339E+01 -0.68784054722E+01 -0.11960322115E+02  0.14717430878E+02  0.51100000000E-03 0.  1.
        -11    1    4    4    0    0  0.12462212355E+02 -0.11924180550E+02 -0.95404855166E+01  0.19710750436E+02  0.51100000000E-03 0. -1.
        -12    1    4    4    0    0  0.11792203355E+02 -0.60988869462E+01  0.14875332716E+01  0.13359088187E+02  0.00000000000E+00 0.  1.
</event>
<event>
 8    1  0.5542925E-011  0.9118800E+02  0.7816164E-02  0.1184000E+00
        -11   -1    0    0    0    0  0.00000000000E+00  0.00000000000E+00  0.45593999997E+02  0.45594000000E+02  0.51100000000E-03 0.  1.
         11   -1    0    0    0    0 -0.00000000000E+00 -0.00000000000E+00 -0.45593999997E+02  0.45594000000E+02  0.51100000000E-03 0. -1.
         23    2    1    2    0    0  0.00000000000E+00  0.35527136788E-14  0.00000000000E+00  0.91188000000E+02  0.91188000000E+02 0.  0.
    9900012    2    3    3    0    0  0.34290887483E+02  0.26468023904E+02  0.26836293787E+01  0.47787272813E+02  0.20000008062E+02 0.  0.
        -12    1    3    3    0    0 -0.34290887483E+02 -0.26468023904E+02 -0.26836293787E+01  0.43400727187E+02  0.00000000000E+00 0.  1.
         11    1    4    4    0    0  0.45832430996E+00  0.47804845730E+01  0.23067195104E+01  0.53276682598E+01  0.51100000000E-03 0. -1.
        -11    1    4    4    0    0  0.79920575048E+01  0.12039279851E+02 -0.27167749690E+01  0.14703676716E+02  0.51100000000E-03 0.  1.
         12    1    4    4    0    0  0.25840505668E+02  0.96482594803E+01  0.30936848373E+01  0.27755927836E+02  0.00000000000E+00 0. -1.
</event>
<event>
 8    1  0.5542925E-011  0.9118800E+02  0.7816164E-02  0.1184000E+00
        -11   -1    0    0    0    0  0.00000000000E+00  0.00000000000E+00  0.45593999997E+02  0.45594000000E+02  0.51100000000E-03 0. -1.
         11   -1    0    0    0    0 -0.00000000000E+00 -0.00000000000E+00 -0.45593999997E+02  0.45594000000E+02  0.51100000000E-03 0.  1.
         23    2    1    2    0    0  0.00000000000E+00  0.00000000000E+00 -0.44408920985E-15  0.91188000000E+02  0.91188000000E+02 0.  0.
    9900012    2    3    3    0    0  0.14886436497E+02  0.40638803651E+02 -0.32410802970E+01  0.47787274715E+02  0.20000016736E+02 0.  0.
        -12    1    3    3    0    0 -0.14886436497E+02 -0.40638803651E+02  0.32410802970E+01  0.43400725285E+02  0.00000000000E+00 0.  1.
         11    1    4    4    0    0  0.13819379957E+02  0.22475395063E+02 -0.23734631355E+00  0.26385127993E+02  0.51100000000E-03 0. -1.
        -11    1    4    4    0    0  0.56774357848E+01  0.12225912999E+02 -0.33040702828E+01  0.13878872665E+02  0.51100000000E-03 0.  1.
        -12    1    4    4    0    0 -0.46103792453E+01  0.59374955883E+01  0.30033629934E+00  0.75232740572E+01  0.00000000000E+00 0.  1.
</event>
<event>
 8    1  0.5542925E-011  0.9118800E+02  0.7816164E-02  0.1184000E+00
        -11   -1    0    0    0    0  0.00000000000E+00  0.00000000000E+00  0.45593999997E+02  0.45594000000E+02  0.51100000000E-03 0. -1.
         11   -1    0    0    0    0 -0.00000000000E+00 -0.00000000000E+00 -0.45593999997E+02  0.45594000000E+02  0.51100000000E-03 0.  1.
         23    2    1    2    0    0  0.00000000000E+00  0.71054273576E-14  0.35527136788E-14  0.91188000000E+02  0.91188000000E+02 0.  0.
    9900012    2    3    3    0    0  0.85698897274E+01 -0.29186507526E+02  0.30956866751E+02  0.47787276152E+02  0.20000023285E+02 0.  0.
        -12    1    3    3    0    0 -0.85698897274E+01  0.29186507526E+02 -0.30956866751E+02  0.43400723848E+02  0.00000000000E+00 0.  1.
         11    1    4    4    0    0  0.87294854418E+01 -0.97868704622E+01  0.17301582637E+02  0.21710170693E+02  0.51100000000E-03 0. -1.
        -11    1    4    4    0    0  0.47781540573E+01 -0.86478864056E+01  0.34894767839E+01  0.10478222367E+02  0.51100000000E-03 0.  1.
         12    1    4    4    0    0 -0.49377497716E+01 -0.10751750658E+02  0.10165807330E+02  0.15598883091E+02  0.00000000000E+00 0. -1.
</event>
<event>
 8    1  0.5542925E-011  0.9118800E+02  0.7816164E-02  0.1184000E+00
        -11   -1    0    0    0    0  0.00000000000E+00  0.00000000000E+00  0.45593999997E+02  0.45594000000E+02  0.51100000000E-03 0. -1.
         11   -1    0    0    0    0 -0.00000000000E+00 -0.00000000000E+00 -0.45593999997E+02  0.45594000000E+02  0.51100000000E-03 0.  1.
         23    2    1    2    0    0  0.00000000000E+00  0.00000000000E+00  0.00000000000E+00  0.91188000000E+02  0.91188000000E+02 0.  0.
    9900012    2    3    3    0    0  0.91418306619E+01  0.34328290122E+02 -0.24932283764E+02  0.47787270234E+02  0.19999996303E+02 0.  0.
         12    1    3    3    0    0 -0.91418306619E+01 -0.34328290122E+02  0.24932283764E+02  0.43400729766E+02  0.00000000000E+00 0. -1.
         11    1    4    4    0    0 -0.21843437257E+01  0.43643329439E+01 -0.48047557651E+00  0.49040408439E+01  0.51100000000E-03 0. -1.
        -11    1    4    4    0    0  0.12850224029E+01 -0.14191561846E+01 -0.30214573670E+01  0.35769388776E+01  0.51100000000E-03 0.  1.
        -12    1    4    4    0    0  0.10041151985E+02  0.31383113363E+02 -0.21430350821E+02  0.39306290512E+02  0.00000000000E+00 0.  1.
</event>
<event>
 8    1  0.5542925E-011  0.9118800E+02  0.7816164E-02  0.1184000E+00
        -11   -1    0    0    0    0  0.00000000000E+00  0.00000000000E+00  0.45593999997E+02  0.45594000000E+02  0.51100000000E-03 0. -1.
         11   -1    0    0    0    0 -0.00000000000E+00 -0.00000000000E+00 -0.45593999997E+02  0.45594000000E+02  0.51100000000E-03 0.  1.
         23    2    1    2    0    0  0.00000000000E+00 -0.35527136788E-14  0.00000000000E+00  0.91188000000E+02  0.91188000000E+02 0.  0.
    9900012    2    3    3    0    0 -0.31763584156E+02 -0.27090665287E+02  0.11865658418E+02  0.47787271045E+02  0.20000000003E+02 0.  0.
        -12    1    3    3    0    0  0.31763584156E+02  0.27090665287E+02 -0.11865658418E+02  0.43400728955E+02  0.00000000000E+00 0.  1.
         11    1    4    4    0    0 -0.23213708171E+02 -0.16443129522E+02  0.13614503492E+02  0.31537397818E+02  0.51100000000E-03 0. -1.
        -11    1    4    4    0    0 -0.98663726786E+01 -0.77457515292E+01  0.14243231289E+00  0.12544411657E+02  0.51100000000E-03 0.  1.
         12    1    4    4    0    0  0.13164966936E+01 -0.29017842355E+01 -0.18912773870E+01  0.37054615703E+01  0.00000000000E+00 0. -1.
</event>
<event>
 8    1  0.5542925E-011  0.9118800E+02  0.7816164E-02  0.1184000E+00
        -11   -1    0    0    0    0  0.00000000000E+00  0.00000000000E+00  0.45593999997E+02  0.45594000000E+02  0.51100000000E-03 0. -1.
         11   -1    0    0    0    0 -0.00000000000E+00 -0.00000000000E+00 -0.45593999997E+02  0.45594000000E+02  0.51100000000E-03 0.  1.
         23    2    1    2    0    0  0.00000000000E+00 -0.11102230246E-14  0.00000000000E+00  0.91188000000E+02  0.91188000000E+02 0.  0.
    9900012    2    3    3    0    0 -0.50147089478E+01 -0.13317195025E+01 -0.43089472733E+02  0.47787269095E+02  0.19999991111E+02 0.  0.
         12    1    3    3    0    0  0.50147089478E+01  0.13317195025E+01  0.43089472733E+02  0.43400730905E+02  0.00000000000E+00 0. -1.
         11    1    4    4    0    0 -0.30297877599E+01  0.34240715157E+01 -0.10249700105E+02  0.11223200618E+02  0.51100000000E-03 0. -1.
        -11    1    4    4    0    0 -0.40474212095E+01  0.43206388319E+01 -0.74113121459E+01  0.94856252481E+01  0.51100000000E-03 0.  1.
        -12    1    4    4    0    0  0.20625000215E+01 -0.90764298501E+01 -0.25428460482E+02  0.27078443228E+02  0.00000000000E+00 0.  1.
</event>
<event>
 8    1  0.5542925E-011  0.9118800E+02  0.7816164E-02  0.1184000E+00
        -11   -1    0    0    0    0  0.00000000000E+00  0.00000000000E+00  0.45593999997E+02  0.45594000000E+02  0.51100000000E-03 0. -1.
         11   -1    0    0    0    0 -0.00000000000E+00 -0.00000000000E+00 -0.45593999997E+02  0.45594000000E+02  0.51100000000E-03 0.  1.
         23    2    1    2    0    0  0.00000000000E+00 -0.44408920985E-15  0.00000000000E+00  0.91188000000E+02  0.91188000000E+02 0.  0.
    9900012    2    3    3    0    0 -0.35805690753E+02  0.20295228814E+01  0.24442925176E+02  0.47787273686E+02  0.20000012045E+02 0.  0.
        -12    1    3    3    0    0  0.35805690753E+02 -0.20295228814E+01 -0.24442925176E+02  0.43400726314E+02  0.00000000000E+00 0.  1.
         11    1    4    4    0    0 -0.22225296419E+02 -0.25989842833E+01  0.18844643167E+02  0.29254727764E+02  0.51100000000E-03 0. -1.
        -11    1    4    4    0    0 -0.46285575019E+01 -0.30088065346E+01  0.44595619653E-01  0.55207291495E+01  0.51100000000E-03 0.  1.
         12    1    4    4    0    0 -0.89518368316E+01  0.76373136993E+01  0.55536863896E+01  0.13011816772E+02  0.00000000000E+00 0. -1.
</event>
<event>
 8    1  0.5542925E-011  0.9118800E+02  0.7816164E-02  0.1184000E+00
        -11   -1    0    0    0    0  0.00000000000E+00  0.00000000000E+00  0.45593999997E+02  0.45594000000E+02  0.51100000000E-03 0. -1.
         11   -1    0    0    0    0 -0.00000000000E+00 -0.00000000000E+00 -0.45593999997E+02  0.45594000000E+02  0.51100000000E-03 0.  1.
         23    2    1    2    0    0  0.00000000000E+00  0.00000000000E+00  0.71054273576E-14  0.91188000000E+02  0.91188000000E+02 0.  0.
    9900012    2    3    3    0    0  0.15059267355E+02  0.56040997461E+01  0.40316692768E+02  0.47787272091E+02  0.20000004772E+02 0.  0.
        -12    1    3    3    0    0 -0.15059267355E+02 -0.56040997461E+01 -0.40316692768E+02  0.43400727909E+02  0.00000000000E+00 0.  1.
         11    1    4    4    0    0  0.40202122368E+01 -0.22203954464E+01  0.23668798850E+02  0.24110253040E+02  0.51100000000E-03 0. -1.
        -11    1    4    4    0    0  0.71663303973E+01  0.24051516929E+01  0.15027897262E+02  0.16821972013E+02  0.51100000000E-03 0.  1.
        -12    1    4    4    0    0  0.38727247213E+01  0.54193434996E+01  0.16199966562E+01  0.68550470385E+01  0.00000000000E+00 0.  1.
</event>
<event>
 8    1  0.5542925E-011  0.9118800E+02  0.7816164E-02  0.1184000E+00
        -11   -1    0    0    0    0  0.00000000000E+00  0.00000000000E+00  0.45593999997E+02  0.45594000000E+02  0.51100000000E-03 0.  1.
         11   -1    0    0    0    0 -0.00000000000E+00 -0.00000000000E+00 -0.45593999997E+02  0.45594000000E+02  0.51100000000E-03 0. -1.
         23    2    1    2    0    0 -0.71054273576E-14 -0.35527136788E-14  0.17763568394E-14  0.91188000000E+02  0.91188000000E+02 0.  0.
    9900012    2    3    3    0    0  0.35221766078E+02  0.20821891116E+02 -0.14474094927E+02  0.47787269830E+02  0.19999994464E+02 0.  0.
         12    1    3    3    0    0 -0.35221766078E+02 -0.20821891116E+02  0.14474094927E+02  0.43400730170E+02  0.00000000000E+00 0. -1.
         11    1    4    4    0    0  0.17402002561E+02  0.16968659449E+01 -0.11129457681E+02  0.20726164037E+02  0.51100000000E-03 0. -1.
        -11    1    4    4    0    0  0.18029105627E+01  0.13042171308E+01  0.14083500438E+01  0.26334234237E+01  0.51100000000E-03 0.  1.
         12    1    4    4    0    0  0.16016852955E+02  0.17820808040E+02 -0.47529872898E+01  0.24427682370E+02  0.00000000000E+00 0. -1.
</event>
<event>
 8    1  0.5542925E-011  0.9118800E+02  0.7816164E-02  0.1184000E+00
        -11   -1    0    0    0    0  0.00000000000E+00  0.00000000000E+00  0.45593999997E+02  0.45594000000E+02  0.51100000000E-03 0. -1.
         11   -1    0    0    0    0 -0.00000000000E+00 -0.00000000000E+00 -0.45593999997E+02  0.45594000000E+02  0.51100000000E-03 0.  1.
         23    2    1    2    0    0  0.88817841970E-15  0.17763568394E-14  0.71054273576E-14  0.91188000000E+02  0.91188000000E+02 0.  0.
    9900012    2    3    3    0    0 -0.30832592113E+01 -0.10313844841E+02  0.42044517515E+02  0.47787270331E+02  0.19999996746E+02 0.  0.
        -12    1    3    3    0    0  0.30832592113E+01  0.10313844841E+02 -0.42044517515E+02  0.43400729669E+02  0.00000000000E+00 0.  1.
         11    1    4    4    0    0  0.49474159014E+01 -0.13986965454E+01  0.22091440851E+02  0.22681821692E+02  0.51100000000E-03 0. -1.
        -11    1    4    4    0    0 -0.39163489811E+00  0.35529645922E+00 -0.89776220110E+00  0.10419168384E+01  0.51100000000E-03 0.  1.
        -12    1    4    4    0    0 -0.76390402146E+01 -0.92704447544E+01  0.20850838865E+02  0.24063531801E+02  0.00000000000E+00 0.  1.
</event>
<event>
 8    1  0.5542925E-011  0.9118800E+02  0.7816164E-02  0.1184000E+00
        -11   -1    0    0    0    0  0.00000000000E+00  0.00000000000E+00  0.45593999997E+02  0.45594000000E+02  0.51100000000E-03 0. -1.
         11   -1    0    0    0    0 -0.00000000000E+00 -0.00000000000E+00 -0.45593999997E+02  0.45594000000E+02  0.51100000000E-03 0.  1.
         23    2    1    2    0    0  0.17763568394E-14  0.00000000000E+00  0.00000000000E+00  0.91188000000E+02  0.91188000000E+02 0.  0.
    9900012    2    3    3    0    0 -0.12046108711E+02  0.15430021732E+02  0.38735369801E+02  0.47787272133E+02  0.20000004963E+02 0.  0.
        -12    1    3    3    0    0  0.12046108711E+02 -0.15430021732E+02 -0.38735369801E+02  0.43400727867E+02  0.00000000000E+00 0.  1.
         11    1    4    4    0    0 -0.92563070654E-01  0.59713265546E+00  0.77795550267E+01  0.78029873769E+01  0.51100000000E-03 0. -1.
        -11    1    4    4    0    0 -0.16085571643E+02  0.13166715498E+02  0.26536125915E+02  0.33708663440E+02  0.51100000000E-03 0.  1.
        -12    1    4    4    0    0  0.41320260028E+01  0.16661735785E+01  0.44196888602E+01  0.62756213160E+01  0.00000000000E+00 0.  1.
</event>
<event>
 8    1  0.5542925E-011  0.9118800E+02  0.7816164E-02  0.1184000E+00
        -11   -1    0    0    0    0  0.00000000000E+00  0.00000000000E+00  0.45593999997E+02  0.45594000000E+02  0.51100000000E-03 0. -1.
         11   -1    0    0    0    0 -0.00000000000E+00 -0.00000000000E+00 -0.45593999997E+02  0.45594000000E+02  0.51100000000E-03 0.  1.
         23    2    1    2    0    0  0.35527136788E-14 -0.35527136788E-14  0.00000000000E+00  0.91188000000E+02  0.91188000000E+02 0.  0.
    9900012    2    3    3    0    0 -0.25871328848E+02  0.28382962201E+02  0.20216459005E+02  0.47787269425E+02  0.19999992618E+02 0.  0.
        -12    1    3    3    0    0  0.25871328848E+02 -0.28382962201E+02 -0.20216459005E+02  0.43400730575E+02  0.00000000000E+00 0.  1.
         11    1    4    4    0    0 -0.99862987614E+01  0.76496810593E+01  0.85446438603E+01  0.15207061591E+02  0.51100000000E-03 0. -1.
        -11    1    4    4    0    0 -0.81493559320E+01  0.21035575796E+02  0.99153660659E+01  0.24641873623E+02  0.51100000000E-03 0.  1.
        -12    1    4    4    0    0 -0.77356741547E+01 -0.30229465406E+00  0.17564490791E+01  0.79383342115E+01  0.00000000000E+00 0.  1.
</event>
<event>
 8    1  0.5542925E-011  0.9118800E+02  0.7816164E-02  0.1184000E+00
        -11   -1    0    0    0    0  0.00000000000E+00  0.00000000000E+00  0.45593999997E+02  0.45594000000E+02  0.51100000000E-03 0. -1.
         11   -1    0    0    0    0 -0.00000000000E+00 -0.00000000000E+00 -0.45593999997E+02  0.45594000000E+02  0.51100000000E-03 0.  1.
         23    2    1    2    0    0  0.35527136788E-14  0.00000000000E+00  0.00000000000E+00  0.91188000000E+02  0.91188000000E+02 0.  0.
    9900012    2    3    3    0    0  0.24523547764E+02  0.16288984119E+02 -0.31888692374E+02  0.47787261528E+02  0.19999956612E+02 0.  0.
         12    1    3    3    0    0 -0.24523547764E+02 -0.16288984119E+02  0.31888692374E+02  0.43400738472E+02  0.00000000000E+00 0. -1.
         11    1    4    4    0    0  0.66313066065E+01  0.17821998737E+01 -0.16451612708E+02  0.17827114872E+02  0.51100000000E-03 0. -1.
        -11    1    4    4    0    0  0.14474132670E+02  0.76629692017E+01 -0.15141672417E+02  0.22304525491E+02  0.51100000000E-03 0.  1.
         12    1    4    4    0    0  0.34181084874E+01  0.68438150435E+01 -0.29540724864E+00  0.76556211651E+01  0.00000000000E+00 0. -1.
</event>
<event>
 8    1  0.5542925E-011  0.9118800E+02  0.7816164E-02  0.1184000E+00
        -11   -1    0    0    0    0  0.00000000000E+00  0.00000000000E+00  0.45593999997E+02  0.45594000000E+02  0.51100000000E-03 0. -1.
         11   -1    0    0    0    0 -0.00000000000E+00 -0.00000000000E+00 -0.45593999997E+02  0.45594000000E+02  0.51100000000E-03 0.  1.
         23    2    1    2    0    0  0.00000000000E+00  0.00000000000E+00  0.00000000000E+00  0.91188000000E+02  0.91188000000E+02 0.  0.
    9900012    2    3    3    0    0 -0.12506902699E+02  0.32115078295E+02 -0.26378446314E+02  0.47787270755E+02  0.19999998680E+02 0.  0.
         12    1    3    3    0    0  0.12506902699E+02 -0.32115078295E+02  0.26378446314E+02  0.43400729245E+02  0.00000000000E+00 0. -1.
         11    1    4    4    0    0 -0.99709666200E+00 -0.11579894100E+01  0.67895864442E-01  0.15296245737E+01  0.51100000000E-03 0. -1.
        -11    1    4    4    0    0 -0.41265395511E+01  0.10520143539E+02 -0.10181186143E+01  0.11346290783E+02  0.51100000000E-03 0.  1.
        -12    1    4    4    0    0 -0.73832664862E+01  0.22752924166E+02 -0.25428223564E+02  0.34911355399E+02  0.00000000000E+00 0.  1.
</event>
<event>
 8    1  0.5542925E-011  0.9118800E+02  0.7816164E-02  0.1184000E+00
        -11   -1    0    0    0    0  0.00000000000E+00  0.00000000000E+00  0.45593999997E+02  0.45594000000E+02  0.51100000000E-03 0. -1.
         11   -1    0    0    0    0 -0.00000000000E+00 -0.00000000000E+00 -0.45593999997E+02  0.45594000000E+02  0.51100000000E-03 0.  1.
         23    2    1    2    0    0 -0.35527136788E-14  0.00000000000E+00  0.00000000000E+00  0.91188000000E+02  0.91188000000E+02 0.  0.
    9900012    2    3    3    0    0  0.27089973948E+02 -0.32982931233E+02 -0.78665858583E+01  0.47787267123E+02  0.19999982122E+02 0.  0.
         12    1    3    3    0    0 -0.27089973948E+02  0.32982931233E+02  0.78665858583E+01  0.43400732877E+02  0.00000000000E+00 0. -1.
         11    1    4    4    0    0  0.11458881659E+02 -0.37644800657E+01 -0.32868411713E+01  0.12501224108E+02  0.51100000000E-03 0. -1.
        -11    1    4    4    0    0  0.11224309525E+02 -0.14375520298E+02 -0.71518759036E+01  0.19590559904E+02  0.51100000000E-03 0.  1.
         12    1    4    4    0    0  0.44067827629E+01 -0.14842930869E+02  0.25721312165E+01  0.15695483111E+02  0.00000000000E+00 0. -1.
</event>
<event>
 8    1  0.5542925E-011  0.9118800E+02  0.7816164E-02  0.1184000E+00
        -11   -1    0    0    0    0  0.00000000000E+00  0.00000000000E+00  0.45593999997E+02  0.45594000000E+02  0.51100000000E-03 0.  1.
         11   -1    0    0    0    0 -0.00000000000E+00 -0.00000000000E+00 -0.45593999997E+02  0.45594000000E+02  0.51100000000E-03 0. -1.
         23    2    1    2    0    0  0.00000000000E+00  0.26367796835E-15  0.00000000000E+00  0.91188000000E+02  0.91188000000E+02 0.  0.
    9900012    2    3    3    0    0  0.39935909582E+02  0.12473640993E+00 -0.16992092299E+02  0.47787266896E+02  0.19999981084E+02 0.  0.
         12    1    3    3    0    0 -0.39935909582E+02 -0.12473640993E+00  0.16992092299E+02  0.43400733104E+02  0.00000000000E+00 0. -1.
         11    1    4    4    0    0  0.37071511024E+02  0.96347408439E+00 -0.13979088742E+02  0.39631302455E+02  0.51100000000E-03 0. -1.
        -11    1    4    4    0    0  0.35238734552E+01  0.20220518549E+01 -0.32610517807E+01  0.52096868246E+01  0.51100000000E-03 0.  1.
         12    1    4    4    0    0 -0.65947489721E+00 -0.28607895293E+01  0.24804822463E+00  0.29462776164E+01  0.00000000000E+00 0. -1.
</event>
<event>
 8    1  0.5542925E-011  0.9118800E+02  0.7816164E-02  0.1184000E+00
        -11   -1    0    0    0    0  0.00000000000E+00  0.00000000000E+00  0.45593999997E+02  0.45594000000E+02  0.51100000000E-03 0.  1.
         11   -1    0    0    0    0 -0.00000000000E+00 -0.00000000000E+00 -0.45593999997E+02  0.45594000000E+02  0.51100000000E-03 0. -1.
         23    2    1    2    0    0 -0.17763568394E-14 -0.35527136788E-14  0.00000000000E+00  0.91188000000E+02  0.91188000000E+02 0.  0.
    9900012    2    3    3    0    0 -0.87666813667E+01  0.27801453412E+02  0.32153501167E+02  0.47787272456E+02  0.20000006438E+02 0.  0.
        -12    1    3    3    0    0  0.87666813667E+01 -0.27801453412E+02 -0.32153501167E+02  0.43400727544E+02  0.00000000000E+00 0.  1.
         11    1    4    4    0    0  0.18055516963E+01  0.15887397881E+00  0.27229062695E+01  0.32710054544E+01  0.51100000000E-03 0.  1.
        -11    1    4    4    0    0 -0.63150901999E+01  0.22574799736E+02  0.13004919218E+02  0.26807272735E+02  0.51100000000E-03 0. -1.
         12    1    4    4    0    0 -0.42571428631E+01  0.50677796972E+01  0.16425675680E+02  0.17708994267E+02  0.00000000000E+00 0. -1.
</event>
<event>
 8    1  0.5542925E-011  0.9118800E+02  0.7816164E-02  0.1184000E+00
        -11   -1    0    0    0    0  0.00000000000E+00  0.00000000000E+00  0.45593999997E+02  0.45594000000E+02  0.51100000000E-03 0. -1.
         11   -1    0    0    0    0 -0.00000000000E+00 -0.00000000000E+00 -0.45593999997E+02  0.45594000000E+02  0.51100000000E-03 0.  1.
         23    2    1    2    0    0  0.00000000000E+00  0.44408920985E-15  0.35527136788E-14  0.91188000000E+02  0.91188000000E+02 0.  0.
    9900012    2    3    3    0    0 -0.35172111136E+02 -0.21100427847E+01  0.25339565248E+02  0.47787271328E+02  0.20000001293E+02 0.  0.
        -12    1    3    3    0    0  0.35172111136E+02  0.21100427847E+01 -0.25339565248E+02  0.43400728672E+02  0.00000000000E+00 0.  1.
         11    1    4    4    0    0 -0.15106271603E+02  0.73828944914E+00  0.15264120172E+02  0.21488086884E+02  0.51100000000E-03 0. -1.
        -11    1    4    4    0    0 -0.88661672908E+01  0.18453237905E+01 -0.18898702930E+01  0.92512567960E+01  0.51100000000E-03 0.  1.
        -12    1    4    4    0    0 -0.11199672242E+02 -0.46936560243E+01  0.11965315369E+02  0.17047927648E+02  0.00000000000E+00 0.  1.
</event>
<event>
 8    1  0.5542925E-011  0.9118800E+02  0.7816164E-02  0.1184000E+00
        -11   -1    0    0    0    0  0.00000000000E+00  0.00000000000E+00  0.45593999997E+02  0.45594000000E+02  0.51100000000E-03 0. -1.
         11   -1    0    0    0    0 -0.00000000000E+00 -0.00000000000E+00 -0.45593999997E+02  0.45594000000E+02  0.51100000000E-03 0.  1.
         23    2    1    2    0    0  0.00000000000E+00  0.88817841970E-15  0.00000000000E+00  0.91188000000E+02  0.91188000000E+02 0.  0.
    9900012    2    3    3    0    0 -0.11812793133E+02 -0.52595462104E+01 -0.41429679175E+02  0.47787271613E+02  0.20000002592E+02 0.  0.
         12    1    3    3    0    0  0.11812793133E+02  0.52595462104E+01  0.41429679175E+02  0.43400728387E+02  0.00000000000E+00 0. -1.
         11    1    4    4    0    0 -0.92378016022E+01 -0.20964638508E+01 -0.15778844125E+02  0.18403914293E+02  0.51100000000E-03 0.  1.
        -11    1    4    4    0    0  0.18881681136E+01 -0.56962759001E+01 -0.41940620779E+01  0.73213997931E+01  0.51100000000E-03 0. -1.
         12    1    4    4    0    0 -0.44631596442E+01  0.25331935406E+01 -0.21456772973E+02  0.22061957527E+02  0.00000000000E+00 0. -1.
</event>
<event>
 8    1  0.5542925E-011  0.9118800E+02  0.7816164E-02  0.1184000E+00
        -11   -1    0    0    0    0  0.00000000000E+00  0.00000000000E+00  0.45593999997E+02  0.45594000000E+02  0.51100000000E-03 0.  1.
         11   -1    0    0    0    0 -0.00000000000E+00 -0.00000000000E+00 -0.45593999997E+02  0.45594000000E+02  0.51100000000E-03 0. -1.
         23    2    1    2    0    0 -0.71054273576E-14 -0.17763568394E-14  0.00000000000E+00  0.91188000000E+02  0.91188000000E+02 0.  0.
    9900012    2    3    3    0    0 -0.40448139799E+02 -0.11068720258E+02  0.11182795595E+02  0.47787268454E+02  0.19999988191E+02 0.  0.
         12    1    3    3    0    0  0.40448139799E+02  0.11068720258E+02 -0.11182795595E+02  0.43400731546E+02  0.00000000000E+00 0. -1.
         11    1    4    4    0    0 -0.26577645208E+02 -0.62709351476E+01  0.62416789931E+01  0.28011683443E+02  0.51100000000E-03 0. -1.
        -11    1    4    4    0    0 -0.15003290577E+02 -0.70464814937E+01  0.37715435047E+01  0.16999299111E+02  0.51100000000E-03 0.  1.
         12    1    4    4    0    0  0.11327959862E+01  0.22486963830E+01  0.11695730974E+01  0.27762859001E+01  0.00000000000E+00 0. -1.
</event>
<event>
 8    1  0.5542925E-011  0.9118800E+02  0.7816164E-02  0.1184000E+00
        -11   -1    0    0    0    0  0.00000000000E+00  0.00000000000E+00  0.45593999997E+02  0.45594000000E+02  0.51100000000E-03 0. -1.
         11   -1    0    0    0    0 -0.00000000000E+00 -0.00000000000E+00 -0.45593999997E+02  0.45594000000E+02  0.51100000000E-03 0.  1.
         23    2    1    2    0    0  0.00000000000E+00  0.00000000000E+00  0.35527136788E-14  0.91188000000E+02  0.91188000000E+02 0.  0.
    9900012    2    3    3    0    0 -0.26934660035E+02  0.19946944147E+02 -0.27572950822E+02  0.47787261423E+02  0.19999956131E+02 0.  0.
         12    1    3    3    0    0  0.26934660035E+02 -0.19946944147E+02  0.27572950822E+02  0.43400738577E+02  0.00000000000E+00 0. -1.
         11    1    4    4    0    0 -0.23014278721E+02  0.64653332922E+01 -0.16089132285E+02  0.28815234470E+02  0.51100000000E-03 0. -1.
        -11    1    4    4    0    0 -0.12460577265E+01  0.39186196124E+01 -0.46360544820E+00  0.41380152002E+01  0.51100000000E-03 0.  1.
         12    1    4    4    0    0 -0.26743235881E+01  0.95629912427E+01 -0.11020213089E+02  0.14834011753E+02  0.00000000000E+00 0. -1.
</event>
<event>
 8    1  0.5542925E-011  0.9118800E+02  0.7816164E-02  0.1184000E+00
        -11   -1    0    0    0    0  0.00000000000E+00  0.00000000000E+00  0.45593999997E+02  0.45594000000E+02  0.51100000000E-03 0.  1.
         11   -1    0    0    0    0 -0.00000000000E+00 -0.00000000000E+00 -0.45593999997E+02  0.45594000000E+02  0.51100000000E-03 0. -1.
         23    2    1    2    0    0  0.17763568394E-14  0.00000000000E+00  0.00000000000E+00  0.91188000000E+02  0.91188000000E+02 0.  0.
    9900012    2    3    3    0    0 -0.10806897877E+02  0.37360908159E+02 -0.19261280136E+02  0.47787269446E+02  0.19999992710E+02 0.  0.
         12    1    3    3    0    0  0.10806897877E+02 -0.37360908159E+02  0.19261280136E+02  0.43400730554E+02  0.00000000000E+00 0. -1.
         11    1    4    4    0    0 -0.10458396523E+02  0.11689888807E+02 -0.85795055567E+01  0.17878463972E+02  0.51100000000E-03 0.  1.
        -11    1    4    4    0    0  0.77336609035E+00  0.35404647883E+00  0.15510704283E+01  0.17689725135E+01  0.51100000000E-03 0. -1.
        -12    1    4    4    0    0 -0.11218674443E+01  0.25316972873E+02 -0.12232845008E+02  0.28139832960E+02  0.00000000000E+00 0.  1.
</event>
<event>
 8    1  0.5542925E-011  0.9118800E+02  0.7816164E-02  0.1184000E+00
        -11   -1    0    0    0    0  0.00000000000E+00  0.00000000000E+00  0.45593999997E+02  0.45594000000E+02  0.51100000000E-03 0.  1.
         11   -1    0    0    0    0 -0.00000000000E+00 -0.00000000000E+00 -0.45593999997E+02  0.45594000000E+02  0.51100000000E-03 0. -1.
         23    2    1    2    0    0  0.00000000000E+00 -0.35527136788E-14  0.00000000000E+00  0.91188000000E+02  0.91188000000E+02 0.  0.
    9900012    2    3    3    0    0  0.33639173858E+02  0.27060058860E+02  0.44479672858E+01  0.47787248666E+02  0.19999897968E+02 0.  0.
        -12    1    3    3    0    0 -0.33639173858E+02 -0.27060058860E+02 -0.44479672858E+01  0.43400751334E+02  0.00000000000E+00 0.  1.
         11    1    4    4    0    0  0.63296901799E+01  0.72022447628E+01 -0.28793615562E+01  0.10011395039E+02  0.51100000000E-03 0. -1.
        -11    1    4    4    0    0  0.95248055212E+01  0.14586750154E+02  0.80963144537E+01  0.19210557208E+02  0.51100000000E-03 0.  1.
        -12    1    4    4    0    0  0.17784678157E+02  0.52710639439E+01 -0.76898561176E+00  0.18565296419E+02  0.00000000000E+00 0.  1.
</event>
<event>
 8    1  0.5542925E-011  0.9118800E+02  0.7816164E-02  0.1184000E+00
        -11   -1    0    0    0    0  0.00000000000E+00  0.00000000000E+00  0.45593999997E+02  0.45594000000E+02  0.51100000000E-03 0. -1.
         11   -1    0    0    0    0 -0.00000000000E+00 -0.00000000000E+00 -0.45593999997E+02  0.45594000000E+02  0.51100000000E-03 0.  1.
         23    2    1    2    0    0  0.00000000000E+00 -0.35527136788E-14 -0.35527136788E-14  0.91188000000E+02  0.91188000000E+02 0.  0.
    9900012    2    3    3    0    0 -0.18962579305E+02 -0.24558849420E+02 -0.30346441771E+02  0.47787273889E+02  0.20000012971E+02 0.  0.
         12    1    3    3    0    0  0.18962579305E+02  0.24558849420E+02  0.30346441771E+02  0.43400726111E+02  0.00000000000E+00 0. -1.
         11    1    4    4    0    0  0.34039271204E+00 -0.25854767490E+01 -0.98402181253E+00  0.27872668345E+01  0.51100000000E-03 0. -1.
        -11    1    4    4    0    0 -0.14019936349E+02 -0.20882153934E+02 -0.30452359771E+02  0.39496445208E+02  0.51100000000E-03 0.  1.
         12    1    4    4    0    0 -0.52830356686E+01 -0.10912187377E+01  0.10899398127E+01  0.55035618471E+01  0.00000000000E+00 0. -1.
</event>
<event>
 8    1  0.5542925E-011  0.9118800E+02  0.7816164E-02  0.1184000E+00
        -11   -1    0    0    0    0  0.00000000000E+00  0.00000000000E+00  0.45593999997E+02  0.45594000000E+02  0.51100000000E-03 0. -1.
         11   -1    0    0    0    0 -0.00000000000E+00 -0.00000000000E+00 -0.45593999997E+02  0.45594000000E+02  0.51100000000E-03 0.  1.
         23    2    1    2    0    0 -0.17763568394E-14 -0.17763568394E-14  0.00000000000E+00  0.91188000000E+02  0.91188000000E+02 0.  0.
    9900012    2    3    3    0    0  0.12362480985E+02  0.49498035033E+01  0.41307283049E+02  0.47787272775E+02  0.20000007889E+02 0.  0.
        -12    1    3    3    0    0 -0.12362480985E+02 -0.49498035033E+01 -0.41307283049E+02  0.43400727225E+02  0.00000000000E+00 0.  1.
         11    1    4    4    0    0  0.13450839501E+01 -0.63544939462E+00 -0.21078764600E+00  0.15024907516E+01  0.51100000000E-03 0. -1.
        -11    1    4    4    0    0  0.71112250306E+01  0.11209856481E+02  0.23214942108E+02  0.26742549263E+02  0.51100000000E-03 0.  1.
         12    1    4    4    0    0  0.39061720039E+01 -0.56246035826E+01  0.18303128587E+02  0.19542232760E+02  0.00000000000E+00 0. -1.
</event>
<event>
 8    1  0.5542925E-011  0.9118800E+02  0.7816164E-02  0.1184000E+00
        -11   -1    0    0    0    0  0.00000000000E+00  0.00000000000E+00  0.45593999997E+02  0.45594000000E+02  0.51100000000E-03 0. -1.
         11   -1    0    0    0    0 -0.00000000000E+00 -0.00000000000E+00 -0.45593999997E+02  0.45594000000E+02  0.51100000000E-03 0.  1.
         23    2    1    2    0    0  0.00000000000E+00  0.22204460493E-15  0.00000000000E+00  0.91188000000E+02  0.91188000000E+02 0.  0.
    9900012    2    3    3    0    0 -0.23520800062E+02 -0.64707442012E+00  0.36468845801E+02  0.47787268959E+02  0.19999990491E+02 0.  0.
        -12    1    3    3    0    0  0.23520800062E+02  0.64707442012E+00 -0.36468845801E+02  0.43400731041E+02  0.00000000000E+00 0.  1.
         11    1    4    4    0    0 -0.12307949799E+02  0.19031456064E+01  0.29200462346E+02  0.31745465707E+02  0.51100000000E-03 0. -1.
        -11    1    4    4    0    0 -0.64054688200E+01 -0.54595819361E+01  0.58392455444E+01  0.10243722688E+02  0.51100000000E-03 0.  1.
        -12    1    4    4    0    0 -0.48073814425E+01  0.29093619096E+01  0.14291379102E+01  0.57980805635E+01  0.00000000000E+00 0.  1.
</event>
<event>
 8    1  0.5542925E-011  0.9118800E+02  0.7816164E-02  0.1184000E+00
        -11   -1    0    0    0    0  0.00000000000E+00  0.00000000000E+00  0.45593999997E+02  0.45594000000E+02  0.51100000000E-03 0. -1.
         11   -1    0    0    0    0 -0.00000000000E+00 -0.00000000000E+00 -0.45593999997E+02  0.45594000000E+02  0.51100000000E-03 0.  1.
         23    2    1    2    0    0  0.00000000000E+00  0.00000000000E+00  0.00000000000E+00  0.91188000000E+02  0.91188000000E+02 0.  0.
    9900012    2    3    3    0    0 -0.28788089604E+02 -0.27438682410E+02 -0.17377783046E+02  0.47787277206E+02  0.20000028094E+02 0.  0.
         12    1    3    3    0    0  0.28788089604E+02  0.27438682410E+02  0.17377783046E+02  0.43400722794E+02  0.00000000000E+00 0. -1.
         11    1    4    4    0    0 -0.61057531062E+01 -0.22714100347E+01 -0.75360390162E-01  0.65149983876E+01  0.51100000000E-03 0. -1.
        -11    1    4    4    0    0 -0.14881801230E+01  0.15156054881E+01  0.12588210989E+01  0.24690830067E+01  0.51100000000E-03 0.  1.
        -12    1    4    4    0    0 -0.21194156375E+02 -0.26682877863E+02 -0.18561243754E+02  0.38803195812E+02  0.00000000000E+00 0.  1.
</event>
<event>
 8    1  0.5542925E-011  0.9118800E+02  0.7816164E-02  0.1184000E+00
        -11   -1    0    0    0    0  0.00000000000E+00  0.00000000000E+00  0.45593999997E+02  0.45594000000E+02  0.51100000000E-03 0. -1.
         11   -1    0    0    0    0 -0.00000000000E+00 -0.00000000000E+00 -0.45593999997E+02  0.45594000000E+02  0.51100000000E-03 0.  1.
         23    2    1    2    0    0 -0.66613381478E-15  0.88817841970E-15  0.00000000000E+00  0.91188000000E+02  0.91188000000E+02 0.  0.
    9900012    2    3    3    0    0  0.11784077898E+01 -0.69451778220E+01  0.42825227413E+02  0.47787259881E+02  0.19999949101E+02 0.  0.
        -12    1    3    3    0    0 -0.11784077898E+01  0.69451778220E+01 -0.42825227413E+02  0.43400740119E+02  0.00000000000E+00 0.  1.
         11    1    4    4    0    0 -0.38417354970E+01 -0.50927802681E+01  0.15090215625E+02  0.16383221611E+02  0.51100000000E-03 0. -1.
        -11    1    4    4    0    0 -0.26303310263E+01  0.24460184322E+01  0.17755039482E+02  0.18114719836E+02  0.51100000000E-03 0.  1.
         12    1    4    4    0    0  0.76504743131E+01 -0.42984159860E+01  0.99799723066E+01  0.13289318434E+02  0.00000000000E+00 0. -1.
</event>
<event>
 8    1  0.5542925E-011  0.9118800E+02  0.7816164E-02  0.1184000E+00
        -11   -1    0    0    0    0  0.00000000000E+00  0.00000000000E+00  0.45593999997E+02  0.45594000000E+02  0.51100000000E-03 0. -1.
         11   -1    0    0    0    0 -0.00000000000E+00 -0.00000000000E+00 -0.45593999997E+02  0.45594000000E+02  0.51100000000E-03 0.  1.
         23    2    1    2    0    0  0.00000000000E+00 -0.88817841970E-15  0.00000000000E+00  0.91188000000E+02  0.91188000000E+02 0.  0.
    9900012    2    3    3    0    0  0.32177450941E+02 -0.74628971839E+01  0.28152087319E+02  0.47787271851E+02  0.20000003677E+02 0.  0.
        -12    1    3    3    0    0 -0.32177450941E+02  0.74628971839E+01 -0.28152087319E+02  0.43400728149E+02  0.00000000000E+00 0.  1.
         11    1    4    4    0    0  0.70948249954E+01 -0.53652120297E+01  0.10466790111E+02  0.13735928703E+02  0.51100000000E-03 0. -1.
        -11    1    4    4    0    0  0.10067552399E+02 -0.75661221556E+01  0.11029691708E+02  0.16740845714E+02  0.51100000000E-03 0.  1.
         12    1    4    4    0    0  0.15015073546E+02  0.54684370014E+01  0.66556055000E+01  0.17310497434E+02  0.00000000000E+00 0. -1.
</event>
<event>
 8    1  0.5542925E-011  0.9118800E+02  0.7816164E-02  0.1184000E+00
        -11   -1    0    0    0    0  0.00000000000E+00  0.00000000000E+00  0.45593999997E+02  0.45594000000E+02  0.51100000000E-03 0. -1.
         11   -1    0    0    0    0 -0.00000000000E+00 -0.00000000000E+00 -0.45593999997E+02  0.45594000000E+02  0.51100000000E-03 0.  1.
         23    2    1    2    0    0  0.00000000000E+00 -0.17763568394E-14  0.00000000000E+00  0.91188000000E+02  0.91188000000E+02 0.  0.
    9900012    2    3    3    0    0 -0.29622885255E+02 -0.11170590949E+02 -0.29687137642E+02  0.47787267582E+02  0.19999984215E+02 0.  0.
         12    1    3    3    0    0  0.29622885255E+02  0.11170590949E+02  0.29687137642E+02  0.43400732418E+02  0.00000000000E+00 0. -1.
         11    1    4    4    0    0 -0.31780095714E+00 -0.29524969648E+00  0.16999232107E+01  0.17543970517E+01  0.51100000000E-03 0. -1.
        -11    1    4    4    0    0 -0.82017447419E+01 -0.48307867185E+00 -0.21218472855E+01  0.84855299174E+01  0.51100000000E-03 0.  1.
        -12    1    4    4    0    0 -0.21103339556E+02 -0.10392262581E+02 -0.29265213568E+02  0.37547340613E+02  0.00000000000E+00 0.  1.
</event>
<event>
 8    1  0.5542925E-011  0.9118800E+02  0.7816164E-02  0.1184000E+00
        -11   -1    0    0    0    0  0.00000000000E+00  0.00000000000E+00  0.45593999997E+02  0.45594000000E+02  0.51100000000E-03 0. -1.
         11   -1    0    0    0    0 -0.00000000000E+00 -0.00000000000E+00 -0.45593999997E+02  0.45594000000E+02  0.51100000000E-03 0.  1.
         23    2    1    2    0    0  0.35527136788E-14  0.00000000000E+00  0.00000000000E+00  0.91188000000E+02  0.91188000000E+02 0.  0.
    9900012    2    3    3    0    0 -0.22397427017E+02 -0.59612342581E+01 -0.36693901657E+02  0.47787268789E+02  0.19999989715E+02 0.  0.
         12    1    3    3    0    0  0.22397427017E+02  0.59612342581E+01  0.36693901657E+02  0.43400731211E+02  0.00000000000E+00 0. -1.
         11    1    4    4    0    0  0.89991896813E+00 -0.13453098618E+01 -0.82906672009E+01  0.84471815223E+01  0.51100000000E-03 0.  1.
        -11    1    4    4    0    0 -0.86685530247E+01  0.23463144258E+00 -0.22097661959E+01  0.89488507842E+01  0.51100000000E-03 0. -1.
        -12    1    4    4    0    0 -0.14628792960E+02 -0.48505558388E+01 -0.26193468260E+02  0.30391236482E+02  0.00000000000E+00 0.  1.
</event>
<event>
 8    1  0.5542925E-011  0.9118800E+02  0.7816164E-02  0.1184000E+00
        -11   -1    0    0    0    0  0.00000000000E+00  0.00000000000E+00  0.45593999997E+02  0.45594000000E+02  0.51100000000E-03 0. -1.
         11   -1    0    0    0    0 -0.00000000000E+00 -0.00000000000E+00 -0.45593999997E+02  0.45594000000E+02  0.51100000000E-03 0.  1.
         23    2    1    2    0    0  0.00000000000E+00  0.00000000000E+00  0.00000000000E+00  0.91188000000E+02  0.91188000000E+02 0.  0.
    9900012    2    3    3    0    0  0.77855734352E+01 -0.80521903946E+01  0.41930545661E+02  0.47787267479E+02  0.19999983746E+02 0.  0.
        -12    1    3    3    0    0 -0.77855734352E+01  0.80521903946E+01 -0.41930545661E+02  0.43400732521E+02  0.00000000000E+00 0.  1.
         11    1    4    4    0    0  0.23013151461E+01 -0.51150156502E+01  0.78985548874E+01  0.96874457972E+01  0.51100000000E-03 0. -1.
        -11    1    4    4    0    0  0.40600940905E+01 -0.83106189075E+01  0.10834684814E+02  0.14245741326E+02  0.51100000000E-03 0.  1.
         12    1    4    4    0    0  0.14241641986E+01  0.53734441631E+01  0.23197305960E+02  0.23854080356E+02  0.00000000000E+00 0. -1.
</event>
<event>
 8    1  0.5542925E-011  0.9118800E+02  0.7816164E-02  0.1184000E+00
        -11   -1    0    0    0    0  0.00000000000E+00  0.00000000000E+00  0.45593999997E+02  0.45594000000E+02  0.51100000000E-03 0.  1.
         11   -1    0    0    0    0 -0.00000000000E+00 -0.00000000000E+00 -0.45593999997E+02  0.45594000000E+02  0.51100000000E-03 0. -1.
         23    2    1    2    0    0  0.00000000000E+00 -0.71054273576E-14  0.00000000000E+00  0.91188000000E+02  0.91188000000E+02 0.  0.
    9900012    2    3    3    0    0  0.30605524899E+02  0.27461270927E+02 -0.13885380004E+02  0.47787270362E+02  0.19999996889E+02 0.  0.
         12    1    3    3    0    0 -0.30605524899E+02 -0.27461270927E+02  0.13885380004E+02  0.43400729638E+02  0.00000000000E+00 0. -1.
         11    1    4    4    0    0  0.13472365366E+02  0.16785012203E+02 -0.39784889103E+01  0.21887659479E+02  0.51100000000E-03 0. -1.
        -11    1    4    4    0    0  0.38950708712E+01  0.65043845483E+01  0.17422421544E+01  0.77790747155E+01  0.51100000000E-03 0.  1.
         12    1    4    4    0    0  0.13238088662E+02  0.41718741750E+01 -0.11649133249E+02  0.18120536167E+02  0.00000000000E+00 0. -1.
</event>
<event>
 8    1  0.5542925E-011  0.9118800E+02  0.7816164E-02  0.1184000E+00
        -11   -1    0    0    0    0  0.00000000000E+00  0.00000000000E+00  0.45593999997E+02  0.45594000000E+02  0.51100000000E-03 0. -1.
         11   -1    0    0    0    0 -0.00000000000E+00 -0.00000000000E+00 -0.45593999997E+02  0.45594000000E+02  0.51100000000E-03 0.  1.
         23    2    1    2    0    0  0.00000000000E+00  0.00000000000E+00  0.00000000000E+00  0.91188000000E+02  0.91188000000E+02 0.  0.
    9900012    2    3    3    0    0 -0.11286954281E+02 -0.19751259948E+02 -0.36961004199E+02  0.47787269155E+02  0.19999991384E+02 0.  0.
         12    1    3    3    0    0  0.11286954281E+02  0.19751259948E+02  0.36961004199E+02  0.43400730845E+02  0.00000000000E+00 0. -1.
         11    1    4    4    0    0 -0.13538572139E+02 -0.85530366905E+01 -0.22029427421E+02  0.27234959977E+02  0.51100000000E-03 0. -1.
        -11    1    4    4    0    0 -0.15050387002E+01 -0.26669452895E+01 -0.13634771984E+00  0.30653433133E+01  0.51100000000E-03 0.  1.
        -12    1    4    4    0    0  0.37566565576E+01 -0.85312779680E+01 -0.14795229058E+02  0.17486965864E+02  0.00000000000E+00 0.  1.
</event>
<event>
 8    1  0.6642878E-011  0.9118800E+02  0.7816164E-02  0.1184000E+00
        -11   -1    0    0    0    0  0.00000000000E+00  0.00000000000E+00  0.45593999997E+02  0.45594000000E+02  0.51100000000E-03 0. -1.
         11   -1    0    0    0    0 -0.00000000000E+00 -0.00000000000E+00 -0.45593999997E+02  0.45594000000E+02  0.51100000000E-03 0.  1.
         23    2    1    2    0    0  0.00000000000E+00  0.00000000000E+00  0.71054273576E-14  0.91188000000E+02  0.91188000000E+02 0.  0.
    9900012    2    3    3    0    0  0.80501711693E+01 -0.33069910111E+01  0.42519191734E+02  0.47787272920E+02  0.20000008551E+02 0.  0.
        -12    1    3    3    0    0 -0.80501711693E+01  0.33069910111E+01 -0.42519191734E+02  0.43400727080E+02  0.00000000000E+00 0.  1.
         11    1    4    4    0    0  0.50631022695E+01  0.57308956185E+00  0.28840490832E+02  0.29287153292E+02  0.51100000000E-03 0. -1.
        -11    1    4    4    0    0 -0.33422682036E+01 -0.34279807440E+01  0.10190406116E+02  0.11259049063E+02  0.51100000000E-03 0.  1.
         12    1    4    4    0    0  0.63293371033E+01 -0.45209982885E+00  0.34882947849E+01  0.72410705651E+01  0.00000000000E+00 0. -1.
</event>
<event>
 8    1  0.5542925E-011  0.9118800E+02  0.7816164E-02  0.1184000E+00
        -11   -1    0    0    0    0  0.00000000000E+00  0.00000000000E+00  0.45593999997E+02  0.45594000000E+02  0.51100000000E-03 0. -1.
         11   -1    0    0    0    0 -0.00000000000E+00 -0.00000000000E+00 -0.45593999997E+02  0.45594000000E+02  0.51100000000E-03 0.  1.
         23    2    1    2    0    0  0.00000000000E+00  0.00000000000E+00  0.00000000000E+00  0.91188000000E+02  0.91188000000E+02 0.  0.
    9900012    2    3    3    0    0 -0.38543178797E+02 -0.28695782394E+01  0.19743656639E+02  0.47787273179E+02  0.20000009733E+02 0.  0.
        -12    1    3    3    0    0  0.38543178797E+02  0.28695782394E+01 -0.19743656639E+02  0.43400726821E+02  0.00000000000E+00 0.  1.
         11    1    4    4    0    0 -0.12158159764E+02 -0.43272568674E+01  0.53672027654E+01  0.13976868985E+02  0.51100000000E-03 0.  1.
        -11    1    4    4    0    0 -0.19266637801E+02 -0.64385764606E+00  0.17233366859E+02  0.25857432556E+02  0.51100000000E-03 0. -1.
        -12    1    4    4    0    0 -0.71183812320E+01  0.21015362740E+01 -0.28569129846E+01  0.79529716382E+01  0.00000000000E+00 0.  1.
</event>
<event>
 8    1  0.5542925E-011  0.9118800E+02  0.7816164E-02  0.1184000E+00
        -11   -1    0    0    0    0  0.00000000000E+00  0.00000000000E+00  0.45593999997E+02  0.45594000000E+02  0.51100000000E-03 0. -1.
         11   -1    0    0    0    0 -0.00000000000E+00 -0.00000000000E+00 -0.45593999997E+02  0.45594000000E+02  0.51100000000E-03 0.  1.
         23    2    1    2    0    0  0.00000000000E+00  0.00000000000E+00  0.71054273576E-14  0.91188000000E+02  0.91188000000E+02 0.  0.
    9900012    2    3    3    0    0 -0.17176860519E+02  0.12691806765E+02 -0.37782230801E+02  0.47787268894E+02  0.19999990195E+02 0.  0.
         12    1    3    3    0    0  0.17176860519E+02 -0.12691806765E+02  0.37782230801E+02  0.43400731106E+02  0.00000000000E+00 0. -1.
         11    1    4    4    0    0  0.51598527107E+00  0.41727804336E+01 -0.43326183187E+00  0.42268254545E+01  0.51100000000E-03 0. -1.
        -11    1    4    4    0    0 -0.16380791476E+01  0.57912275058E+01 -0.82100047427E+01  0.10179675705E+02  0.51100000000E-03 0.  1.
        -12    1    4    4    0    0 -0.16054766642E+02  0.27277988253E+01 -0.29138964227E+02  0.33380767735E+02  0.00000000000E+00 0.  1.
</event>
<event>
 8    1  0.6333097E-011  0.9118800E+02  0.7816164E-02  0.1184000E+00
        -11   -1    0    0    0    0  0.00000000000E+00  0.00000000000E+00  0.45593999997E+02  0.45594000000E+02  0.51100000000E-03 0. -1.
         11   -1    0    0    0    0 -0.00000000000E+00 -0.00000000000E+00 -0.45593999997E+02  0.45594000000E+02  0.51100000000E-03 0.  1.
         23    2    1    2    0    0  0.00000000000E+00  0.00000000000E+00 -0.35527136788E-14  0.91188000000E+02  0.91188000000E+02 0.  0.
    9900012    2    3    3    0    0 -0.23449307516E+02  0.24827382827E+02  0.26783481248E+02  0.47787264652E+02  0.19999970853E+02 0.  0.
        -12    1    3    3    0    0  0.23449307516E+02 -0.24827382827E+02 -0.26783481248E+02  0.43400735348E+02  0.00000000000E+00 0.  1.
         11    1    4    4    0    0 -0.71912121512E+01  0.83621762801E+01  0.16072627270E+02  0.19492790256E+02  0.51100000000E-03 0. -1.
        -11    1    4    4    0    0 -0.10844604165E+01 -0.20077343498E+01  0.86039309667E+00  0.24387144474E+01  0.51100000000E-03 0.  1.
         12    1    4    4    0    0 -0.15173634948E+02  0.18472940897E+02  0.98504608806E+01  0.25855759948E+02  0.00000000000E+00 0. -1.
</event>
<event>
 8    1  0.5542925E-011  0.9118800E+02  0.7816164E-02  0.1184000E+00
        -11   -1    0    0    0    0  0.00000000000E+00  0.00000000000E+00  0.45593999997E+02  0.45594000000E+02  0.51100000000E-03 0. -1.
         11   -1    0    0    0    0 -0.00000000000E+00 -0.00000000000E+00 -0.45593999997E+02  0.45594000000E+02  0.51100000000E-03 0.  1.
         23    2    1    2    0    0  0.00000000000E+00  0.00000000000E+00  0.00000000000E+00  0.91188000000E+02  0.91188000000E+02 0.  0.
    9900012    2    3    3    0    0 -0.30467431748E+02  0.22235656693E+02  0.21469358055E+02  0.47787283863E+02  0.20000058445E+02 0.  0.
        -12    1    3    3    0    0  0.30467431748E+02 -0.22235656693E+02 -0.21469358055E+02  0.43400716137E+02  0.00000000000E+00 0.  1.
         11    1    4    4    0    0 -0.96304775751E+01  0.13643841815E+02  0.18098185670E+02  0.24626100841E+02  0.51100000000E-03 0. -1.
        -11    1    4    4    0    0 -0.20094576104E+01 -0.29519032754E+00 -0.18759897277E+00  0.20396693000E+01  0.51100000000E-03 0.  1.
         12    1    4    4    0    0 -0.18827496563E+02  0.88870052052E+01  0.35587713579E+01  0.21121513722E+02  0.00000000000E+00 0. -1.
</event>
<event>
 8    1  0.5542925E-011  0.9118800E+02  0.7816164E-02  0.1184000E+00
        -11   -1    0    0    0    0  0.00000000000E+00  0.00000000000E+00  0.45593999997E+02  0.45594000000E+02  0.51100000000E-03 0. -1.
         11   -1    0    0    0    0 -0.00000000000E+00 -0.00000000000E+00 -0.45593999997E+02  0.45594000000E+02  0.51100000000E-03 0.  1.
         23    2    1    2    0    0  0.88817841970E-15  0.17763568394E-14 -0.71054273576E-14  0.91188000000E+02  0.91188000000E+02 0.  0.
    9900012    2    3    3    0    0  0.60202415375E+01  0.15922650682E+02 -0.39923037551E+02  0.47787273736E+02  0.20000012273E+02 0.  0.
         12    1    3    3    0    0 -0.60202415375E+01 -0.15922650682E+02  0.39923037551E+02  0.43400726264E+02  0.00000000000E+00 0. -1.
         11    1    4    4    0    0  0.55424945058E+00  0.25226476929E+01 -0.53810401850E+01  0.59687969952E+01  0.51100000000E-03 0.  1.
        -11    1    4    4    0    0  0.19310514412E+01  0.29717703171E+01 -0.29492703359E+02  0.29704880578E+02  0.51100000000E-03 0. -1.
         12    1    4    4    0    0  0.35349406457E+01  0.10428232672E+02 -0.50492940074E+01  0.12113596163E+02  0.00000000000E+00 0. -1.
</event>
<event>
 8    1  0.5915632E-011  0.9118800E+02  0.7816164E-02  0.1184000E+00
        -11   -1    0    0    0    0  0.00000000000E+00  0.00000000000E+00  0.45593999997E+02  0.45594000000E+02  0.51100000000E-03 0. -1.
         11   -1    0    0    0    0 -0.00000000000E+00 -0.00000000000E+00 -0.45593999997E+02  0.45594000000E+02  0.51100000000E-03 0.  1.
         23    2    1    2    0    0 -0.17763568394E-14 -0.44408920985E-15 -0.71054273576E-14  0.91188000000E+02  0.91188000000E+02 0.  0.
    9900012    2    3    3    0    0  0.15199572023E+02 -0.13310914344E+01  0.40630331025E+02  0.47787278885E+02  0.20000035749E+02 0.  0.
        -12    1    3    3    0    0 -0.15199572023E+02  0.13310914344E+01 -0.40630331025E+02  0.43400721115E+02  0.00000000000E+00 0.  1.
         11    1    4    4    0    0  0.74615475574E+01 -0.43916932743E+01  0.97849798928E+01  0.13065507779E+02  0.51100000000E-03 0. -1.
        -11    1    4    4    0    0 -0.78303720204E+00  0.66192166557E+01  0.11687987792E+02  0.13454970654E+02  0.51100000000E-03 0.  1.
         12    1    4    4    0    0  0.85210616679E+01 -0.35586148158E+01  0.19157363340E+02  0.21266800452E+02  0.00000000000E+00 0. -1.
</event>
<event>
 8    1  0.5542925E-011  0.9118800E+02  0.7816164E-02  0.1184000E+00
        -11   -1    0    0    0    0  0.00000000000E+00  0.00000000000E+00  0.45593999997E+02  0.45594000000E+02  0.51100000000E-03 0. -1.
         11   -1    0    0    0    0 -0.00000000000E+00 -0.00000000000E+00 -0.45593999997E+02  0.45594000000E+02  0.51100000000E-03 0.  1.
         23    2    1    2    0    0  0.00000000000E+00 -0.35527136788E-14 -0.71054273576E-14  0.91188000000E+02  0.91188000000E+02 0.  0.
    9900012    2    3    3    0    0 -0.30466226603E+02 -0.69035488908E+01 -0.30129279044E+02  0.47787269517E+02  0.19999993038E+02 0.  0.
         12    1    3    3    0    0  0.30466226603E+02  0.69035488908E+01  0.30129279044E+02  0.43400730483E+02  0.00000000000E+00 0. -1.
         11    1    4    4    0    0 -0.40863027128E+01  0.13614138386E+01 -0.54161343590E+01  0.69199587540E+01  0.51100000000E-03 0. -1.
        -11    1    4    4    0    0 -0.17073525183E+02 -0.12939186966E+02 -0.12445684597E+02  0.24775449277E+02  0.51100000000E-03 0.  1.
        -12    1    4    4    0    0 -0.93063987076E+01  0.46742242363E+01 -0.12267460087E+02  0.16091861487E+02  0.00000000000E+00 0.  1.
</event>
<event>
 8    1  0.5542925E-011  0.9118800E+02  0.7816164E-02  0.1184000E+00
        -11   -1    0    0    0    0  0.00000000000E+00  0.00000000000E+00  0.45593999997E+02  0.45594000000E+02  0.51100000000E-03 0.  1.
         11   -1    0    0    0    0 -0.00000000000E+00 -0.00000000000E+00 -0.45593999997E+02  0.45594000000E+02  0.51100000000E-03 0. -1.
         23    2    1    2    0    0  0.00000000000E+00 -0.35527136788E-14  0.00000000000E+00  0.91188000000E+02  0.91188000000E+02 0.  0.
    9900012    2    3    3    0    0 -0.30041553125E+02 -0.30633022380E+02  0.65380715566E+01  0.47787270122E+02  0.19999995793E+02 0.  0.
         12    1    3    3    0    0  0.30041553125E+02  0.30633022380E+02 -0.65380715566E+01  0.43400729878E+02  0.00000000000E+00 0. -1.
         11    1    4    4    0    0  0.14326482610E+01 -0.15217058776E+01  0.53468156813E+00  0.21573025885E+01  0.51100000000E-03 0. -1.
        -11    1    4    4    0    0  0.40853893547E+00 -0.29913443401E+01 -0.20302781407E+01  0.36382790730E+01  0.51100000000E-03 0.  1.
        -12    1    4    4    0    0 -0.31882740321E+02 -0.26119972162E+02  0.80336681293E+01  0.41991688460E+02  0.00000000000E+00 0.  1.
</event>
<event>
 8    1  0.5542925E-011  0.9118800E+02  0.7816164E-02  0.1184000E+00
        -11   -1    0    0    0    0  0.00000000000E+00  0.00000000000E+00  0.45593999997E+02  0.45594000000E+02  0.51100000000E-03 0. -1.
         11   -1    0    0    0    0 -0.00000000000E+00 -0.00000000000E+00 -0.45593999997E+02  0.45594000000E+02  0.51100000000E-03 0.  1.
         23    2    1    2    0    0 -0.35527136788E-14  0.35527136788E-14  0.00000000000E+00  0.91188000000E+02  0.91188000000E+02 0.  0.
    9900012    2    3    3    0    0 -0.17048371602E+02  0.18744709481E+02  0.35236482947E+02  0.47787299104E+02  0.20000127934E+02 0.  0.
        -12    1    3    3    0    0  0.17048371602E+02 -0.18744709481E+02 -0.35236482947E+02  0.43400700896E+02  0.00000000000E+00 0.  1.
         11    1    4    4    0    0 -0.14463637391E+02  0.12774312235E+02  0.12181852900E+02  0.22820547759E+02  0.51100000000E-03 0.  1.
        -11    1    4    4    0    0 -0.48125582614E+01  0.27381930710E+01  0.11501696171E+02  0.12765086502E+02  0.51100000000E-03 0. -1.
        -12    1    4    4    0    0  0.22278240505E+01  0.32322041753E+01  0.11552933875E+02  0.12201664843E+02  0.00000000000E+00 0.  1.
</event>
<event>
 8    1  0.5542925E-011  0.9118800E+02  0.7816164E-02  0.1184000E+00
        -11   -1    0    0    0    0  0.00000000000E+00  0.00000000000E+00  0.45593999997E+02  0.45594000000E+02  0.51100000000E-03 0. -1.
         11   -1    0    0    0    0 -0.00000000000E+00 -0.00000000000E+00 -0.45593999997E+02  0.45594000000E+02  0.51100000000E-03 0.  1.
         23    2    1    2    0    0  0.00000000000E+00  0.00000000000E+00 -0.35527136788E-14  0.91188000000E+02  0.91188000000E+02 0.  0.
    9900012    2    3    3    0    0  0.31011026494E+02  0.19152640776E+02  0.23560956746E+02  0.47787238535E+02  0.19999851778E+02 0.  0.
        -12    1    3    3    0    0 -0.31011026494E+02 -0.19152640776E+02 -0.23560956746E+02  0.43400761465E+02  0.00000000000E+00 0.  1.
         11    1    4    4    0    0  0.10350561479E+02  0.24901640853E+01  0.49065756564E+01  0.11722180899E+02  0.51100000000E-03 0. -1.
        -11    1    4    4    0    0  0.11063400036E+02  0.51628791250E+00  0.26494636182E+01  0.11387933583E+02  0.51100000000E-03 0.  1.
        -12    1    4    4    0    0  0.95970649791E+01  0.16146188778E+02  0.16004917472E+02  0.24677124053E+02  0.00000000000E+00 0.  1.
</event>
<event>
 8    1  0.5542925E-011  0.9118800E+02  0.7816164E-02  0.1184000E+00
        -11   -1    0    0    0    0  0.00000000000E+00  0.00000000000E+00  0.45593999997E+02  0.45594000000E+02  0.51100000000E-03 0. -1.
         11   -1    0    0    0    0 -0.00000000000E+00 -0.00000000000E+00 -0.45593999997E+02  0.45594000000E+02  0.51100000000E-03 0.  1.
         23    2    1    2    0    0  0.00000000000E+00  0.00000000000E+00  0.00000000000E+00  0.91188000000E+02  0.91188000000E+02 0.  0.
    9900012    2    3    3    0    0 -0.35829684078E+02  0.14120497466E+02  0.20011696914E+02  0.47787277389E+02  0.20000028927E+02 0.  0.
        -12    1    3    3    0    0  0.35829684078E+02 -0.14120497466E+02 -0.20011696914E+02  0.43400722611E+02  0.00000000000E+00 0.  1.
         11    1    4    4    0    0 -0.16161659878E+02  0.16200555096E+01  0.68609109077E+01  0.17632241168E+02  0.51100000000E-03 0. -1.
        -11    1    4    4    0    0 -0.17620810169E+02  0.53251472962E+01  0.49377266947E+01  0.19058627703E+02  0.51100000000E-03 0.  1.
         12    1    4    4    0    0 -0.20472140304E+01  0.71752946600E+01  0.82130593113E+01  0.11096408518E+02  0.00000000000E+00 0. -1.
</event>
<event>
 8    1  0.5542925E-011  0.9118800E+02  0.7816164E-02  0.1184000E+00
        -11   -1    0    0    0    0  0.00000000000E+00  0.00000000000E+00  0.45593999997E+02  0.45594000000E+02  0.51100000000E-03 0. -1.
         11   -1    0    0    0    0 -0.00000000000E+00 -0.00000000000E+00 -0.45593999997E+02  0.45594000000E+02  0.51100000000E-03 0.  1.
         23    2    1    2    0    0  0.00000000000E+00  0.00000000000E+00 -0.35527136788E-14  0.91188000000E+02  0.91188000000E+02 0.  0.
    9900012    2    3    3    0    0  0.81496293754E+01 -0.32815773558E+02  0.27209041643E+02  0.47787269588E+02  0.19999993359E+02 0.  0.
        -12    1    3    3    0    0 -0.81496293754E+01  0.32815773558E+02 -0.27209041643E+02  0.43400730412E+02  0.00000000000E+00 0.  1.
         11    1    4    4    0    0  0.56974432248E+01 -0.11211506421E+02  0.44049047221E+01  0.13325236261E+02  0.51100000000E-03 0. -1.
        -11    1    4    4    0    0  0.30453141356E+01 -0.19074648500E+02  0.10699252477E+02  0.22081443734E+02  0.51100000000E-03 0.  1.
         12    1    4    4    0    0 -0.59312798504E+00 -0.25296186370E+01  0.12104884445E+02  0.12380589593E+02  0.00000000000E+00 0. -1.
</event>
<event>
 8    1  0.5542925E-011  0.9118800E+02  0.7816164E-02  0.1184000E+00
        -11   -1    0    0    0    0  0.00000000000E+00  0.00000000000E+00  0.45593999997E+02  0.45594000000E+02  0.51100000000E-03 0. -1.
         11   -1    0    0    0    0 -0.00000000000E+00 -0.00000000000E+00 -0.45593999997E+02  0.45594000000E+02  0.51100000000E-03 0.  1.
         23    2    1    2    0    0 -0.44408920985E-15  0.00000000000E+00  0.00000000000E+00  0.91188000000E+02  0.91188000000E+02 0.  0.
    9900012    2    3    3    0    0  0.21218577362E+01 -0.36779107916E+02  0.22943804732E+02  0.47787271493E+02  0.20000002045E+02 0.  0.
        -12    1    3    3    0    0 -0.21218577362E+01  0.36779107916E+02 -0.22943804732E+02  0.43400728507E+02  0.00000000000E+00 0.  1.
         11    1    4    4    0    0  0.55475436186E+01 -0.23775455898E+02  0.10167546215E+02  0.26446673508E+02  0.51100000000E-03 0. -1.
        -11    1    4    4    0    0 -0.18951787659E+01 -0.14514183390E+02  0.12343277731E+02  0.19147055320E+02  0.51100000000E-03 0.  1.
        -12    1    4    4    0    0 -0.15305071164E+01  0.15105313720E+01  0.43298078616E+00  0.21935426643E+01  0.00000000000E+00 0.  1.
</event>
<event>
 8    1  0.5542925E-011  0.9118800E+02  0.7816164E-02  0.1184000E+00
        -11   -1    0    0    0    0  0.00000000000E+00  0.00000000000E+00  0.45593999997E+02  0.45594000000E+02  0.51100000000E-03 0.  1.
         11   -1    0    0    0    0 -0.00000000000E+00 -0.00000000000E+00 -0.45593999997E+02  0.45594000000E+02  0.51100000000E-03 0. -1.
         23    2    1    2    0    0 -0.35527136788E-14  0.38857805862E-15  0.00000000000E+00  0.91188000000E+02  0.91188000000E+02 0.  0.
    9900012    2    3    3    0    0 -0.30800167922E+02 -0.35373805663E+00 -0.30575371112E+02  0.47787207458E+02  0.19999710081E+02 0.  0.
         12    1    3    3    0    0  0.30800167922E+02  0.35373805663E+00  0.30575371112E+02  0.43400792542E+02  0.00000000000E+00 0. -1.
         11    1    4    4    0    0 -0.38038382443E+01 -0.29159836554E+01  0.31109941262E+00  0.48030125102E+01  0.51100000000E-03 0. -1.
        -11    1    4    4    0    0 -0.89608184944E+00 -0.30157126921E+01 -0.24756858989E+01  0.40033119605E+01  0.51100000000E-03 0.  1.
        -12    1    4    4    0    0 -0.26100247828E+02  0.55779582908E+01 -0.28410784626E+02  0.38980882987E+02  0.00000000000E+00 0.  1.
</event>
<event>
 8    1  0.5542925E-011  0.9118800E+02  0.7816164E-02  0.1184000E+00
        -11   -1    0    0    0    0  0.00000000000E+00  0.00000000000E+00  0.45593999997E+02  0.45594000000E+02  0.51100000000E-03 0. -1.
         11   -1    0    0    0    0 -0.00000000000E+00 -0.00000000000E+00 -0.45593999997E+02  0.45594000000E+02  0.51100000000E-03 0.  1.
         23    2    1    2    0    0  0.00000000000E+00  0.35527136788E-14  0.14210854715E-13  0.91188000000E+02  0.91188000000E+02 0.  0.
    9900012    2    3    3    0    0 -0.12128493702E+02 -0.71864569926E+01 -0.41047259521E+02  0.47787273764E+02  0.20000012401E+02 0.  0.
         12    1    3    3    0    0  0.12128493702E+02  0.71864569926E+01  0.41047259521E+02  0.43400726236E+02  0.00000000000E+00 0. -1.
         11    1    4    4    0    0 -0.62252032846E+01 -0.25743203642E+01 -0.10260616107E+02  0.12274384890E+02  0.51100000000E-03 0. -1.
        -11    1    4    4    0    0 -0.18315401538E+01 -0.65144363836E+01 -0.30237260293E+02  0.30985227626E+02  0.51100000000E-03 0.  1.
        -12    1    4    4    0    0 -0.40717502637E+01  0.19022997553E+01 -0.54938312121E+00  0.45276612487E+01  0.00000000000E+00 0.  1.
</event>
<event>
 8    1  0.5542925E-011  0.9118800E+02  0.7816164E-02  0.1184000E+00
        -11   -1    0    0    0    0  0.00000000000E+00  0.00000000000E+00  0.45593999997E+02  0.45594000000E+02  0.51100000000E-03 0.  1.
         11   -1    0    0    0    0 -0.00000000000E+00 -0.00000000000E+00 -0.45593999997E+02  0.45594000000E+02  0.51100000000E-03 0. -1.
         23    2    1    2    0    0  0.17763568394E-14  0.00000000000E+00 -0.44408920985E-15  0.91188000000E+02  0.91188000000E+02 0.  0.
    9900012    2    3    3    0    0  0.99499847575E+01 -0.42156970353E+02  0.27222874055E+01  0.47787271956E+02  0.20000004156E+02 0.  0.
         12    1    3    3    0    0 -0.99499847575E+01  0.42156970353E+02 -0.27222874055E+01  0.43400728044E+02  0.00000000000E+00 0. -1.
         11    1    4    4    0    0 -0.21600954243E+01 -0.62484826839E+01  0.50625408936E+01  0.83269963765E+01  0.51100000000E-03 0. -1.
        -11    1    4    4    0    0  0.74358821247E+01 -0.14832183224E+02  0.37885247194E+01  0.17018781448E+02  0.51100000000E-03 0.  1.
        -12    1    4    4    0    0  0.46741980572E+01 -0.21076304445E+02 -0.61287782075E+01  0.22441494131E+02  0.00000000000E+00 0.  1.
</event>
<event>
 8    1  0.5542925E-011  0.9118800E+02  0.7816164E-02  0.1184000E+00
        -11   -1    0    0    0    0  0.00000000000E+00  0.00000000000E+00  0.45593999997E+02  0.45594000000E+02  0.51100000000E-03 0. -1.
         11   -1    0    0    0    0 -0.00000000000E+00 -0.00000000000E+00 -0.45593999997E+02  0.45594000000E+02  0.51100000000E-03 0.  1.
         23    2    1    2    0    0  0.00000000000E+00  0.00000000000E+00  0.00000000000E+00  0.91188000000E+02  0.91188000000E+02 0.  0.
    9900012    2    3    3    0    0 -0.60917909757E+01 -0.21536201404E+02 -0.37184751137E+02  0.47787267226E+02  0.19999982589E+02 0.  0.
         12    1    3    3    0    0  0.60917909757E+01  0.21536201404E+02  0.37184751137E+02  0.43400732774E+02  0.00000000000E+00 0. -1.
         11    1    4    4    0    0  0.15954448848E+01 -0.15408036120E+01 -0.85687084660E+01  0.88511177366E+01  0.51100000000E-03 0. -1.
        -11    1    4    4    0    0 -0.76565555024E+01 -0.18814620955E+02 -0.30540089914E+02  0.36678466381E+02  0.51100000000E-03 0.  1.
        -12    1    4    4    0    0 -0.30680358120E-01 -0.11807768367E+01  0.19240472430E+01  0.22576831079E+01  0.00000000000E+00 0.  1.
</event>
<event>
 8    1  0.5542925E-011  0.9118800E+02  0.7816164E-02  0.1184000E+00
        -11   -1    0    0    0    0  0.00000000000E+00  0.00000000000E+00  0.45593999997E+02  0.45594000000E+02  0.51100000000E-03 0. -1.
         11   -1    0    0    0    0 -0.00000000000E+00 -0.00000000000E+00 -0.45593999997E+02  0.45594000000E+02  0.51100000000E-03 0.  1.
         23    2    1    2    0    0  0.17763568394E-14  0.35527136788E-14  0.00000000000E+00  0.91188000000E+02  0.91188000000E+02 0.  0.
    9900012    2    3    3    0    0  0.11379807633E+02  0.23503363154E+02 -0.34665770250E+02  0.47787265809E+02  0.19999976130E+02 0.  0.
         12    1    3    3    0    0 -0.11379807633E+02 -0.23503363154E+02  0.34665770250E+02  0.43400734191E+02  0.00000000000E+00 0. -1.
         11    1    4    4    0    0  0.75157560038E+00  0.88423397729E+01 -0.24279445338E+01  0.92003670287E+01  0.51100000000E-03 0. -1.
        -11    1    4    4    0    0  0.58906720127E+01  0.86180512006E+01 -0.79711034228E+01  0.13134280083E+02  0.51100000000E-03 0.  1.
        -12    1    4    4    0    0  0.47375600194E+01  0.60429721803E+01 -0.24266722293E+02  0.25452618698E+02  0.00000000000E+00 0.  1.
</event>
<event>
 8    1  0.5542925E-011  0.9118800E+02  0.7816164E-02  0.1184000E+00
        -11   -1    0    0    0    0  0.00000000000E+00  0.00000000000E+00  0.45593999997E+02  0.45594000000E+02  0.51100000000E-03 0.  1.
         11   -1    0    0    0    0 -0.00000000000E+00 -0.00000000000E+00 -0.45593999997E+02  0.45594000000E+02  0.51100000000E-03 0. -1.
         23    2    1    2    0    0 -0.71054273576E-14  0.35527136788E-14  0.00000000000E+00  0.91188000000E+02  0.91188000000E+02 0.  0.
    9900012    2    3    3    0    0  0.34350855125E+02  0.25995310446E+02 -0.52807152610E+01  0.47787269975E+02  0.19999995124E+02 0.  0.
         12    1    3    3    0    0 -0.34350855125E+02 -0.25995310446E+02  0.52807152610E+01  0.43400730025E+02  0.00000000000E+00 0. -1.
         11    1    4    4    0    0  0.16037075372E+02  0.14928110515E+02 -0.70878492048E+01  0.23027676319E+02  0.51100000000E-03 0. -1.
        -11    1    4    4    0    0  0.11676540085E+02  0.91320042713E+01 -0.44059719687E+01  0.15464400396E+02  0.51100000000E-03 0.  1.
        -12    1    4    4    0    0  0.66372396683E+01  0.19351956595E+01  0.62131059124E+01  0.92951932597E+01  0.00000000000E+00 0.  1.
</event>
<event>
 8    1  0.5542925E-011  0.9118800E+02  0.7816164E-02  0.1184000E+00
        -11   -1    0    0    0    0  0.00000000000E+00  0.00000000000E+00  0.45593999997E+02  0.45594000000E+02  0.51100000000E-03 0. -1.
         11   -1    0    0    0    0 -0.00000000000E+00 -0.00000000000E+00 -0.45593999997E+02  0.45594000000E+02  0.51100000000E-03 0.  1.
         23    2    1    2    0    0 -0.17763568394E-14  0.17763568394E-14  0.00000000000E+00  0.91188000000E+02  0.91188000000E+02 0.  0.
    9900012    2    3    3    0    0 -0.13681070946E+02  0.11167603713E+02  0.39645133710E+02  0.47787266114E+02  0.19999977522E+02 0.  0.
        -12    1    3    3    0    0  0.13681070946E+02 -0.11167603713E+02 -0.39645133710E+02  0.43400733886E+02  0.00000000000E+00 0.  1.
         11    1    4    4    0    0 -0.95468268232E+01  0.23475627175E+01  0.18578564737E+02  0.21019420093E+02  0.51100000000E-03 0.  1.
        -11    1    4    4    0    0  0.14793186154E+00  0.46639088451E+01  0.20207037464E+02  0.20738811270E+02  0.51100000000E-03 0. -1.
        -12    1    4    4    0    0 -0.42821759845E+01  0.41561321507E+01  0.85953150866E+00  0.60290347512E+01  0.00000000000E+00 0.  1.
</event>
<event>
 8    1  0.5542925E-011  0.9118800E+02  0.7816164E-02  0.1184000E+00
        -11   -1    0    0    0    0  0.00000000000E+00  0.00000000000E+00  0.45593999997E+02  0.45594000000E+02  0.51100000000E-03 0. -1.
         11   -1    0    0    0    0 -0.00000000000E+00 -0.00000000000E+00 -0.45593999997E+02  0.45594000000E+02  0.51100000000E-03 0.  1.
         23    2    1    2    0    0  0.35527136788E-14 -0.71054273576E-14  0.00000000000E+00  0.91188000000E+02  0.91188000000E+02 0.  0.
    9900012    2    3    3    0    0  0.16527511123E+02 -0.32578069082E+02  0.23433607742E+02  0.47787272116E+02  0.20000004886E+02 0.  0.
        -12    1    3    3    0    0 -0.16527511123E+02  0.32578069082E+02 -0.23433607742E+02  0.43400727884E+02  0.00000000000E+00 0.  1.
         11    1    4    4    0    0  0.10369839724E+02 -0.71771362984E+01  0.64182965493E+01  0.14150596885E+02  0.51100000000E-03 0. -1.
        -11    1    4    4    0    0  0.30878663257E+01 -0.18668060427E+02  0.50768546941E+01  0.19590963539E+02  0.51100000000E-03 0.  1.
         12    1    4    4    0    0  0.30698050730E+01 -0.67328723570E+01  0.11938456499E+02  0.14045711692E+02  0.00000000000E+00 0. -1.
</event>
<event>
 8    1  0.5542925E-011  0.9118800E+02  0.7816164E-02  0.1184000E+00
        -11   -1    0    0    0    0  0.00000000000E+00  0.00000000000E+00  0.45593999997E+02  0.45594000000E+02  0.51100000000E-03 0. -1.
         11   -1    0    0    0    0 -0.00000000000E+00 -0.00000000000E+00 -0.45593999997E+02  0.45594000000E+02  0.51100000000E-03 0.  1.
         23    2    1    2    0    0  0.00000000000E+00 -0.44408920985E-15  0.00000000000E+00  0.91188000000E+02  0.91188000000E+02 0.  0.
    9900012    2    3    3    0    0  0.82189004925E+01 -0.15264252912E+01  0.42588080137E+02  0.47787252665E+02  0.19999916200E+02 0.  0.
        -12    1    3    3    0    0 -0.82189004925E+01  0.15264252912E+01 -0.42588080137E+02  0.43400747335E+02  0.00000000000E+00 0.  1.
         11    1    4    4    0    0  0.13013743560E+02  0.42185816903E+01  0.22483577307E+02  0.26318533426E+02  0.51100000000E-03 0. -1.
        -11    1    4    4    0    0 -0.18518881056E+01 -0.28767908642E+01  0.90659241792E+01  0.96900153104E+01  0.51100000000E-03 0.  1.
         12    1    4    4    0    0 -0.29429549614E+01 -0.28682161173E+01  0.11038578651E+02  0.11778703929E+02  0.00000000000E+00 0. -1.
</event>
<event>
 8    1  0.5542925E-011  0.9118800E+02  0.7816164E-02  0.1184000E+00
        -11   -1    0    0    0    0  0.00000000000E+00  0.00000000000E+00  0.45593999997E+02  0.45594000000E+02  0.51100000000E-03 0. -1.
         11   -1    0    0    0    0 -0.00000000000E+00 -0.00000000000E+00 -0.45593999997E+02  0.45594000000E+02  0.51100000000E-03 0.  1.
         23    2    1    2    0    0  0.00000000000E+00  0.00000000000E+00  0.00000000000E+00  0.91188000000E+02  0.91188000000E+02 0.  0.
    9900012    2    3    3    0    0 -0.78473886927E+01  0.65066888567E+01  0.42186547478E+02  0.47787270775E+02  0.19999998770E+02 0.  0.
        -12    1    3    3    0    0  0.78473886927E+01 -0.65066888567E+01 -0.42186547478E+02  0.43400729225E+02  0.00000000000E+00 0.  1.
         11    1    4    4    0    0 -0.67005125282E+01  0.12249099844E+01  0.14484825085E+02  0.16006480894E+02  0.51100000000E-03 0. -1.
        -11    1    4    4    0    0 -0.41427456829E+00 -0.48074616195E+01  0.51126180823E+01  0.70300906507E+01  0.51100000000E-03 0.  1.
         12    1    4    4    0    0 -0.73260159627E+00  0.10089240492E+02  0.22589104311E+02  0.24750699230E+02  0.00000000000E+00 0. -1.
</event>
<event>
 8    1  0.5542925E-011  0.9118800E+02  0.7816164E-02  0.1184000E+00
        -11   -1    0    0    0    0  0.00000000000E+00  0.00000000000E+00  0.45593999997E+02  0.45594000000E+02  0.51100000000E-03 0. -1.
         11   -1    0    0    0    0 -0.00000000000E+00 -0.00000000000E+00 -0.45593999997E+02  0.45594000000E+02  0.51100000000E-03 0.  1.
         23    2    1    2    0    0  0.00000000000E+00  0.00000000000E+00  0.00000000000E+00  0.91188000000E+02  0.91188000000E+02 0.  0.
    9900012    2    3    3    0    0  0.10512093895E+02  0.19453802337E+02 -0.37345263326E+02  0.47787271477E+02  0.20000001972E+02 0.  0.
         12    1    3    3    0    0 -0.10512093895E+02 -0.19453802337E+02  0.37345263326E+02  0.43400728523E+02  0.00000000000E+00 0. -1.
         11    1    4    4    0    0  0.26441928658E+01  0.14962612234E+02 -0.16435017949E+02  0.22382612359E+02  0.51100000000E-03 0.  1.
        -11    1    4    4    0    0 -0.28131737863E+01  0.91964793080E+00 -0.62719024879E+01  0.69351611479E+01  0.51100000000E-03 0. -1.
        -12    1    4    4    0    0  0.10681074816E+02  0.35715421722E+01 -0.14638342890E+02  0.18469497970E+02  0.00000000000E+00 0.  1.
</event>
<event>
 8    1  0.5542925E-011  0.9118800E+02  0.7816164E-02  0.1184000E+00
        -11   -1    0    0    0    0  0.00000000000E+00  0.00000000000E+00  0.45593999997E+02  0.45594000000E+02  0.51100000000E-03 0. -1.
         11   -1    0    0    0    0 -0.00000000000E+00 -0.00000000000E+00 -0.45593999997E+02  0.45594000000E+02  0.51100000000E-03 0.  1.
         23    2    1    2    0    0  0.00000000000E+00 -0.71054273576E-14  0.00000000000E+00  0.91188000000E+02  0.91188000000E+02 0.  0.
    9900012    2    3    3    0    0 -0.24508611489E+02 -0.33968304659E+02 -0.11362483508E+02  0.47787265099E+02  0.19999972891E+02 0.  0.
         12    1    3    3    0    0  0.24508611489E+02  0.33968304659E+02  0.11362483508E+02  0.43400734901E+02  0.00000000000E+00 0. -1.
         11    1    4    4    0    0 -0.13710899891E+02 -0.15223161818E+02 -0.34534366843E+01  0.20776420691E+02  0.51100000000E-03 0. -1.
        -11    1    4    4    0    0 -0.12888140129E+02 -0.10981051430E+02 -0.85055940901E+01  0.18948160269E+02  0.51100000000E-03 0.  1.
         12    1    4    4    0    0  0.20904285306E+01 -0.77640914110E+01  0.59654726663E+00  0.80626841388E+01  0.00000000000E+00 0. -1.
</event>
<event>
 8    1  0.5542925E-011  0.9118800E+02  0.7816164E-02  0.1184000E+00
        -11   -1    0    0    0    0  0.00000000000E+00  0.00000000000E+00  0.45593999997E+02  0.45594000000E+02  0.51100000000E-03 0.  1.
         11   -1    0    0    0    0 -0.00000000000E+00 -0.00000000000E+00 -0.45593999997E+02  0.45594000000E+02  0.51100000000E-03 0. -1.
         23    2    1    2    0    0  0.00000000000E+00  0.00000000000E+00  0.00000000000E+00  0.91188000000E+02  0.91188000000E+02 0.  0.
    9900012    2    3    3    0    0 -0.37731964545E+02  0.60422698424E+01 -0.20576996142E+02  0.47787274851E+02  0.20000017354E+02 0.  0.
         12    1    3    3    0    0  0.37731964545E+02 -0.60422698424E+01  0.20576996142E+02  0.43400725149E+02  0.00000000000E+00 0. -1.
         11    1    4    4    0    0 -0.11100892830E+02 -0.69666458944E+00 -0.24866651847E+01  0.11397309646E+02  0.51100000000E-03 0. -1.
        -11    1    4    4    0    0 -0.67826400698E+01  0.81109633744E+01 -0.19076684153E+01  0.10743888133E+02  0.51100000000E-03 0.  1.
         12    1    4    4    0    0 -0.19848431645E+02 -0.13720289425E+01 -0.16182662542E+02  0.25646077071E+02  0.00000000000E+00 0. -1.
</event>
<event>
 8    1  0.5542925E-011  0.9118800E+02  0.7816164E-02  0.1184000E+00
        -11   -1    0    0    0    0  0.00000000000E+00  0.00000000000E+00  0.45593999997E+02  0.45594000000E+02  0.51100000000E-03 0. -1.
         11   -1    0    0    0    0 -0.00000000000E+00 -0.00000000000E+00 -0.45593999997E+02  0.45594000000E+02  0.51100000000E-03 0.  1.
         23    2    1    2    0    0  0.00000000000E+00  0.00000000000E+00  0.35527136788E-14  0.91188000000E+02  0.91188000000E+02 0.  0.
    9900012    2    3    3    0    0  0.17016878428E+02 -0.28847718743E+02  0.27601789818E+02  0.47787264646E+02  0.19999970827E+02 0.  0.
        -12    1    3    3    0    0 -0.17016878428E+02  0.28847718743E+02 -0.27601789818E+02  0.43400735354E+02  0.00000000000E+00 0.  1.
         11    1    4    4    0    0  0.10097656803E+02 -0.12530106285E+02  0.21099878940E+02  0.26536222941E+02  0.51100000000E-03 0. -1.
        -11    1    4    4    0    0  0.32667782750E+01 -0.11326246364E+02  0.87389217659E+01  0.14673937811E+02  0.51100000000E-03 0.  1.
        -12    1    4    4    0    0  0.36524433498E+01 -0.49913660946E+01 -0.22370108884E+01  0.65771038937E+01  0.00000000000E+00 0.  1.
</event>
<event>
 8    1  0.5542925E-011  0.9118800E+02  0.7816164E-02  0.1184000E+00
        -11   -1    0    0    0    0  0.00000000000E+00  0.00000000000E+00  0.45593999997E+02  0.45594000000E+02  0.51100000000E-03 0. -1.
         11   -1    0    0    0    0 -0.00000000000E+00 -0.00000000000E+00 -0.45593999997E+02  0.45594000000E+02  0.51100000000E-03 0.  1.
         23    2    1    2    0    0  0.00000000000E+00  0.35527136788E-14 -0.17763568394E-14  0.91188000000E+02  0.91188000000E+02 0.  0.
    9900012    2    3    3    0    0 -0.34905390717E+02 -0.21113202831E+02  0.14814476590E+02  0.47787281671E+02  0.20000048449E+02 0.  0.
        -12    1    3    3    0    0  0.34905390717E+02  0.21113202831E+02 -0.14814476590E+02  0.43400718329E+02  0.00000000000E+00 0.  1.
         11    1    4    4    0    0 -0.15928239289E+02 -0.20766782728E+01  0.28846721538E+01  0.16320010208E+02  0.51100000000E-03 0. -1.
        -11    1    4    4    0    0 -0.12861175553E+02 -0.78954162733E+01  0.17673404427E+01  0.15194437378E+02  0.51100000000E-03 0.  1.
        -12    1    4    4    0    0 -0.61159758746E+01 -0.11141108285E+02  0.10162463993E+02  0.16272834084E+02  0.00000000000E+00 0.  1.
</event>
<event>
 8    1  0.1428721E-010  0.9118800E+02  0.7816164E-02  0.1184000E+00
        -11   -1    0    0    0    0  0.00000000000E+00  0.00000000000E+00  0.45593999997E+02  0.45594000000E+02  0.51100000000E-03 0. -1.
         11   -1    0    0    0    0 -0.00000000000E+00 -0.00000000000E+00 -0.45593999997E+02  0.45594000000E+02  0.51100000000E-03 0.  1.
         23    2    1    2    0    0  0.00000000000E+00  0.22204460493E-15  0.00000000000E+00  0.91188000000E+02  0.91188000000E+02 0.  0.
    9900012    2    3    3    0    0  0.21252674974E+02  0.21708134078E+00  0.37840459243E+02  0.47787266440E+02  0.19999979004E+02 0.  0.
        -12    1    3    3    0    0 -0.21252674974E+02 -0.21708134078E+00 -0.37840459243E+02  0.43400733560E+02  0.00000000000E+00 0.  1.
         11    1    4    4    0    0  0.56721296272E+01  0.61359382351E+01  0.12100496238E+02  0.14705264431E+02  0.51100000000E-03 0. -1.
        -11    1    4    4    0    0  0.45108335178E+01 -0.11537145696E+01 -0.47504646063E-02  0.46560389992E+01  0.51100000000E-03 0.  1.
         12    1    4    4    0    0  0.11069711829E+02 -0.47651423247E+01  0.25744713470E+02  0.28425963009E+02  0.00000000000E+00 0. -1.
</event>
<event>
 8    1  0.5542925E-011  0.9118800E+02  0.7816164E-02  0.1184000E+00
        -11   -1    0    0    0    0  0.00000000000E+00  0.00000000000E+00  0.45593999997E+02  0.45594000000E+02  0.51100000000E-03 0. -1.
         11   -1    0    0    0    0 -0.00000000000E+00 -0.00000000000E+00 -0.45593999997E+02  0.45594000000E+02  0.51100000000E-03 0.  1.
         23    2    1    2    0    0  0.35527136788E-14  0.00000000000E+00  0.35527136788E-14  0.91188000000E+02  0.91188000000E+02 0.  0.
    9900012    2    3    3    0    0 -0.26509699619E+02  0.19720495027E+02 -0.28141805519E+02  0.47787270561E+02  0.19999997795E+02 0.  0.
         12    1    3    3    0    0  0.26509699619E+02 -0.19720495027E+02  0.28141805519E+02  0.43400729439E+02  0.00000000000E+00 0. -1.
         11    1    4    4    0    0 -0.14999416210E+01  0.26884241447E+00  0.22968985676E+01  0.27564187637E+01  0.51100000000E-03 0. -1.
        -11    1    4    4    0    0 -0.23053510480E+01  0.68265200530E+01 -0.67849435714E+01  0.98970439535E+01  0.51100000000E-03 0.  1.
        -12    1    4    4    0    0 -0.22704406950E+02  0.12625132559E+02 -0.23653760515E+02  0.35133807844E+02  0.00000000000E+00 0.  1.
</event>
<event>
 8    1  0.5542925E-011  0.9118800E+02  0.7816164E-02  0.1184000E+00
        -11   -1    0    0    0    0  0.00000000000E+00  0.00000000000E+00  0.45593999997E+02  0.45594000000E+02  0.51100000000E-03 0. -1.
         11   -1    0    0    0    0 -0.00000000000E+00 -0.00000000000E+00 -0.45593999997E+02  0.45594000000E+02  0.51100000000E-03 0.  1.
         23    2    1    2    0    0 -0.35527136788E-14  0.00000000000E+00  0.00000000000E+00  0.91188000000E+02  0.91188000000E+02 0.  0.
    9900012    2    3    3    0    0 -0.24982450231E+02  0.23901556805E+02  0.26233872703E+02  0.47787270580E+02  0.19999997882E+02 0.  0.
        -12    1    3    3    0    0  0.24982450231E+02 -0.23901556805E+02 -0.26233872703E+02  0.43400729420E+02  0.00000000000E+00 0.  1.
         11    1    4    4    0    0 -0.11979752011E+02  0.14823754308E+02  0.64816667805E+01  0.20131322723E+02  0.51100000000E-03 0. -1.
        -11    1    4    4    0    0 -0.11526892165E+02  0.94478815897E+01  0.10383485404E+02  0.18164483998E+02  0.51100000000E-03 0.  1.
        -12    1    4    4    0    0 -0.14758060542E+01 -0.37007909357E+00  0.93687205180E+01  0.94914638592E+01  0.00000000000E+00 0.  1.
</event>
<event>
 8    1  0.5542925E-011  0.9118800E+02  0.7816164E-02  0.1184000E+00
        -11   -1    0    0    0    0  0.00000000000E+00  0.00000000000E+00  0.45593999997E+02  0.45594000000E+02  0.51100000000E-03 0. -1.
         11   -1    0    0    0    0 -0.00000000000E+00 -0.00000000000E+00 -0.45593999997E+02  0.45594000000E+02  0.51100000000E-03 0.  1.
         23    2    1    2    0    0  0.00000000000E+00  0.00000000000E+00  0.00000000000E+00  0.91188000000E+02  0.91188000000E+02 0.  0.
    9900012    2    3    3    0    0 -0.21712203486E+02  0.19755699732E+02  0.31967415943E+02  0.47787272654E+02  0.20000007337E+02 0.  0.
        -12    1    3    3    0    0  0.21712203486E+02 -0.19755699732E+02 -0.31967415943E+02  0.43400727346E+02  0.00000000000E+00 0.  1.
         11    1    4    4    0    0 -0.51498445977E+01  0.45995422299E+01  0.63692595385E+01  0.93938360340E+01  0.51100000000E-03 0. -1.
        -11    1    4    4    0    0 -0.16890900986E+01 -0.21398868389E+01 -0.13867048644E+01  0.30586094367E+01  0.51100000000E-03 0.  1.
        -12    1    4    4    0    0 -0.14873268790E+02  0.17296044341E+02  0.26984861269E+02  0.35334827183E+02  0.00000000000E+00 0.  1.
</event>
<event>
 8    1  0.5542925E-011  0.9118800E+02  0.7816164E-02  0.1184000E+00
        -11   -1    0    0    0    0  0.00000000000E+00  0.00000000000E+00  0.45593999997E+02  0.45594000000E+02  0.51100000000E-03 0.  1.
         11   -1    0    0    0    0 -0.00000000000E+00 -0.00000000000E+00 -0.45593999997E+02  0.45594000000E+02  0.51100000000E-03 0. -1.
         23    2    1    2    0    0  0.00000000000E+00 -0.71054273576E-14 -0.88817841970E-15  0.91188000000E+02  0.91188000000E+02 0.  0.
    9900012    2    3    3    0    0  0.13033865529E+02 -0.40825264788E+02 -0.68585241003E+01  0.47787271337E+02  0.20000001336E+02 0.  0.
        -12    1    3    3    0    0 -0.13033865529E+02  0.40825264788E+02  0.68585241003E+01  0.43400728663E+02  0.00000000000E+00 0.  1.
         11    1    4    4    0    0 -0.20700090212E+01  0.80448225020E+00 -0.18517210280E+01  0.28915393937E+01  0.51100000000E-03 0.  1.
        -11    1    4    4    0    0  0.85897282061E+01 -0.29498821987E+02 -0.19152121762E+01  0.30783631482E+02  0.51100000000E-03 0. -1.
        -12    1    4    4    0    0  0.65141463438E+01 -0.12130925051E+02 -0.30915908960E+01  0.14112100462E+02  0.00000000000E+00 0.  1.
</event>
<event>
 8    1  0.5542925E-011  0.9118800E+02  0.7816164E-02  0.1184000E+00
        -11   -1    0    0    0    0  0.00000000000E+00  0.00000000000E+00  0.45593999997E+02  0.45594000000E+02  0.51100000000E-03 0. -1.
         11   -1    0    0    0    0 -0.00000000000E+00 -0.00000000000E+00 -0.45593999997E+02  0.45594000000E+02  0.51100000000E-03 0.  1.
         23    2    1    2    0    0  0.00000000000E+00  0.00000000000E+00  0.00000000000E+00  0.91188000000E+02  0.91188000000E+02 0.  0.
    9900012    2    3    3    0    0  0.36446770421E+02  0.13808866832E+02  0.19093742313E+02  0.47787275665E+02  0.20000021068E+02 0.  0.
        -12    1    3    3    0    0 -0.36446770421E+02 -0.13808866832E+02 -0.19093742313E+02  0.43400724335E+02  0.00000000000E+00 0.  1.
         11    1    4    4    0    0  0.59225286049E+01  0.54124139856E+01  0.80875476319E+01  0.11392058514E+02  0.51100000000E-03 0. -1.
        -11    1    4    4    0    0  0.17026397755E+02  0.11603953310E+02  0.45898986666E+01  0.21109645259E+02  0.51100000000E-03 0.  1.
        -12    1    4    4    0    0  0.13497844061E+02 -0.32075004641E+01  0.64162960144E+01  0.15285571892E+02  0.00000000000E+00 0.  1.
</event>
<event>
 8    1  0.5542925E-011  0.9118800E+02  0.7816164E-02  0.1184000E+00
        -11   -1    0    0    0    0  0.00000000000E+00  0.00000000000E+00  0.45593999997E+02  0.45594000000E+02  0.51100000000E-03 0. -1.
         11   -1    0    0    0    0 -0.00000000000E+00 -0.00000000000E+00 -0.45593999997E+02  0.45594000000E+02  0.51100000000E-03 0.  1.
         23    2    1    2    0    0  0.00000000000E+00  0.35527136788E-14  0.00000000000E+00  0.91188000000E+02  0.91188000000E+02 0.  0.
    9900012    2    3    3    0    0  0.83308157057E+01 -0.25873800816E+02  0.33834407566E+02  0.47787271961E+02  0.20000004178E+02 0.  0.
        -12    1    3    3    0    0 -0.83308157057E+01  0.25873800816E+02 -0.33834407566E+02  0.43400728039E+02  0.00000000000E+00 0.  1.
         11    1    4    4    0    0 -0.20434147936E+01 -0.11557915021E+02  0.12875029547E+02  0.17422035752E+02  0.51100000000E-03 0. -1.
        -11    1    4    4    0    0 -0.22094422637E+01 -0.68263768814E+01  0.52612777640E+01  0.88973086051E+01  0.51100000000E-03 0.  1.
         12    1    4    4    0    0  0.12583672763E+02 -0.74895089137E+01  0.15698100255E+02  0.21467927603E+02  0.00000000000E+00 0. -1.
</event>
<event>
 8    1  0.5542925E-011  0.9118800E+02  0.7816164E-02  0.1184000E+00
        -11   -1    0    0    0    0  0.00000000000E+00  0.00000000000E+00  0.45593999997E+02  0.45594000000E+02  0.51100000000E-03 0. -1.
         11   -1    0    0    0    0 -0.00000000000E+00 -0.00000000000E+00 -0.45593999997E+02  0.45594000000E+02  0.51100000000E-03 0.  1.
         23    2    1    2    0    0 -0.44408920985E-15  0.35527136788E-14  0.00000000000E+00  0.91188000000E+02  0.91188000000E+02 0.  0.
    9900012    2    3    3    0    0  0.36940234275E+01  0.28823704116E+02 -0.32236185120E+02  0.47787270062E+02  0.19999995520E+02 0.  0.
         12    1    3    3    0    0 -0.36940234275E+01 -0.28823704116E+02  0.32236185120E+02  0.43400729938E+02  0.00000000000E+00 0. -1.
         11    1    4    4    0    0 -0.25713733032E+01  0.13167348353E+02 -0.19335773447E+02  0.23534297491E+02  0.51100000000E-03 0.  1.
        -11    1    4    4    0    0 -0.21659431539E+01  0.10054844694E+02 -0.51416123190E+01  0.11499016874E+02  0.51100000000E-03 0. -1.
         12    1    4    4    0    0  0.84313398845E+01  0.56015110686E+01 -0.77587993540E+01  0.12753955697E+02  0.00000000000E+00 0. -1.
</event>
<event>
 8    1  0.5542925E-011  0.9118800E+02  0.7816164E-02  0.1184000E+00
        -11   -1    0    0    0    0  0.00000000000E+00  0.00000000000E+00  0.45593999997E+02  0.45594000000E+02  0.51100000000E-03 0. -1.
         11   -1    0    0    0    0 -0.00000000000E+00 -0.00000000000E+00 -0.45593999997E+02  0.45594000000E+02  0.51100000000E-03 0.  1.
         23    2    1    2    0    0 -0.88817841970E-15  0.17763568394E-14  0.00000000000E+00  0.91188000000E+02  0.91188000000E+02 0.  0.
    9900012    2    3    3    0    0  0.61447857655E+01 -0.15178123789E+02 -0.40193156044E+02  0.47787266981E+02  0.19999981472E+02 0.  0.
         12    1    3    3    0    0 -0.61447857655E+01  0.15178123789E+02  0.40193156044E+02  0.43400733019E+02  0.00000000000E+00 0. -1.
         11    1    4    4    0    0 -0.25330801382E+01 -0.33154121859E+01 -0.14865419782E+02  0.15439856169E+02  0.51100000000E-03 0.  1.
        -11    1    4    4    0    0  0.12392055638E+01  0.30029810861E+01 -0.24533959655E+01  0.40709553986E+01  0.51100000000E-03 0. -1.
        -12    1    4    4    0    0  0.74386603399E+01 -0.14865692689E+02 -0.22874340296E+02  0.28276455413E+02  0.00000000000E+00 0.  1.
</event>
<event>
 8    1  0.7755922E-011  0.9118800E+02  0.7816164E-02  0.1184000E+00
        -11   -1    0    0    0    0  0.00000000000E+00  0.00000000000E+00  0.45593999997E+02  0.45594000000E+02  0.51100000000E-03 0. -1.
         11   -1    0    0    0    0 -0.00000000000E+00 -0.00000000000E+00 -0.45593999997E+02  0.45594000000E+02  0.51100000000E-03 0.  1.
         23    2    1    2    0    0  0.00000000000E+00  0.00000000000E+00  0.00000000000E+00  0.91188000000E+02  0.91188000000E+02 0.  0.
    9900012    2    3    3    0    0  0.38496572092E+02  0.16090683661E+02  0.11946860026E+02  0.47787266964E+02  0.19999981397E+02 0.  0.
        -12    1    3    3    0    0 -0.38496572092E+02 -0.16090683661E+02 -0.11946860026E+02  0.43400733036E+02  0.00000000000E+00 0.  1.
         11    1    4    4    0    0  0.46431651885E+00  0.22556337985E+01 -0.19433640691E+01  0.30133267046E+01  0.51100000000E-03 0. -1.
        -11    1    4    4    0    0 -0.48925274637E+00  0.12975130491E+00  0.21873302318E+01  0.22451319460E+01  0.51100000000E-03 0.  1.
         12    1    4    4    0    0  0.38521508320E+02  0.13705298558E+02  0.11702893863E+02  0.42528808314E+02  0.00000000000E+00 0. -1.
</event>
<event>
 8    1  0.5542925E-011  0.9118800E+02  0.7816164E-02  0.1184000E+00
        -11   -1    0    0    0    0  0.00000000000E+00  0.00000000000E+00  0.45593999997E+02  0.45594000000E+02  0.51100000000E-03 0. -1.
         11   -1    0    0    0    0 -0.00000000000E+00 -0.00000000000E+00 -0.45593999997E+02  0.45594000000E+02  0.51100000000E-03 0.  1.
         23    2    1    2    0    0 -0.17763568394E-14  0.00000000000E+00 -0.35527136788E-14  0.91188000000E+02  0.91188000000E+02 0.  0.
    9900012    2    3    3    0    0  0.10656727912E+02  0.27782229854E+02  0.31594385864E+02  0.47787270011E+02  0.19999995288E+02 0.  0.
        -12    1    3    3    0    0 -0.10656727912E+02 -0.27782229854E+02 -0.31594385864E+02  0.43400729989E+02  0.00000000000E+00 0.  1.
         11    1    4    4    0    0 -0.27928845288E+01  0.48351781496E+01  0.82724668634E+01  0.99806242288E+01  0.51100000000E-03 0. -1.
        -11    1    4    4    0    0  0.45715494128E+01 -0.57474082458E+00  0.33159766473E+01  0.56767149335E+01  0.51100000000E-03 0.  1.
        -12    1    4    4    0    0  0.88780630282E+01  0.23521792529E+02  0.20005942353E+02  0.32129930849E+02  0.00000000000E+00 0.  1.
</event>
<event>
 8    1  0.5542925E-011  0.9118800E+02  0.7816164E-02  0.1184000E+00
        -11   -1    0    0    0    0  0.00000000000E+00  0.00000000000E+00  0.45593999997E+02  0.45594000000E+02  0.51100000000E-03 0. -1.
         11   -1    0    0    0    0 -0.00000000000E+00 -0.00000000000E+00 -0.45593999997E+02  0.45594000000E+02  0.51100000000E-03 0.  1.
         23    2    1    2    0    0  0.00000000000E+00 -0.35527136788E-14  0.00000000000E+00  0.91188000000E+02  0.91188000000E+02 0.  0.
    9900012    2    3    3    0    0 -0.18997232724E+02 -0.18583812872E+02 -0.34312827887E+02  0.47787272936E+02  0.20000008625E+02 0.  0.
         12    1    3    3    0    0  0.18997232724E+02  0.18583812872E+02  0.34312827887E+02  0.43400727064E+02  0.00000000000E+00 0. -1.
         11    1    4    4    0    0 -0.22412652349E+00 -0.11414324502E+01  0.12452162186E+01  0.17040142104E+01  0.51100000000E-03 0. -1.
        -11    1    4    4    0    0 -0.31240973721E+01 -0.11762887978E+02 -0.10941457660E+02  0.16365849014E+02  0.51100000000E-03 0.  1.
         12    1    4    4    0    0 -0.15649008828E+02 -0.56794924445E+01 -0.24616586446E+02  0.29717409712E+02  0.00000000000E+00 0. -1.
</event>
<event>
 8    1  0.5542925E-011  0.9118800E+02  0.7816164E-02  0.1184000E+00
        -11   -1    0    0    0    0  0.00000000000E+00  0.00000000000E+00  0.45593999997E+02  0.45594000000E+02  0.51100000000E-03 0. -1.
         11   -1    0    0    0    0 -0.00000000000E+00 -0.00000000000E+00 -0.45593999997E+02  0.45594000000E+02  0.51100000000E-03 0.  1.
         23    2    1    2    0    0  0.35527136788E-14 -0.17763568394E-14  0.00000000000E+00  0.91188000000E+02  0.91188000000E+02 0.  0.
    9900012    2    3    3    0    0 -0.22377299468E+02 -0.14377015119E+02 -0.34295490947E+02  0.47787276567E+02  0.20000025179E+02 0.  0.
         12    1    3    3    0    0  0.22377299468E+02  0.14377015119E+02  0.34295490947E+02  0.43400723433E+02  0.00000000000E+00 0. -1.
         11    1    4    4    0    0 -0.10230934629E+02 -0.16460092266E+01 -0.95203534054E+01  0.14071904597E+02  0.51100000000E-03 0. -1.
        -11    1    4    4    0    0 -0.15511540773E+02 -0.10297230739E+02 -0.18994963259E+02  0.26597922617E+02  0.51100000000E-03 0.  1.
         12    1    4    4    0    0  0.33651759336E+01 -0.24337751527E+01 -0.57801742826E+01  0.71174493532E+01  0.00000000000E+00 0. -1.
</event>
<event>
 8    1  0.7603144E-011  0.9118800E+02  0.7816164E-02  0.1184000E+00
        -11   -1    0    0    0    0  0.00000000000E+00  0.00000000000E+00  0.45593999997E+02  0.45594000000E+02  0.51100000000E-03 0. -1.
         11   -1    0    0    0    0 -0.00000000000E+00 -0.00000000000E+00 -0.45593999997E+02  0.45594000000E+02  0.51100000000E-03 0.  1.
         23    2    1    2    0    0 -0.17763568394E-14 -0.22204460493E-15  0.71054273576E-14  0.91188000000E+02  0.91188000000E+02 0.  0.
    9900012    2    3    3    0    0 -0.13147352523E+02 -0.15982620983E+01  0.41330601617E+02  0.47787240212E+02  0.19999859423E+02 0.  0.
        -12    1    3    3    0    0  0.13147352523E+02  0.15982620983E+01 -0.41330601617E+02  0.43400759788E+02  0.00000000000E+00 0.  1.
         11    1    4    4    0    0 -0.94551280939E+00  0.26236288170E+01  0.20166639674E+01  0.34415630839E+01  0.51100000000E-03 0. -1.
        -11    1    4    4    0    0  0.26406722759E+01 -0.44830431061E+01  0.64682071016E+01  0.83011161256E+01  0.51100000000E-03 0.  1.
         12    1    4    4    0    0 -0.14842511990E+02  0.26115219084E+00  0.32845730548E+02  0.36044561003E+02  0.00000000000E+00 0. -1.
</event>
<event>
 8    1  0.5542925E-011  0.9118800E+02  0.7816164E-02  0.1184000E+00
        -11   -1    0    0    0    0  0.00000000000E+00  0.00000000000E+00  0.45593999997E+02  0.45594000000E+02  0.51100000000E-03 0.  1.
         11   -1    0    0    0    0 -0.00000000000E+00 -0.00000000000E+00 -0.45593999997E+02  0.45594000000E+02  0.51100000000E-03 0. -1.
         23    2    1    2    0    0  0.00000000000E+00 -0.35527136788E-14 -0.17763568394E-14  0.91188000000E+02  0.91188000000E+02 0.  0.
    9900012    2    3    3    0    0  0.37369208152E+02  0.16827968525E+02  0.14282338007E+02  0.47787269344E+02  0.19999992245E+02 0.  0.
        -12    1    3    3    0    0 -0.37369208152E+02 -0.16827968525E+02 -0.14282338007E+02  0.43400730656E+02  0.00000000000E+00 0.  1.
         11    1    4    4    0    0  0.30122315003E+01  0.22829926308E+01 -0.21982560654E+01  0.43724048251E+01  0.51100000000E-03 0. -1.
        -11    1    4    4    0    0  0.28952631609E+01  0.30622914807E+01 -0.25185954298E+01  0.49095316563E+01  0.51100000000E-03 0.  1.
         12    1    4    4    0    0  0.31461713491E+02  0.11482684413E+02  0.18999189502E+02  0.38505332862E+02  0.00000000000E+00 0. -1.
</event>
<event>
 8    1  0.5542925E-011  0.9118800E+02  0.7816164E-02  0.1184000E+00
        -11   -1    0    0    0    0  0.00000000000E+00  0.00000000000E+00  0.45593999997E+02  0.45594000000E+02  0.51100000000E-03 0. -1.
         11   -1    0    0    0    0 -0.00000000000E+00 -0.00000000000E+00 -0.45593999997E+02  0.45594000000E+02  0.51100000000E-03 0.  1.
         23    2    1    2    0    0  0.00000000000E+00 -0.71054273576E-14 -0.35527136788E-14  0.91188000000E+02  0.91188000000E+02 0.  0.
    9900012    2    3    3    0    0  0.20028833798E+02 -0.32014137692E+02  0.21390722116E+02  0.47787283553E+02  0.20000057030E+02 0.  0.
        -12    1    3    3    0    0 -0.20028833798E+02  0.32014137692E+02 -0.21390722116E+02  0.43400716447E+02  0.00000000000E+00 0.  1.
         11    1    4    4    0    0  0.67381914041E+01 -0.15545995951E+02  0.40332048068E+01  0.17416887057E+02  0.51100000000E-03 0. -1.
        -11    1    4    4    0    0  0.14735907206E+02 -0.15688984071E+02  0.11739751460E+02  0.24517604838E+02  0.51100000000E-03 0.  1.
        -12    1    4    4    0    0 -0.14452648118E+01 -0.77915767017E+00  0.56177658494E+01  0.58527916578E+01  0.00000000000E+00 0.  1.
</event>
<event>
 8    1  0.5542925E-011  0.9118800E+02  0.7816164E-02  0.1184000E+00
        -11   -1    0    0    0    0  0.00000000000E+00  0.00000000000E+00  0.45593999997E+02  0.45594000000E+02  0.51100000000E-03 0. -1.
         11   -1    0    0    0    0 -0.00000000000E+00 -0.00000000000E+00 -0.45593999997E+02  0.45594000000E+02  0.51100000000E-03 0.  1.
         23    2    1    2    0    0  0.17763568394E-14  0.71054273576E-14  0.71054273576E-14  0.91188000000E+02  0.91188000000E+02 0.  0.
    9900012    2    3    3    0    0 -0.10935013867E+02 -0.28398353077E+02 -0.30944819413E+02  0.47787276109E+02  0.20000023090E+02 0.  0.
         12    1    3    3    0    0  0.10935013867E+02  0.28398353077E+02  0.30944819413E+02  0.43400723891E+02  0.00000000000E+00 0. -1.
         11    1    4    4    0    0  0.19362010349E+01 -0.12461400355E+01 -0.39336011676E+01  0.45579554454E+01  0.51100000000E-03 0.  1.
        -11    1    4    4    0    0 -0.82950202227E+01 -0.24661637219E+02 -0.27665068850E+02  0.37978411572E+02  0.51100000000E-03 0. -1.
         12    1    4    4    0    0 -0.45761946790E+01 -0.24905758226E+01  0.65385060435E+00  0.52509090909E+01  0.00000000000E+00 0. -1.
</event>
<event>
 8    1  0.5542925E-011  0.9118800E+02  0.7816164E-02  0.1184000E+00
        -11   -1    0    0    0    0  0.00000000000E+00  0.00000000000E+00  0.45593999997E+02  0.45594000000E+02  0.51100000000E-03 0. -1.
         11   -1    0    0    0    0 -0.00000000000E+00 -0.00000000000E+00 -0.45593999997E+02  0.45594000000E+02  0.51100000000E-03 0.  1.
         23    2    1    2    0    0  0.00000000000E+00 -0.17763568394E-14  0.71054273576E-14  0.91188000000E+02  0.91188000000E+02 0.  0.
    9900012    2    3    3    0    0 -0.12343142581E+02  0.93048370846E+01 -0.40554782465E+02  0.47787267947E+02  0.19999985879E+02 0.  0.
         12    1    3    3    0    0  0.12343142581E+02 -0.93048370846E+01  0.40554782465E+02  0.43400732053E+02  0.00000000000E+00 0. -1.
         11    1    4    4    0    0 -0.33369328983E+01 -0.43988068841E+01 -0.92906454275E+01  0.10807437989E+02  0.51100000000E-03 0. -1.
        -11    1    4    4    0    0  0.16425855588E+01  0.38309557158E+01 -0.12967929264E+02  0.13621361851E+02  0.51100000000E-03 0.  1.
         12    1    4    4    0    0 -0.10648795241E+02  0.98726882529E+01 -0.18296207773E+02  0.23358468107E+02  0.00000000000E+00 0. -1.
</event>
<event>
 8    1  0.5542925E-011  0.9118800E+02  0.7816164E-02  0.1184000E+00
        -11   -1    0    0    0    0  0.00000000000E+00  0.00000000000E+00  0.45593999997E+02  0.45594000000E+02  0.51100000000E-03 0. -1.
         11   -1    0    0    0    0 -0.00000000000E+00 -0.00000000000E+00 -0.45593999997E+02  0.45594000000E+02  0.51100000000E-03 0.  1.
         23    2    1    2    0    0  0.00000000000E+00  0.00000000000E+00  0.71054273576E-14  0.91188000000E+02  0.91188000000E+02 0.  0.
    9900012    2    3    3    0    0  0.67176974022E+01  0.12498587733E+02  0.41015619348E+02  0.47787272078E+02  0.20000004711E+02 0.  0.
        -12    1    3    3    0    0 -0.67176974022E+01 -0.12498587733E+02 -0.41015619348E+02  0.43400727922E+02  0.00000000000E+00 0.  1.
         11    1    4    4    0    0  0.52997794342E+01  0.10378743281E+01  0.12897522259E+02  0.13982522156E+02  0.51100000000E-03 0. -1.
        -11    1    4    4    0    0  0.64070884685E+01  0.92745619733E+01  0.25242687173E+02  0.27645280581E+02  0.51100000000E-03 0.  1.
        -12    1    4    4    0    0 -0.49891705006E+01  0.21861514316E+01  0.28754099158E+01  0.61594693399E+01  0.00000000000E+00 0.  1.
</event>
<event>
 8    1  0.5542925E-011  0.9118800E+02  0.7816164E-02  0.1184000E+00
        -11   -1    0    0    0    0  0.00000000000E+00  0.00000000000E+00  0.45593999997E+02  0.45594000000E+02  0.51100000000E-03 0. -1.
         11   -1    0    0    0    0 -0.00000000000E+00 -0.00000000000E+00 -0.45593999997E+02  0.45594000000E+02  0.51100000000E-03 0.  1.
         23    2    1    2    0    0  0.17763568394E-14 -0.35527136788E-14  0.00000000000E+00  0.91188000000E+02  0.91188000000E+02 0.  0.
    9900012    2    3    3    0    0 -0.10628570415E+02 -0.26091691695E+02  0.33013337676E+02  0.47787270179E+02  0.19999996052E+02 0.  0.
        -12    1    3    3    0    0  0.10628570415E+02  0.26091691695E+02 -0.33013337676E+02  0.43400729821E+02  0.00000000000E+00 0.  1.
         11    1    4    4    0    0  0.17596957732E+01 -0.22846273101E+01  0.36179275428E+01  0.46266025469E+01  0.51100000000E-03 0. -1.
        -11    1    4    4    0    0  0.39675210933E+01 -0.26518736429E+01  0.33375745590E+01  0.58234922205E+01  0.51100000000E-03 0.  1.
        -12    1    4    4    0    0 -0.16355787281E+02 -0.21155190742E+02  0.26057835574E+02  0.37337175411E+02  0.00000000000E+00 0.  1.
</event>
<event>
 8    1  0.5542925E-011  0.9118800E+02  0.7816164E-02  0.1184000E+00
        -11   -1    0    0    0    0  0.00000000000E+00  0.00000000000E+00  0.45593999997E+02  0.45594000000E+02  0.51100000000E-03 0. -1.
         11   -1    0    0    0    0 -0.00000000000E+00 -0.00000000000E+00 -0.45593999997E+02  0.45594000000E+02  0.51100000000E-03 0.  1.
         23    2    1    2    0    0  0.00000000000E+00  0.00000000000E+00  0.00000000000E+00  0.91188000000E+02  0.91188000000E+02 0.  0.
    9900012    2    3    3    0    0 -0.37413618634E+02  0.11666121465E+02  0.18647948261E+02  0.47787271623E+02  0.20000002638E+02 0.  0.
        -12    1    3    3    0    0  0.37413618634E+02 -0.11666121465E+02 -0.18647948261E+02  0.43400728377E+02  0.00000000000E+00 0.  1.
         11    1    4    4    0    0 -0.21563380311E+01  0.37376518686E+01  0.29150420610E+01  0.52074279327E+01  0.51100000000E-03 0. -1.
        -11    1    4    4    0    0 -0.52897065133E+01  0.44710029361E+01 -0.24625117487E+01  0.73508384981E+01  0.51100000000E-03 0.  1.
         12    1    4    4    0    0 -0.29967574089E+02  0.34574666602E+01  0.18195417949E+02  0.35229005192E+02  0.00000000000E+00 0. -1.
</event>
<event>
 8    1  0.5542925E-011  0.9118800E+02  0.7816164E-02  0.1184000E+00
        -11   -1    0    0    0    0  0.00000000000E+00  0.00000000000E+00  0.45593999997E+02  0.45594000000E+02  0.51100000000E-03 0. -1.
         11   -1    0    0    0    0 -0.00000000000E+00 -0.00000000000E+00 -0.45593999997E+02  0.45594000000E+02  0.51100000000E-03 0.  1.
         23    2    1    2    0    0  0.00000000000E+00  0.00000000000E+00  0.35527136788E-14  0.91188000000E+02  0.91188000000E+02 0.  0.
    9900012    2    3    3    0    0 -0.95345681923E+01 -0.33895093744E+02  0.25373963034E+02  0.47787269930E+02  0.19999994920E+02 0.  0.
        -12    1    3    3    0    0  0.95345681923E+01  0.33895093744E+02 -0.25373963034E+02  0.43400730070E+02  0.00000000000E+00 0.  1.
         11    1    4    4    0    0 -0.25286008098E+01 -0.23562002045E+02  0.79459821830E+01  0.24994007192E+02  0.51100000000E-03 0. -1.
        -11    1    4    4    0    0 -0.70044989265E+00  0.55585713897E+00 -0.39382227826E+00  0.97708927894E+00  0.51100000000E-03 0.  1.
         12    1    4    4    0    0 -0.63055174899E+01 -0.10888948838E+02  0.17821803130E+02  0.21816173459E+02  0.00000000000E+00 0. -1.
</event>
<event>
 8    1  0.5542925E-011  0.9118800E+02  0.7816164E-02  0.1184000E+00
        -11   -1    0    0    0    0  0.00000000000E+00  0.00000000000E+00  0.45593999997E+02  0.45594000000E+02  0.51100000000E-03 0. -1.
         11   -1    0    0    0    0 -0.00000000000E+00 -0.00000000000E+00 -0.45593999997E+02  0.45594000000E+02  0.51100000000E-03 0.  1.
         23    2    1    2    0    0 -0.17763568394E-14 -0.44408920985E-15  0.00000000000E+00  0.91188000000E+02  0.91188000000E+02 0.  0.
    9900012    2    3    3    0    0 -0.92753809476E+01  0.12059518135E+01  0.42380845231E+02  0.47787273578E+02  0.20000011551E+02 0.  0.
        -12    1    3    3    0    0  0.92753809476E+01 -0.12059518135E+01 -0.42380845231E+02  0.43400726422E+02  0.00000000000E+00 0.  1.
         11    1    4    4    0    0 -0.34888215655E+01 -0.56704520334E+01  0.13216141692E+02  0.14798388550E+02  0.51100000000E-03 0. -1.
        -11    1    4    4    0    0 -0.40411148145E+01 -0.62453197544E+00  0.22301128896E+02  0.22672913342E+02  0.51100000000E-03 0.  1.
        -12    1    4    4    0    0 -0.17454445676E+01  0.75009358223E+01  0.68635746427E+01  0.10315971686E+02  0.00000000000E+00 0.  1.
</event>
<event>
 8    1  0.5542925E-011  0.9118800E+02  0.7816164E-02  0.1184000E+00
        -11   -1    0    0    0    0  0.00000000000E+00  0.00000000000E+00  0.45593999997E+02  0.45594000000E+02  0.51100000000E-03 0. -1.
         11   -1    0    0    0    0 -0.00000000000E+00 -0.00000000000E+00 -0.45593999997E+02  0.45594000000E+02  0.51100000000E-03 0.  1.
         23    2    1    2    0    0  0.00000000000E+00  0.00000000000E+00  0.00000000000E+00  0.91188000000E+02  0.91188000000E+02 0.  0.
    9900012    2    3    3    0    0 -0.92132095716E+01 -0.16979044845E+02  0.38864523778E+02  0.47787281078E+02  0.20000045747E+02 0.  0.
        -12    1    3    3    0    0  0.92132095716E+01  0.16979044845E+02 -0.38864523778E+02  0.43400718922E+02  0.00000000000E+00 0.  1.
         11    1    4    4    0    0 -0.94415836121E+01 -0.12537890299E+02  0.30984908315E+02  0.34733366347E+02  0.51100000000E-03 0. -1.
        -11    1    4    4    0    0  0.33614154176E+01 -0.51597119317E+01  0.76651132393E+01  0.98323802846E+01  0.51100000000E-03 0.  1.
        -12    1    4    4    0    0 -0.31330413771E+01  0.71855738553E+00  0.21450222405E+00  0.32215344467E+01  0.00000000000E+00 0.  1.
</event>
<event>
 8    1  0.5542925E-011  0.9118800E+02  0.7816164E-02  0.1184000E+00
        -11   -1    0    0    0    0  0.00000000000E+00  0.00000000000E+00  0.45593999997E+02  0.45594000000E+02  0.51100000000E-03 0. -1.
         11   -1    0    0    0    0 -0.00000000000E+00 -0.00000000000E+00 -0.45593999997E+02  0.45594000000E+02  0.51100000000E-03 0.  1.
         23    2    1    2    0    0 -0.88817841970E-15  0.00000000000E+00  0.00000000000E+00  0.91188000000E+02  0.91188000000E+02 0.  0.
    9900012    2    3    3    0    0 -0.12372961328E+01  0.10138011202E+02  0.42181901378E+02  0.47787274468E+02  0.20000015607E+02 0.  0.
        -12    1    3    3    0    0  0.12372961328E+01 -0.10138011202E+02 -0.42181901378E+02  0.43400725532E+02  0.00000000000E+00 0.  1.
         11    1    4    4    0    0  0.32830388393E+01  0.59178513940E-01  0.62846906897E+01  0.70907815820E+01  0.51100000000E-03 0. -1.
        -11    1    4    4    0    0  0.86870489729E+00  0.72889920082E+01  0.42695792515E+01  0.84919585456E+01  0.51100000000E-03 0.  1.
         12    1    4    4    0    0 -0.53890398694E+01  0.27898406801E+01  0.31627631437E+02  0.32204534340E+02  0.00000000000E+00 0. -1.
</event>
<event>
 8    1  0.5542925E-011  0.9118800E+02  0.7816164E-02  0.1184000E+00
        -11   -1    0    0    0    0  0.00000000000E+00  0.00000000000E+00  0.45593999997E+02  0.45594000000E+02  0.51100000000E-03 0. -1.
         11   -1    0    0    0    0 -0.00000000000E+00 -0.00000000000E+00 -0.45593999997E+02  0.45594000000E+02  0.51100000000E-03 0.  1.
         23    2    1    2    0    0  0.00000000000E+00 -0.35527136788E-14 -0.35527136788E-14  0.91188000000E+02  0.91188000000E+02 0.  0.
    9900012    2    3    3    0    0  0.28503419103E+02 -0.20311689206E+02  0.25663468222E+02  0.47787271664E+02  0.20000002823E+02 0.  0.
        -12    1    3    3    0    0 -0.28503419103E+02  0.20311689206E+02 -0.25663468222E+02  0.43400728336E+02  0.00000000000E+00 0.  1.
         11    1    4    4    0    0  0.20933454750E+02 -0.14446872006E+02  0.18344201152E+02  0.31359709097E+02  0.51100000000E-03 0. -1.
        -11    1    4    4    0    0  0.70018204659E+01 -0.51032315569E+01  0.10206446687E+02  0.13388054989E+02  0.51100000000E-03 0.  1.
        -12    1    4    4    0    0  0.56814388752E+00 -0.76158564262E+00 -0.28871796170E+01  0.30395075767E+01  0.00000000000E+00 0.  1.
</event>
<event>
 8    1  0.5542925E-011  0.9118800E+02  0.7816164E-02  0.1184000E+00
        -11   -1    0    0    0    0  0.00000000000E+00  0.00000000000E+00  0.45593999997E+02  0.45594000000E+02  0.51100000000E-03 0. -1.
         11   -1    0    0    0    0 -0.00000000000E+00 -0.00000000000E+00 -0.45593999997E+02  0.45594000000E+02  0.51100000000E-03 0.  1.
         23    2    1    2    0    0 -0.71054273576E-14  0.00000000000E+00  0.00000000000E+00  0.91188000000E+02  0.91188000000E+02 0.  0.
    9900012    2    3    3    0    0 -0.36585579403E+02 -0.14103722826E+02 -0.18606537788E+02  0.47787275740E+02  0.20000021411E+02 0.  0.
         12    1    3    3    0    0  0.36585579403E+02  0.14103722826E+02  0.18606537788E+02  0.43400724260E+02  0.00000000000E+00 0. -1.
         11    1    4    4    0    0 -0.61842147379E+01  0.38059270849E+01  0.86674824155E+00  0.73130599393E+01  0.51100000000E-03 0. -1.
        -11    1    4    4    0    0 -0.13275606612E+02 -0.88695844248E+01 -0.10661180865E+02  0.19198230035E+02  0.51100000000E-03 0.  1.
         12    1    4    4    0    0 -0.17125758053E+02 -0.90400654861E+01 -0.88121051648E+01  0.21275985766E+02  0.00000000000E+00 0. -1.
</event>
<event>
 8    1  0.5542925E-011  0.9118800E+02  0.7816164E-02  0.1184000E+00
        -11   -1    0    0    0    0  0.00000000000E+00  0.00000000000E+00  0.45593999997E+02  0.45594000000E+02  0.51100000000E-03 0. -1.
         11   -1    0    0    0    0 -0.00000000000E+00 -0.00000000000E+00 -0.45593999997E+02  0.45594000000E+02  0.51100000000E-03 0.  1.
         23    2    1    2    0    0  0.35527136788E-14  0.00000000000E+00 -0.35527136788E-14  0.91188000000E+02  0.91188000000E+02 0.  0.
    9900012    2    3    3    0    0 -0.31007205354E+02  0.16928869139E+02 -0.25210904466E+02  0.47787273069E+02  0.20000009231E+02 0.  0.
         12    1    3    3    0    0  0.31007205354E+02 -0.16928869139E+02  0.25210904466E+02  0.43400726931E+02  0.00000000000E+00 0. -1.
         11    1    4    4    0    0 -0.46054364762E+01  0.81475849193E+01 -0.18464906524E+01  0.95395342206E+01  0.51100000000E-03 0. -1.
        -11    1    4    4    0    0 -0.18800778032E+02  0.10861036705E+02 -0.13288462120E+02  0.25456130866E+02  0.51100000000E-03 0.  1.
         12    1    4    4    0    0 -0.76009908457E+01 -0.20797524858E+01 -0.10075951693E+02  0.12791607982E+02  0.00000000000E+00 0. -1.
</event>
<event>
 8    1  0.5542925E-011  0.9118800E+02  0.7816164E-02  0.1184000E+00
        -11   -1    0    0    0    0  0.00000000000E+00  0.00000000000E+00  0.45593999997E+02  0.45594000000E+02  0.51100000000E-03 0. -1.
         11   -1    0    0    0    0 -0.00000000000E+00 -0.00000000000E+00 -0.45593999997E+02  0.45594000000E+02  0.51100000000E-03 0.  1.
         23    2    1    2    0    0  0.17763568394E-14  0.17763568394E-14  0.00000000000E+00  0.91188000000E+02  0.91188000000E+02 0.  0.
    9900012    2    3    3    0    0 -0.14234704027E+02  0.14712967268E+02 -0.38269105423E+02  0.47787278411E+02  0.20000033588E+02 0.  0.
         12    1    3    3    0    0  0.14234704027E+02 -0.14712967268E+02  0.38269105423E+02  0.43400721589E+02  0.00000000000E+00 0. -1.
         11    1    4    4    0    0 -0.32885189781E+01  0.34404848910E+01 -0.49187134922E+01  0.68443433603E+01  0.51100000000E-03 0. -1.
        -11    1    4    4    0    0  0.70167100416E+00  0.11985384121E+02 -0.15288215018E+02  0.19438911838E+02  0.51100000000E-03 0.  1.
         12    1    4    4    0    0 -0.11647856053E+02 -0.71290174482E+00 -0.18062176913E+02  0.21504023213E+02  0.00000000000E+00 0. -1.
</event>
<event>
 8    1  0.5542925E-011  0.9118800E+02  0.7816164E-02  0.1184000E+00
        -11   -1    0    0    0    0  0.00000000000E+00  0.00000000000E+00  0.45593999997E+02  0.45594000000E+02  0.51100000000E-03 0.  1.
         11   -1    0    0    0    0 -0.00000000000E+00 -0.00000000000E+00 -0.45593999997E+02  0.45594000000E+02  0.51100000000E-03 0. -1.
         23    2    1    2    0    0 -0.71054273576E-14  0.00000000000E+00  0.00000000000E+00  0.91188000000E+02  0.91188000000E+02 0.  0.
    9900012    2    3    3    0    0  0.35229522141E+02  0.13011229615E+02 -0.21753438621E+02  0.47787269381E+02  0.19999992416E+02 0.  0.
         12    1    3    3    0    0 -0.35229522141E+02 -0.13011229615E+02  0.21753438621E+02  0.43400730619E+02  0.00000000000E+00 0. -1.
         11    1    4    4    0    0  0.24139282161E+01  0.39588707192E+00 -0.32267808680E+01  0.40491839965E+01  0.51100000000E-03 0. -1.
        -11    1    4    4    0    0  0.31125364522E+02  0.60572193224E+01 -0.10880909261E+02  0.33524206316E+02  0.51100000000E-03 0.  1.
        -12    1    4    4    0    0  0.16902294037E+01  0.65581232212E+01 -0.76457484918E+01  0.10213879068E+02  0.00000000000E+00 0.  1.
</event>
<event>
 8    1  0.5542925E-011  0.9118800E+02  0.7816164E-02  0.1184000E+00
        -11   -1    0    0    0    0  0.00000000000E+00  0.00000000000E+00  0.45593999997E+02  0.45594000000E+02  0.51100000000E-03 0. -1.
         11   -1    0    0    0    0 -0.00000000000E+00 -0.00000000000E+00 -0.45593999997E+02  0.45594000000E+02  0.51100000000E-03 0.  1.
         23    2    1    2    0    0  0.00000000000E+00 -0.35527136788E-14  0.00000000000E+00  0.91188000000E+02  0.91188000000E+02 0.  0.
    9900012    2    3    3    0    0 -0.23832873256E+01  0.30912524303E+02 -0.30370361752E+02  0.47787273160E+02  0.20000009647E+02 0.  0.
         12    1    3    3    0    0  0.23832873256E+01 -0.30912524303E+02  0.30370361752E+02  0.43400726840E+02  0.00000000000E+00 0. -1.
         11    1    4    4    0    0  0.34290174478E+01 -0.91651348230E+00 -0.23611149620E+01  0.42629827288E+01  0.51100000000E-03 0. -1.
        -11    1    4    4    0    0 -0.21475428447E+00 -0.62074712249E-01  0.39412153186E+00  0.45310563404E+00  0.51100000000E-03 0.  1.
        -12    1    4    4    0    0 -0.55975504890E+01  0.31891112498E+02 -0.28403368322E+02  0.43071184797E+02  0.00000000000E+00 0.  1.
</event>
<event>
 8    1  0.5542925E-011  0.9118800E+02  0.7816164E-02  0.1184000E+00
        -11   -1    0    0    0    0  0.00000000000E+00  0.00000000000E+00  0.45593999997E+02  0.45594000000E+02  0.51100000000E-03 0.  1.
         11   -1    0    0    0    0 -0.00000000000E+00 -0.00000000000E+00 -0.45593999997E+02  0.45594000000E+02  0.51100000000E-03 0. -1.
         23    2    1    2    0    0  0.00000000000E+00  0.00000000000E+00  0.00000000000E+00  0.91188000000E+02  0.91188000000E+02 0.  0.
    9900012    2    3    3    0    0 -0.35491462668E+02 -0.20979629775E+02 -0.13558557535E+02  0.47787271086E+02  0.20000000191E+02 0.  0.
        -12    1    3    3    0    0  0.35491462668E+02  0.20979629775E+02  0.13558557535E+02  0.43400728914E+02  0.00000000000E+00 0.  1.
         11    1    4    4    0    0 -0.14341441716E+02 -0.21271114945E+01 -0.33073780483E+01  0.14870786920E+02  0.51100000000E-03 0. -1.
        -11    1    4    4    0    0 -0.11535957319E+01 -0.27621655118E+01  0.28208636670E+01  0.41131026630E+01  0.51100000000E-03 0.  1.
        -12    1    4    4    0    0 -0.19996425220E+02 -0.16090352768E+02 -0.13072043154E+02  0.28803381503E+02  0.00000000000E+00 0.  1.
</event>
<event>
 8    1  0.5542925E-011  0.9118800E+02  0.7816164E-02  0.1184000E+00
        -11   -1    0    0    0    0  0.00000000000E+00  0.00000000000E+00  0.45593999997E+02  0.45594000000E+02  0.51100000000E-03 0. -1.
         11   -1    0    0    0    0 -0.00000000000E+00 -0.00000000000E+00 -0.45593999997E+02  0.45594000000E+02  0.51100000000E-03 0.  1.
         23    2    1    2    0    0  0.00000000000E+00  0.00000000000E+00  0.17763568394E-14  0.91188000000E+02  0.91188000000E+02 0.  0.
    9900012    2    3    3    0    0 -0.65605791025E+01  0.41312591631E+02 -0.11569448710E+02  0.47787267645E+02  0.19999984503E+02 0.  0.
         12    1    3    3    0    0  0.65605791025E+01 -0.41312591631E+02  0.11569448710E+02  0.43400732355E+02  0.00000000000E+00 0. -1.
         11    1    4    4    0    0 -0.57356901543E+01  0.19655102633E+02 -0.53304824187E+00  0.20481829550E+02  0.51100000000E-03 0. -1.
        -11    1    4    4    0    0 -0.10237542409E+01  0.11226705704E+02  0.10700797118E+01  0.11323959756E+02  0.51100000000E-03 0.  1.
         12    1    4    4    0    0  0.19886529272E+00  0.10430783295E+02 -0.12106480180E+02  0.15981478339E+02  0.00000000000E+00 0. -1.
</event>
<event>
 8    1  0.5542925E-011  0.9118800E+02  0.7816164E-02  0.1184000E+00
        -11   -1    0    0    0    0  0.00000000000E+00  0.00000000000E+00  0.45593999997E+02  0.45594000000E+02  0.51100000000E-03 0. -1.
         11   -1    0    0    0    0 -0.00000000000E+00 -0.00000000000E+00 -0.45593999997E+02  0.45594000000E+02  0.51100000000E-03 0.  1.
         23    2    1    2    0    0  0.00000000000E+00  0.00000000000E+00  0.35527136788E-14  0.91188000000E+02  0.91188000000E+02 0.  0.
    9900012    2    3    3    0    0 -0.34367074625E+02  0.29268087050E+01 -0.26343144034E+02  0.47787271145E+02  0.20000000461E+02 0.  0.
         12    1    3    3    0    0  0.34367074625E+02 -0.29268087050E+01  0.26343144034E+02  0.43400728855E+02  0.00000000000E+00 0. -1.
         11    1    4    4    0    0 -0.13552611235E+02  0.23625639180E+01 -0.21375415266E+01  0.13922071096E+02  0.51100000000E-03 0. -1.
        -11    1    4    4    0    0 -0.11919145009E+02 -0.37124011556E+01 -0.78027086697E+01  0.14721759505E+02  0.51100000000E-03 0.  1.
        -12    1    4    4    0    0 -0.88953183810E+01  0.42766459426E+01 -0.16402893838E+02  0.19143440544E+02  0.00000000000E+00 0.  1.
</event>
<event>
 8    1  0.5542925E-011  0.9118800E+02  0.7816164E-02  0.1184000E+00
        -11   -1    0    0    0    0  0.00000000000E+00  0.00000000000E+00  0.45593999997E+02  0.45594000000E+02  0.51100000000E-03 0. -1.
         11   -1    0    0    0    0 -0.00000000000E+00 -0.00000000000E+00 -0.45593999997E+02  0.45594000000E+02  0.51100000000E-03 0.  1.
         23    2    1    2    0    0  0.00000000000E+00  0.17763568394E-14  0.00000000000E+00  0.91188000000E+02  0.91188000000E+02 0.  0.
    9900012    2    3    3    0    0  0.24268735069E+02 -0.13054014672E+02 -0.33529747358E+02  0.47787276978E+02  0.20000027055E+02 0.  0.
         12    1    3    3    0    0 -0.24268735069E+02  0.13054014672E+02  0.33529747358E+02  0.43400723022E+02  0.00000000000E+00 0. -1.
         11    1    4    4    0    0  0.17666472132E+01 -0.74973183286E+01 -0.33275915934E+01  0.83906907088E+01  0.51100000000E-03 0. -1.
        -11    1    4    4    0    0  0.66798981706E+01 -0.66290832856E+01 -0.10372798816E+02  0.14005739549E+02  0.51100000000E-03 0.  1.
         12    1    4    4    0    0  0.15822189686E+02  0.10723869424E+01 -0.19829356949E+02  0.25390846721E+02  0.00000000000E+00 0. -1.
</event>
<event>
 8    1  0.5542925E-011  0.9118800E+02  0.7816164E-02  0.1184000E+00
        -11   -1    0    0    0    0  0.00000000000E+00  0.00000000000E+00  0.45593999997E+02  0.45594000000E+02  0.51100000000E-03 0. -1.
         11   -1    0    0    0    0 -0.00000000000E+00 -0.00000000000E+00 -0.45593999997E+02  0.45594000000E+02  0.51100000000E-03 0.  1.
         23    2    1    2    0    0  0.00000000000E+00 -0.88817841970E-15  0.71054273576E-14  0.91188000000E+02  0.91188000000E+02 0.  0.
    9900012    2    3    3    0    0  0.11632970689E+02  0.61837510815E+01 -0.41352852602E+02  0.47787271863E+02  0.20000003733E+02 0.  0.
         12    1    3    3    0    0 -0.11632970689E+02 -0.61837510815E+01  0.41352852602E+02  0.43400728137E+02  0.00000000000E+00 0. -1.
         11    1    4    4    0    0 -0.25740712641E+01 -0.26793088739E+01 -0.53722485276E+01  0.65318904934E+01  0.51100000000E-03 0. -1.
        -11    1    4    4    0    0  0.10181529114E+01  0.62445440738E+01 -0.15648853974E+02  0.16879502274E+02  0.51100000000E-03 0.  1.
        -12    1    4    4    0    0  0.13188889042E+02  0.26185158816E+01 -0.20331750100E+02  0.24375879096E+02  0.00000000000E+00 0.  1.
</event>
<event>
 8    1  0.5542925E-011  0.9118800E+02  0.7816164E-02  0.1184000E+00
        -11   -1    0    0    0    0  0.00000000000E+00  0.00000000000E+00  0.45593999997E+02  0.45594000000E+02  0.51100000000E-03 0. -1.
         11   -1    0    0    0    0 -0.00000000000E+00 -0.00000000000E+00 -0.45593999997E+02  0.45594000000E+02  0.51100000000E-03 0.  1.
         23    2    1    2    0    0 -0.17763568394E-14  0.00000000000E+00  0.00000000000E+00  0.91188000000E+02  0.91188000000E+02 0.  0.
    9900012    2    3    3    0    0 -0.11155345354E+02  0.35105326137E+01  0.41795429450E+02  0.47787268530E+02  0.19999988537E+02 0.  0.
        -12    1    3    3    0    0  0.11155345354E+02 -0.35105326137E+01 -0.41795429450E+02  0.43400731470E+02  0.00000000000E+00 0.  1.
         11    1    4    4    0    0  0.36277827765E+00 -0.38800192281E+01  0.13989319839E+02  0.14521956724E+02  0.51100000000E-03 0. -1.
        -11    1    4    4    0    0 -0.54547162688E+01 -0.21339048098E+01  0.15472854047E+02  0.16544385511E+02  0.51100000000E-03 0.  1.
        -12    1    4    4    0    0 -0.60634073626E+01  0.95244566516E+01  0.12333255564E+02  0.16720926295E+02  0.00000000000E+00 0.  1.
</event>
<event>
 8    1  0.5542925E-011  0.9118800E+02  0.7816164E-02  0.1184000E+00
        -11   -1    0    0    0    0  0.00000000000E+00  0.00000000000E+00  0.45593999997E+02  0.45594000000E+02  0.51100000000E-03 0. -1.
         11   -1    0    0    0    0 -0.00000000000E+00 -0.00000000000E+00 -0.45593999997E+02  0.45594000000E+02  0.51100000000E-03 0.  1.
         23    2    1    2    0    0  0.00000000000E+00  0.00000000000E+00  0.00000000000E+00  0.91188000000E+02  0.91188000000E+02 0.  0.
    9900012    2    3    3    0    0  0.66210344107E+01  0.35496894459E+02  0.24078120284E+02  0.47787268563E+02  0.19999988686E+02 0.  0.
        -12    1    3    3    0    0 -0.66210344107E+01 -0.35496894459E+02 -0.24078120284E+02  0.43400731437E+02  0.00000000000E+00 0.  1.
         11    1    4    4    0    0  0.49703906520E+01  0.97579064918E+01  0.89056605920E+01  0.14114967700E+02  0.51100000000E-03 0. -1.
        -11    1    4    4    0    0  0.22975983899E+01 -0.77447523872E+00 -0.98468196589E+00  0.26169388781E+01  0.51100000000E-03 0.  1.
         12    1    4    4    0    0 -0.64695463125E+00  0.26513463205E+02  0.16157141658E+02  0.31055361985E+02  0.00000000000E+00 0. -1.
</event>
<event>
 8    1  0.5542925E-011  0.9118800E+02  0.7816164E-02  0.1184000E+00
        -11   -1    0    0    0    0  0.00000000000E+00  0.00000000000E+00  0.45593999997E+02  0.45594000000E+02  0.51100000000E-03 0. -1.
         11   -1    0    0    0    0 -0.00000000000E+00 -0.00000000000E+00 -0.45593999997E+02  0.45594000000E+02  0.51100000000E-03 0.  1.
         23    2    1    2    0    0 -0.71054273576E-14  0.00000000000E+00  0.61062266354E-15  0.91188000000E+02  0.91188000000E+02 0.  0.
    9900012    2    3    3    0    0  0.41985524221E+02  0.10988657960E+02  0.29728933715E+00  0.47787271563E+02  0.20000002366E+02 0.  0.
        -12    1    3    3    0    0 -0.41985524221E+02 -0.10988657960E+02 -0.29728933715E+00  0.43400728437E+02  0.00000000000E+00 0.  1.
         11    1    4    4    0    0  0.68652175355E+01  0.21445239832E+01 -0.38580666894E+01  0.81617935385E+01  0.51100000000E-03 0. -1.
        -11    1    4    4    0    0  0.17059809424E+01  0.50145379472E+01 -0.15343538430E+01  0.55145447479E+01  0.51100000000E-03 0.  1.
         12    1    4    4    0    0  0.33414325743E+02  0.38295960293E+01  0.56897098695E+01  0.34110933277E+02  0.00000000000E+00 0. -1.
</event>
<event>
 8    1  0.5542925E-011  0.9118800E+02  0.7816164E-02  0.1184000E+00
        -11   -1    0    0    0    0  0.00000000000E+00  0.00000000000E+00  0.45593999997E+02  0.45594000000E+02  0.51100000000E-03 0. -1.
         11   -1    0    0    0    0 -0.00000000000E+00 -0.00000000000E+00 -0.45593999997E+02  0.45594000000E+02  0.51100000000E-03 0.  1.
         23    2    1    2    0    0  0.17763568394E-14  0.88817841970E-15  0.00000000000E+00  0.91188000000E+02  0.91188000000E+02 0.  0.
    9900012    2    3    3    0    0  0.13834541749E+02 -0.35448065647E+01  0.40983696373E+02  0.47787267663E+02  0.19999984582E+02 0.  0.
        -12    1    3    3    0    0 -0.13834541749E+02  0.35448065647E+01 -0.40983696373E+02  0.43400732337E+02  0.00000000000E+00 0.  1.
         11    1    4    4    0    0  0.25589364017E+01  0.26932141826E+01  0.44528192389E+00  0.37416352567E+01  0.51100000000E-03 0.  1.
        -11    1    4    4    0    0  0.26037607247E+01  0.31298057358E+01  0.14274577263E+02  0.14843813869E+02  0.51100000000E-03 0. -1.
        -12    1    4    4    0    0  0.86718446225E+01 -0.93678264831E+01  0.26263837186E+02  0.29201818538E+02  0.00000000000E+00 0.  1.
</event>
<event>
 8    1  0.5542925E-011  0.9118800E+02  0.7816164E-02  0.1184000E+00
        -11   -1    0    0    0    0  0.00000000000E+00  0.00000000000E+00  0.45593999997E+02  0.45594000000E+02  0.51100000000E-03 0. -1.
         11   -1    0    0    0    0 -0.00000000000E+00 -0.00000000000E+00 -0.45593999997E+02  0.45594000000E+02  0.51100000000E-03 0.  1.
         23    2    1    2    0    0  0.17763568394E-14 -0.71054273576E-14  0.00000000000E+00  0.91188000000E+02  0.91188000000E+02 0.  0.
    9900012    2    3    3    0    0  0.12101651759E+02 -0.37196351507E+02  0.18804413599E+02  0.47787256786E+02  0.19999934989E+02 0.  0.
        -12    1    3    3    0    0 -0.12101651759E+02  0.37196351507E+02 -0.18804413599E+02  0.43400743214E+02  0.00000000000E+00 0.  1.
         11    1    4    4    0    0 -0.78815145633E+00 -0.55368183121E+01  0.47564429230E+01  0.73417497424E+01  0.51100000000E-03 0. -1.
        -11    1    4    4    0    0  0.13027475961E+02 -0.33017765333E+02  0.11088928238E+02  0.37186721921E+02  0.51100000000E-03 0.  1.
         12    1    4    4    0    0 -0.13767274538E+00  0.13582321381E+01  0.29590424374E+01  0.32587851221E+01  0.00000000000E+00 0. -1.
</event>
<event>
 8    1  0.5542925E-011  0.9118800E+02  0.7816164E-02  0.1184000E+00
        -11   -1    0    0    0    0  0.00000000000E+00  0.00000000000E+00  0.45593999997E+02  0.45594000000E+02  0.51100000000E-03 0. -1.
         11   -1    0    0    0    0 -0.00000000000E+00 -0.00000000000E+00 -0.45593999997E+02  0.45594000000E+02  0.51100000000E-03 0.  1.
         23    2    1    2    0    0  0.17763568394E-14  0.00000000000E+00  0.00000000000E+00  0.91188000000E+02  0.91188000000E+02 0.  0.
    9900012    2    3    3    0    0  0.67269372119E+01 -0.21394289286E+02  0.37157176854E+02  0.47787273162E+02  0.20000009654E+02 0.  0.
        -12    1    3    3    0    0 -0.67269372119E+01  0.21394289286E+02 -0.37157176854E+02  0.43400726838E+02  0.00000000000E+00 0.  1.
         11    1    4    4    0    0  0.11542702776E+02 -0.14706984114E+02  0.20003834611E+02  0.27380335434E+02  0.51100000000E-03 0. -1.
        -11    1    4    4    0    0  0.79567000226E+00 -0.17448870427E+01  0.26342866712E+00  0.19357470052E+01  0.51100000000E-03 0.  1.
        -12    1    4    4    0    0 -0.56114355666E+01 -0.49424181299E+01  0.16889913576E+02  0.18471190722E+02  0.00000000000E+00 0.  1.
</event>
<event>
 8    1  0.5542925E-011  0.9118800E+02  0.7816164E-02  0.1184000E+00
        -11   -1    0    0    0    0  0.00000000000E+00  0.00000000000E+00  0.45593999997E+02  0.45594000000E+02  0.51100000000E-03 0.  1.
         11   -1    0    0    0    0 -0.00000000000E+00 -0.00000000000E+00 -0.45593999997E+02  0.45594000000E+02  0.51100000000E-03 0. -1.
         23    2    1    2    0    0 -0.71054273576E-14  0.35527136788E-14  0.00000000000E+00  0.91188000000E+02  0.91188000000E+02 0.  0.
    9900012    2    3    3    0    0  0.34685747438E+02  0.18531043000E+02  0.18360901156E+02  0.47787270499E+02  0.19999997511E+02 0.  0.
        -12    1    3    3    0    0 -0.34685747438E+02 -0.18531043000E+02 -0.18360901156E+02  0.43400729501E+02  0.00000000000E+00 0.  1.
         11    1    4    4    0    0  0.10716171131E+02  0.70794861687E+01 -0.81760662684E+00  0.12869496066E+02  0.51100000000E-03 0. -1.
        -11    1    4    4    0    0  0.39709084222E+01  0.40728156269E+01 -0.74900632537E+00  0.57373296545E+01  0.51100000000E-03 0.  1.
        -12    1    4    4    0    0  0.19998667885E+02  0.73787412041E+01  0.19927514109E+02  0.29180444778E+02  0.00000000000E+00 0.  1.
</event>
<event>
 8    1  0.5542925E-011  0.9118800E+02  0.7816164E-02  0.1184000E+00
        -11   -1    0    0    0    0  0.00000000000E+00  0.00000000000E+00  0.45593999997E+02  0.45594000000E+02  0.51100000000E-03 0. -1.
         11   -1    0    0    0    0 -0.00000000000E+00 -0.00000000000E+00 -0.45593999997E+02  0.45594000000E+02  0.51100000000E-03 0.  1.
         23    2    1    2    0    0  0.88817841970E-15  0.00000000000E+00  0.17763568394E-14  0.91188000000E+02  0.91188000000E+02 0.  0.
    9900012    2    3    3    0    0 -0.60218586724E+01  0.40431869825E+02  0.14581679357E+02  0.47787259772E+02  0.19999948605E+02 0.  0.
        -12    1    3    3    0    0  0.60218586724E+01 -0.40431869825E+02 -0.14581679357E+02  0.43400740228E+02  0.00000000000E+00 0.  1.
         11    1    4    4    0    0 -0.25637288750E+01  0.42420011708E+01 -0.61940776420E+00  0.49950921830E+01  0.51100000000E-03 0.  1.
        -11    1    4    4    0    0 -0.87109959713E+01  0.27993144963E+02  0.71940524101E+01  0.30186950924E+02  0.51100000000E-03 0. -1.
         12    1    4    4    0    0  0.52528661739E+01  0.81967236917E+01  0.80070347112E+01  0.12605216666E+02  0.00000000000E+00 0. -1.
</event>
<event>
 8    1  0.5542925E-011  0.9118800E+02  0.7816164E-02  0.1184000E+00
        -11   -1    0    0    0    0  0.00000000000E+00  0.00000000000E+00  0.45593999997E+02  0.45594000000E+02  0.51100000000E-03 0. -1.
         11   -1    0    0    0    0 -0.00000000000E+00 -0.00000000000E+00 -0.45593999997E+02  0.45594000000E+02  0.51100000000E-03 0.  1.
         23    2    1    2    0    0  0.00000000000E+00  0.00000000000E+00  0.00000000000E+00  0.91188000000E+02  0.91188000000E+02 0.  0.
    9900012    2    3    3    0    0  0.21793315872E+02  0.97306734793E+01 -0.36248981051E+02  0.47787271316E+02  0.20000001238E+02 0.  0.
         12    1    3    3    0    0 -0.21793315872E+02 -0.97306734793E+01  0.36248981051E+02  0.43400728684E+02  0.00000000000E+00 0. -1.
         11    1    4    4    0    0  0.29410490321E+01  0.53941261308E+01 -0.11916667991E+01  0.62583093680E+01  0.51100000000E-03 0. -1.
        -11    1    4    4    0    0  0.44732943566E+01 -0.29781834734E+01 -0.46474315947E+01  0.71048265208E+01  0.51100000000E-03 0.  1.
        -12    1    4    4    0    0  0.14378972483E+02  0.73147308218E+01 -0.30409882657E+02  0.34424135427E+02  0.00000000000E+00 0.  1.
</event>
<event>
 8    1  0.5542925E-011  0.9118800E+02  0.7816164E-02  0.1184000E+00
        -11   -1    0    0    0    0  0.00000000000E+00  0.00000000000E+00  0.45593999997E+02  0.45594000000E+02  0.51100000000E-03 0. -1.
         11   -1    0    0    0    0 -0.00000000000E+00 -0.00000000000E+00 -0.45593999997E+02  0.45594000000E+02  0.51100000000E-03 0.  1.
         23    2    1    2    0    0  0.00000000000E+00  0.00000000000E+00  0.00000000000E+00  0.91188000000E+02  0.91188000000E+02 0.  0.
    9900012    2    3    3    0    0 -0.20104957593E+02  0.19224285099E+02  0.33314271602E+02  0.47787272475E+02  0.20000006521E+02 0.  0.
        -12    1    3    3    0    0  0.20104957593E+02 -0.19224285099E+02 -0.33314271602E+02  0.43400727525E+02  0.00000000000E+00 0.  1.
         11    1    4    4    0    0 -0.41654245727E+01  0.36002660894E+01  0.53528383092E+01  0.76789033078E+01  0.51100000000E-03 0. -1.
        -11    1    4    4    0    0 -0.10772592586E+02  0.57387683222E+01  0.26082296106E+02  0.28797020389E+02  0.51100000000E-03 0.  1.
        -12    1    4    4    0    0 -0.51669404345E+01  0.98852506875E+01  0.18791371866E+01  0.11311348778E+02  0.00000000000E+00 0.  1.
</event>
<event>
 8    1  0.5542925E-011  0.9118800E+02  0.7816164E-02  0.1184000E+00
        -11   -1    0    0    0    0  0.00000000000E+00  0.00000000000E+00  0.45593999997E+02  0.45594000000E+02  0.51100000000E-03 0. -1.
         11   -1    0    0    0    0 -0.00000000000E+00 -0.00000000000E+00 -0.45593999997E+02  0.45594000000E+02  0.51100000000E-03 0.  1.
         23    2    1    2    0    0 -0.17763568394E-14  0.00000000000E+00 -0.71054273576E-14  0.91188000000E+02  0.91188000000E+02 0.  0.
    9900012    2    3    3    0    0  0.99373446117E+01 -0.19272439728E+02  0.37595826255E+02  0.47787263799E+02  0.19999966966E+02 0.  0.
        -12    1    3    3    0    0 -0.99373446117E+01  0.19272439728E+02 -0.37595826255E+02  0.43400736201E+02  0.00000000000E+00 0.  1.
         11    1    4    4    0    0  0.63837525718E+01 -0.81825167926E+01  0.10926108222E+02  0.15069363593E+02  0.51100000000E-03 0. -1.
        -11    1    4    4    0    0  0.72556789095E+01 -0.37736067289E+01  0.21553718276E+02  0.23053150674E+02  0.51100000000E-03 0.  1.
        -12    1    4    4    0    0 -0.37020868696E+01 -0.73163162063E+01  0.51159997567E+01  0.96647495328E+01  0.00000000000E+00 0.  1.
</event>
<event>
 8    1  0.5542925E-011  0.9118800E+02  0.7816164E-02  0.1184000E+00
        -11   -1    0    0    0    0  0.00000000000E+00  0.00000000000E+00  0.45593999997E+02  0.45594000000E+02  0.51100000000E-03 0.  1.
         11   -1    0    0    0    0 -0.00000000000E+00 -0.00000000000E+00 -0.45593999997E+02  0.45594000000E+02  0.51100000000E-03 0. -1.
         23    2    1    2    0    0  0.00000000000E+00  0.00000000000E+00 -0.35527136788E-14  0.91188000000E+02  0.91188000000E+02 0.  0.
    9900012    2    3    3    0    0  0.10360536082E+02 -0.37536987217E+02 -0.19163952733E+02  0.47787271877E+02  0.20000003798E+02 0.  0.
         12    1    3    3    0    0 -0.10360536082E+02  0.37536987217E+02  0.19163952733E+02  0.43400728123E+02  0.00000000000E+00 0. -1.
         11    1    4    4    0    0  0.24738591695E+00 -0.19667924756E+02 -0.13444517935E+02  0.23825270760E+02  0.51100000000E-03 0. -1.
        -11    1    4    4    0    0  0.86773780011E+01 -0.18259471012E+02 -0.75701700908E+01  0.21587326052E+02  0.51100000000E-03 0.  1.
        -12    1    4    4    0    0  0.14357721634E+01  0.39040855104E+00  0.18507352932E+01  0.23746750656E+01  0.00000000000E+00 0.  1.
</event>
<event>
 8    1  0.5542925E-011  0.9118800E+02  0.7816164E-02  0.1184000E+00
        -11   -1    0    0    0    0  0.00000000000E+00  0.00000000000E+00  0.45593999997E+02  0.45594000000E+02  0.51100000000E-03 0. -1.
         11   -1    0    0    0    0 -0.00000000000E+00 -0.00000000000E+00 -0.45593999997E+02  0.45594000000E+02  0.51100000000E-03 0.  1.
         23    2    1    2    0    0  0.33306690739E-15 -0.71054273576E-14  0.00000000000E+00  0.91188000000E+02  0.91188000000E+02 0.  0.
    9900012    2    3    3    0    0 -0.85965743818E+00  0.32469665066E+02 -0.28785496910E+02  0.47787274283E+02  0.20000014765E+02 0.  0.
         12    1    3    3    0    0  0.85965743818E+00 -0.32469665066E+02  0.28785496910E+02  0.43400725717E+02  0.00000000000E+00 0. -1.
         11    1    4    4    0    0  0.12729464228E+01  0.33219992726E+01 -0.29721026077E+01  0.46356731910E+01  0.51100000000E-03 0. -1.
        -11    1    4    4    0    0  0.48149373038E+01  0.12312403887E+02 -0.23148165568E+01  0.13421523262E+02  0.51100000000E-03 0.  1.
        -12    1    4    4    0    0 -0.69475411648E+01  0.16835261906E+02 -0.23498577746E+02  0.29730077830E+02  0.00000000000E+00 0.  1.
</event>
<event>
 8    1  0.5542925E-011  0.9118800E+02  0.7816164E-02  0.1184000E+00
        -11   -1    0    0    0    0  0.00000000000E+00  0.00000000000E+00  0.45593999997E+02  0.45594000000E+02  0.51100000000E-03 0. -1.
         11   -1    0    0    0    0 -0.00000000000E+00 -0.00000000000E+00 -0.45593999997E+02  0.45594000000E+02  0.51100000000E-03 0.  1.
         23    2    1    2    0    0 -0.88817841970E-15  0.00000000000E+00  0.00000000000E+00  0.91188000000E+02  0.91188000000E+02 0.  0.
    9900012    2    3    3    0    0  0.66006841176E+01 -0.41589939421E+02 -0.10503834758E+02  0.47787278387E+02  0.20000033479E+02 0.  0.
         12    1    3    3    0    0 -0.66006841176E+01  0.41589939421E+02  0.10503834758E+02  0.43400721613E+02  0.00000000000E+00 0. -1.
         11    1    4    4    0    0 -0.42482948790E+01 -0.13281069570E+02  0.22287163952E+01  0.14120977138E+02  0.51100000000E-03 0. -1.
        -11    1    4    4    0    0 -0.18568166194E+00 -0.76595322006E+01 -0.20481583680E+01  0.79308173711E+01  0.51100000000E-03 0.  1.
        -12    1    4    4    0    0  0.11034660659E+02 -0.20649337650E+02 -0.10684392785E+02  0.25735483878E+02  0.00000000000E+00 0.  1.
</event>
<event>
 8    1  0.5542925E-011  0.9118800E+02  0.7816164E-02  0.1184000E+00
        -11   -1    0    0    0    0  0.00000000000E+00  0.00000000000E+00  0.45593999997E+02  0.45594000000E+02  0.51100000000E-03 0.  1.
         11   -1    0    0    0    0 -0.00000000000E+00 -0.00000000000E+00 -0.45593999997E+02  0.45594000000E+02  0.51100000000E-03 0. -1.
         23    2    1    2    0    0 -0.88817841970E-15  0.35527136788E-14 -0.35527136788E-14  0.91188000000E+02  0.91188000000E+02 0.  0.
    9900012    2    3    3    0    0  0.41745877952E+01 -0.31986123085E+02  0.29035902056E+02  0.47787275795E+02  0.20000021662E+02 0.  0.
         12    1    3    3    0    0 -0.41745877952E+01  0.31986123085E+02 -0.29035902056E+02  0.43400724205E+02  0.00000000000E+00 0. -1.
         11    1    4    4    0    0 -0.81298947206E+00 -0.60532207299E+01 -0.78638994345E+00  0.61579901340E+01  0.51100000000E-03 0. -1.
        -11    1    4    4    0    0 -0.23498524662E+01 -0.14682276676E+01  0.64013594878E+01  0.69753066348E+01  0.51100000000E-03 0.  1.
         12    1    4    4    0    0  0.73374297335E+01 -0.24464674688E+02  0.23420932511E+02  0.34653979027E+02  0.00000000000E+00 0. -1.
</event>
<event>
 8    1  0.5542925E-011  0.9118800E+02  0.7816164E-02  0.1184000E+00
        -11   -1    0    0    0    0  0.00000000000E+00  0.00000000000E+00  0.45593999997E+02  0.45594000000E+02  0.51100000000E-03 0. -1.
         11   -1    0    0    0    0 -0.00000000000E+00 -0.00000000000E+00 -0.45593999997E+02  0.45594000000E+02  0.51100000000E-03 0.  1.
         23    2    1    2    0    0  0.17763568394E-14  0.00000000000E+00  0.00000000000E+00  0.91188000000E+02  0.91188000000E+02 0.  0.
    9900012    2    3    3    0    0  0.78851900171E+01 -0.41180801430E+02 -0.11206645902E+02  0.47787267974E+02  0.19999986001E+02 0.  0.
         12    1    3    3    0    0 -0.78851900171E+01  0.41180801430E+02  0.11206645902E+02  0.43400732026E+02  0.00000000000E+00 0. -1.
         11    1    4    4    0    0  0.22077853590E+00 -0.78361934102E+01  0.11186420310E+01  0.79187139473E+01  0.51100000000E-03 0. -1.
        -11    1    4    4    0    0  0.11640681723E+02 -0.25562436424E+02 -0.51395098613E+01  0.28554477561E+02  0.51100000000E-03 0.  1.
         12    1    4    4    0    0 -0.39762702417E+01 -0.77821715956E+01 -0.71857780714E+01  0.11314076466E+02  0.00000000000E+00 0. -1.
</event>
<event>
 8    1  0.5542925E-011  0.9118800E+02  0.7816164E-02  0.1184000E+00
        -11   -1    0    0    0    0  0.00000000000E+00  0.00000000000E+00  0.45593999997E+02  0.45594000000E+02  0.51100000000E-03 0. -1.
         11   -1    0    0    0    0 -0.00000000000E+00 -0.00000000000E+00 -0.45593999997E+02  0.45594000000E+02  0.51100000000E-03 0.  1.
         23    2    1    2    0    0 -0.35527136788E-14 -0.17763568394E-14  0.35527136788E-14  0.91188000000E+02  0.91188000000E+02 0.  0.
    9900012    2    3    3    0    0  0.25897387062E+02  0.13780146185E+02 -0.31985183249E+02  0.47787319902E+02  0.20000222758E+02 0.  0.
         12    1    3    3    0    0 -0.25897387062E+02 -0.13780146185E+02  0.31985183249E+02  0.43400680098E+02  0.00000000000E+00 0. -1.
         11    1    4    4    0    0  0.32669996790E+01  0.57496887883E+01 -0.11291646290E+02  0.13085621279E+02  0.51100000000E-03 0. -1.
        -11    1    4    4    0    0  0.12328570615E+02  0.51402901829E+01 -0.19907355079E+02  0.23973298127E+02  0.51100000000E-03 0.  1.
         12    1    4    4    0    0  0.10301816768E+02  0.28901672140E+01 -0.78618188036E+00  0.10728400496E+02  0.00000000000E+00 0. -1.
</event>
<event>
 8    1  0.5542925E-011  0.9118800E+02  0.7816164E-02  0.1184000E+00
        -11   -1    0    0    0    0  0.00000000000E+00  0.00000000000E+00  0.45593999997E+02  0.45594000000E+02  0.51100000000E-03 0. -1.
         11   -1    0    0    0    0 -0.00000000000E+00 -0.00000000000E+00 -0.45593999997E+02  0.45594000000E+02  0.51100000000E-03 0.  1.
         23    2    1    2    0    0  0.35527136788E-14 -0.71054273576E-14  0.10755285551E-15  0.91188000000E+02  0.91188000000E+02 0.  0.
    9900012    2    3    3    0    0 -0.17698804668E+02  0.39627906984E+02 -0.28848958853E-01  0.47787314166E+02  0.20000196609E+02 0.  0.
        -12    1    3    3    0    0  0.17698804668E+02 -0.39627906984E+02  0.28848958853E-01  0.43400685834E+02  0.00000000000E+00 0.  1.
         11    1    4    4    0    0 -0.19067322709E+01  0.85648480429E+01  0.56700566886E+00  0.87928235307E+01  0.51100000000E-03 0. -1.
        -11    1    4    4    0    0 -0.15570397166E+01  0.22067880275E+02  0.39722023168E+00  0.22126307796E+02  0.51100000000E-03 0.  1.
         12    1    4    4    0    0 -0.14235032680E+02  0.89951786661E+01 -0.99307485940E+00  0.16868182840E+02  0.00000000000E+00 0. -1.
</event>
<event>
 8    1  0.5542925E-011  0.9118800E+02  0.7816164E-02  0.1184000E+00
        -11   -1    0    0    0    0  0.00000000000E+00  0.00000000000E+00  0.45593999997E+02  0.45594000000E+02  0.51100000000E-03 0.  1.
         11   -1    0    0    0    0 -0.00000000000E+00 -0.00000000000E+00 -0.45593999997E+02  0.45594000000E+02  0.51100000000E-03 0. -1.
         23    2    1    2    0    0  0.00000000000E+00  0.00000000000E+00 -0.17763568394E-14  0.91188000000E+02  0.91188000000E+02 0.  0.
    9900012    2    3    3    0    0  0.41280451256E+02  0.95870697600E+01  0.93613560342E+01  0.47787279392E+02  0.20000038058E+02 0.  0.
        -12    1    3    3    0    0 -0.41280451256E+02 -0.95870697600E+01 -0.93613560342E+01  0.43400720608E+02  0.00000000000E+00 0.  1.
         11    1    4    4    0    0  0.29296164414E+02  0.77990802161E+01 -0.27368404941E+01  0.30439796283E+02  0.51100000000E-03 0. -1.
        -11    1    4    4    0    0  0.62701946621E+00 -0.55346579705E+00  0.79606796074E+00  0.11546437800E+01  0.51100000000E-03 0.  1.
         12    1    4    4    0    0  0.11357267376E+02  0.23414553410E+01  0.11302128568E+02  0.16192839329E+02  0.00000000000E+00 0. -1.
</event>
<event>
 8    1  0.5542925E-011  0.9118800E+02  0.7816164E-02  0.1184000E+00
        -11   -1    0    0    0    0  0.00000000000E+00  0.00000000000E+00  0.45593999997E+02  0.45594000000E+02  0.51100000000E-03 0. -1.
         11   -1    0    0    0    0 -0.00000000000E+00 -0.00000000000E+00 -0.45593999997E+02  0.45594000000E+02  0.51100000000E-03 0.  1.
         23    2    1    2    0    0 -0.22204460493E-15  0.00000000000E+00  0.00000000000E+00  0.91188000000E+02  0.91188000000E+02 0.  0.
    9900012    2    3    3    0    0  0.72600097747E+00 -0.12709457191E+02 -0.41491768831E+02  0.47787259681E+02  0.19999948191E+02 0.  0.
         12    1    3    3    0    0 -0.72600097747E+00  0.12709457191E+02  0.41491768831E+02  0.43400740319E+02  0.00000000000E+00 0. -1.
         11    1    4    4    0    0  0.15962829010E+01 -0.67591988065E+01 -0.23203233982E+02  0.24220341763E+02  0.51100000000E-03 0. -1.
        -11    1    4    4    0    0  0.54704135311E+01 -0.33668451887E+01 -0.14217565372E+02  0.15601289565E+02  0.51100000000E-03 0.  1.
         12    1    4    4    0    0 -0.63406954547E+01 -0.25834131957E+01 -0.40709694766E+01  0.79656283536E+01  0.00000000000E+00 0. -1.
</event>
<event>
 8    1  0.5542925E-011  0.9118800E+02  0.7816164E-02  0.1184000E+00
        -11   -1    0    0    0    0  0.00000000000E+00  0.00000000000E+00  0.45593999997E+02  0.45594000000E+02  0.51100000000E-03 0. -1.
         11   -1    0    0    0    0 -0.00000000000E+00 -0.00000000000E+00 -0.45593999997E+02  0.45594000000E+02  0.51100000000E-03 0.  1.
         23    2    1    2    0    0  0.00000000000E+00  0.00000000000E+00  0.00000000000E+00  0.91188000000E+02  0.91188000000E+02 0.  0.
    9900012    2    3    3    0    0  0.38449305798E+02 -0.14108575787E+02 -0.14360452316E+02  0.47787267082E+02  0.19999981936E+02 0.  0.
         12    1    3    3    0    0 -0.38449305798E+02  0.14108575787E+02  0.14360452316E+02  0.43400732918E+02  0.00000000000E+00 0. -1.
         11    1    4    4    0    0  0.12426688999E+02 -0.68465150291E+01  0.11597795659E+01  0.14235253999E+02  0.51100000000E-03 0. -1.
        -11    1    4    4    0    0  0.18762540463E+01  0.22028575209E+01  0.68069350644E+00  0.29725837943E+01  0.51100000000E-03 0.  1.
        -12    1    4    4    0    0  0.24146362753E+02 -0.94649182788E+01 -0.16200925388E+02  0.30579429289E+02  0.00000000000E+00 0.  1.
</event>
<event>
 8    1  0.5542925E-011  0.9118800E+02  0.7816164E-02  0.1184000E+00
        -11   -1    0    0    0    0  0.00000000000E+00  0.00000000000E+00  0.45593999997E+02  0.45594000000E+02  0.51100000000E-03 0. -1.
         11   -1    0    0    0    0 -0.00000000000E+00 -0.00000000000E+00 -0.45593999997E+02  0.45594000000E+02  0.51100000000E-03 0.  1.
         23    2    1    2    0    0 -0.55511151231E-16  0.35527136788E-14  0.00000000000E+00  0.91188000000E+02  0.91188000000E+02 0.  0.
    9900012    2    3    3    0    0 -0.48733292714E+00 -0.22179349946E+02 -0.37302309597E+02  0.47787270068E+02  0.19999995547E+02 0.  0.
         12    1    3    3    0    0  0.48733292714E+00  0.22179349946E+02  0.37302309597E+02  0.43400729932E+02  0.00000000000E+00 0. -1.
         11    1    4    4    0    0  0.23803792362E+01 -0.71520119005E+01 -0.87577155434E+01  0.11554871758E+02  0.51100000000E-03 0.  1.
        -11    1    4    4    0    0 -0.20985445930E+01 -0.18430839171E+02 -0.21687243999E+02  0.28538329918E+02  0.51100000000E-03 0. -1.
         12    1    4    4    0    0 -0.76916757040E+00  0.34035011255E+01 -0.68573500544E+01  0.76940683927E+01  0.00000000000E+00 0. -1.
</event>
<event>
 8    1  0.5542925E-011  0.9118800E+02  0.7816164E-02  0.1184000E+00
        -11   -1    0    0    0    0  0.00000000000E+00  0.00000000000E+00  0.45593999997E+02  0.45594000000E+02  0.51100000000E-03 0. -1.
         11   -1    0    0    0    0 -0.00000000000E+00 -0.00000000000E+00 -0.45593999997E+02  0.45594000000E+02  0.51100000000E-03 0.  1.
         23    2    1    2    0    0  0.00000000000E+00  0.88817841970E-15  0.35527136788E-14  0.91188000000E+02  0.91188000000E+02 0.  0.
    9900012    2    3    3    0    0 -0.30374052128E+02 -0.48141298300E+01 -0.30624570095E+02  0.47787272101E+02  0.20000004815E+02 0.  0.
         12    1    3    3    0    0  0.30374052128E+02  0.48141298300E+01  0.30624570095E+02  0.43400727899E+02  0.00000000000E+00 0. -1.
         11    1    4    4    0    0 -0.10714405000E+02  0.38860731276E+00 -0.44253628897E+01  0.11598850250E+02  0.51100000000E-03 0. -1.
        -11    1    4    4    0    0 -0.56273236881E+01  0.43800922125E+01 -0.12376909762E+02  0.14284252700E+02  0.51100000000E-03 0.  1.
        -12    1    4    4    0    0 -0.14032323440E+02 -0.95828293552E+01 -0.13822297444E+02  0.21904169151E+02  0.00000000000E+00 0.  1.
</event>
<event>
 8    1  0.5542925E-011  0.9118800E+02  0.7816164E-02  0.1184000E+00
        -11   -1    0    0    0    0  0.00000000000E+00  0.00000000000E+00  0.45593999997E+02  0.45594000000E+02  0.51100000000E-03 0. -1.
         11   -1    0    0    0    0 -0.00000000000E+00 -0.00000000000E+00 -0.45593999997E+02  0.45594000000E+02  0.51100000000E-03 0.  1.
         23    2    1    2    0    0  0.17763568394E-14  0.00000000000E+00 -0.71054273576E-14  0.91188000000E+02  0.91188000000E+02 0.  0.
    9900012    2    3    3    0    0  0.13509412540E+02  0.15458877720E+02 -0.38237968637E+02  0.47787269902E+02  0.19999994793E+02 0.  0.
         12    1    3    3    0    0 -0.13509412540E+02 -0.15458877720E+02  0.38237968637E+02  0.43400730098E+02  0.00000000000E+00 0. -1.
         11    1    4    4    0    0 -0.24064842731E+01 -0.14300570009E+01 -0.10684932679E+01  0.29963156889E+01  0.51100000000E-03 0. -1.
        -11    1    4    4    0    0  0.47569283611E+01  0.13447005961E+01 -0.13360536976E+02  0.14245719907E+02  0.51100000000E-03 0.  1.
        -12    1    4    4    0    0  0.11158968452E+02  0.15544234124E+02 -0.23808938393E+02  0.30545234307E+02  0.00000000000E+00 0.  1.
</event>
<event>
 8    1  0.5542925E-011  0.9118800E+02  0.7816164E-02  0.1184000E+00
        -11   -1    0    0    0    0  0.00000000000E+00  0.00000000000E+00  0.45593999997E+02  0.45594000000E+02  0.51100000000E-03 0. -1.
         11   -1    0    0    0    0 -0.00000000000E+00 -0.00000000000E+00 -0.45593999997E+02  0.45594000000E+02  0.51100000000E-03 0.  1.
         23    2    1    2    0    0  0.00000000000E+00 -0.71054273576E-14  0.17763568394E-14  0.91188000000E+02  0.91188000000E+02 0.  0.
    9900012    2    3    3    0    0  0.21351722755E+02 -0.36729558629E+02 -0.88694537344E+01  0.47787265545E+02  0.19999974925E+02 0.  0.
         12    1    3    3    0    0 -0.21351722755E+02  0.36729558629E+02  0.88694537344E+01  0.43400734455E+02  0.00000000000E+00 0. -1.
         11    1    4    4    0    0  0.11576522568E+02 -0.85142282692E+01 -0.44906610315E+01  0.15055696415E+02  0.51100000000E-03 0. -1.
        -11    1    4    4    0    0  0.84039134914E+01 -0.74993760637E+01 -0.40443393009E+01  0.11967584717E+02  0.51100000000E-03 0.  1.
         12    1    4    4    0    0  0.13712866958E+01 -0.20715954296E+02 -0.33445340205E+00  0.20763984412E+02  0.00000000000E+00 0. -1.
</event>
<event>
 8    1  0.5542925E-011  0.9118800E+02  0.7816164E-02  0.1184000E+00
        -11   -1    0    0    0    0  0.00000000000E+00  0.00000000000E+00  0.45593999997E+02  0.45594000000E+02  0.51100000000E-03 0. -1.
         11   -1    0    0    0    0 -0.00000000000E+00 -0.00000000000E+00 -0.45593999997E+02  0.45594000000E+02  0.51100000000E-03 0.  1.
         23    2    1    2    0    0  0.00000000000E+00  0.35527136788E-14  0.00000000000E+00  0.91188000000E+02  0.91188000000E+02 0.  0.
    9900012    2    3    3    0    0  0.36396980919E+01  0.26193802163E+02  0.34413086088E+02  0.47787272264E+02  0.20000005561E+02 0.  0.
        -12    1    3    3    0    0 -0.36396980919E+01 -0.26193802163E+02 -0.34413086088E+02  0.43400727736E+02  0.00000000000E+00 0.  1.
         11    1    4    4    0    0 -0.40220810317E+01  0.16919905331E+02  0.24530995962E+02  0.30070418943E+02  0.51100000000E-03 0. -1.
        -11    1    4    4    0    0  0.27646988662E+01  0.48667117633E+00  0.65392277343E+01  0.71163128287E+01  0.51100000000E-03 0.  1.
        -12    1    4    4    0    0  0.48970802574E+01  0.87872256555E+01  0.33428623908E+01  0.10600540492E+02  0.00000000000E+00 0.  1.
</event>
<event>
 8    1  0.5542925E-011  0.9118800E+02  0.7816164E-02  0.1184000E+00
        -11   -1    0    0    0    0  0.00000000000E+00  0.00000000000E+00  0.45593999997E+02  0.45594000000E+02  0.51100000000E-03 0. -1.
         11   -1    0    0    0    0 -0.00000000000E+00 -0.00000000000E+00 -0.45593999997E+02  0.45594000000E+02  0.51100000000E-03 0.  1.
         23    2    1    2    0    0  0.30531133177E-15  0.00000000000E+00  0.00000000000E+00  0.91188000000E+02  0.91188000000E+02 0.  0.
    9900012    2    3    3    0    0 -0.15072318088E+00  0.34400425578E+02  0.26461503893E+02  0.47787272060E+02  0.20000004630E+02 0.  0.
        -12    1    3    3    0    0  0.15072318088E+00 -0.34400425578E+02 -0.26461503893E+02  0.43400727940E+02  0.00000000000E+00 0.  1.
         11    1    4    4    0    0  0.10433612055E+01  0.14614050175E+02  0.22961026595E+02  0.27237250370E+02  0.51100000000E-03 0. -1.
        -11    1    4    4    0    0 -0.26581497875E+00  0.94983886350E+01  0.37548994664E+01  0.10217108912E+02  0.51100000000E-03 0.  1.
         12    1    4    4    0    0 -0.92826940760E+00  0.10287986768E+02 -0.25442216851E+00  0.10332912778E+02  0.00000000000E+00 0. -1.
</event>
<event>
 8    1  0.5542925E-011  0.9118800E+02  0.7816164E-02  0.1184000E+00
        -11   -1    0    0    0    0  0.00000000000E+00  0.00000000000E+00  0.45593999997E+02  0.45594000000E+02  0.51100000000E-03 0.  1.
         11   -1    0    0    0    0 -0.00000000000E+00 -0.00000000000E+00 -0.45593999997E+02  0.45594000000E+02  0.51100000000E-03 0. -1.
         23    2    1    2    0    0  0.00000000000E+00  0.00000000000E+00  0.00000000000E+00  0.91188000000E+02  0.91188000000E+02 0.  0.
    9900012    2    3    3    0    0 -0.29283751710E+02  0.30064557252E+02  0.11054741136E+02  0.47787273986E+02  0.20000013410E+02 0.  0.
         12    1    3    3    0    0  0.29283751710E+02 -0.30064557252E+02 -0.11054741136E+02  0.43400726014E+02  0.00000000000E+00 0. -1.
         11    1    4    4    0    0 -0.64613129056E+01  0.13788842146E+01  0.69420669476E+01  0.95834325744E+01  0.51100000000E-03 0. -1.
        -11    1    4    4    0    0 -0.95293453300E+01  0.79130882510E+01  0.53911463378E+01  0.13508880308E+02  0.51100000000E-03 0.  1.
        -12    1    4    4    0    0 -0.13293093475E+02  0.20772584786E+02 -0.12784721496E+01  0.24694961103E+02  0.00000000000E+00 0.  1.
</event>
<event>
 8    1  0.5542925E-011  0.9118800E+02  0.7816164E-02  0.1184000E+00
        -11   -1    0    0    0    0  0.00000000000E+00  0.00000000000E+00  0.45593999997E+02  0.45594000000E+02  0.51100000000E-03 0. -1.
         11   -1    0    0    0    0 -0.00000000000E+00 -0.00000000000E+00 -0.45593999997E+02  0.45594000000E+02  0.51100000000E-03 0.  1.
         23    2    1    2    0    0  0.00000000000E+00  0.00000000000E+00  0.00000000000E+00  0.91188000000E+02  0.91188000000E+02 0.  0.
    9900012    2    3    3    0    0 -0.86326216409E+01 -0.10680623137E+02 -0.41170685093E+02  0.47787272149E+02  0.20000005035E+02 0.  0.
         12    1    3    3    0    0  0.86326216409E+01  0.10680623137E+02  0.41170685093E+02  0.43400727851E+02  0.00000000000E+00 0. -1.
         11    1    4    4    0    0 -0.44245737715E+01 -0.65682495559E+01 -0.68749841235E+01  0.10487333419E+02  0.51100000000E-03 0. -1.
        -11    1    4    4    0    0 -0.59752180904E+01  0.16226067979E+01 -0.69695076508E+01  0.93225597989E+01  0.51100000000E-03 0.  1.
         12    1    4    4    0    0  0.17671702211E+01 -0.57349803787E+01 -0.27326193319E+02  0.27977378931E+02  0.00000000000E+00 0. -1.
</event>
<event>
 8    1  0.5542925E-011  0.9118800E+02  0.7816164E-02  0.1184000E+00
        -11   -1    0    0    0    0  0.00000000000E+00  0.00000000000E+00  0.45593999997E+02  0.45594000000E+02  0.51100000000E-03 0. -1.
         11   -1    0    0    0    0 -0.00000000000E+00 -0.00000000000E+00 -0.45593999997E+02  0.45594000000E+02  0.51100000000E-03 0.  1.
         23    2    1    2    0    0 -0.17763568394E-14  0.00000000000E+00  0.00000000000E+00  0.91188000000E+02  0.91188000000E+02 0.  0.
    9900012    2    3    3    0    0  0.15070574709E+02  0.34828998653E+02 -0.21058070203E+02  0.47787266251E+02  0.19999978146E+02 0.  0.
         12    1    3    3    0    0 -0.15070574709E+02 -0.34828998653E+02  0.21058070203E+02  0.43400733749E+02  0.00000000000E+00 0. -1.
         11    1    4    4    0    0  0.43465897844E+01  0.78809000979E+01 -0.14499608086E+01  0.91161294262E+01  0.51100000000E-03 0. -1.
        -11    1    4    4    0    0  0.14574585883E+02  0.22973218488E+02 -0.13312027347E+02  0.30288568697E+02  0.51100000000E-03 0.  1.
         12    1    4    4    0    0 -0.38506009575E+01  0.39748800676E+01 -0.62960820471E+01  0.83825681285E+01  0.00000000000E+00 0. -1.
</event>
<event>
 8    1  0.5542925E-011  0.9118800E+02  0.7816164E-02  0.1184000E+00
        -11   -1    0    0    0    0  0.00000000000E+00  0.00000000000E+00  0.45593999997E+02  0.45594000000E+02  0.51100000000E-03 0. -1.
         11   -1    0    0    0    0 -0.00000000000E+00 -0.00000000000E+00 -0.45593999997E+02  0.45594000000E+02  0.51100000000E-03 0.  1.
         23    2    1    2    0    0 -0.17763568394E-14  0.00000000000E+00  0.00000000000E+00  0.91188000000E+02  0.91188000000E+02 0.  0.
    9900012    2    3    3    0    0  0.85077830829E+01  0.20339727516E+02  0.37383648063E+02  0.47787262323E+02  0.19999960233E+02 0.  0.
        -12    1    3    3    0    0 -0.85077830829E+01 -0.20339727516E+02 -0.37383648063E+02  0.43400737677E+02  0.00000000000E+00 0.  1.
         11    1    4    4    0    0 -0.30740354583E+01 -0.55646626245E+00  0.25860053188E+01  0.40554620539E+01  0.51100000000E-03 0. -1.
        -11    1    4    4    0    0 -0.58894765157E+00 -0.10711936323E+01  0.78666451859E+00  0.14536699970E+01  0.51100000000E-03 0.  1.
         12    1    4    4    0    0  0.12170766193E+02  0.21967387411E+02  0.34010978226E+02  0.42278130272E+02  0.00000000000E+00 0. -1.
</event>
<event>
 8    1  0.5542925E-011  0.9118800E+02  0.7816164E-02  0.1184000E+00
        -11   -1    0    0    0    0  0.00000000000E+00  0.00000000000E+00  0.45593999997E+02  0.45594000000E+02  0.51100000000E-03 0. -1.
         11   -1    0    0    0    0 -0.00000000000E+00 -0.00000000000E+00 -0.45593999997E+02  0.45594000000E+02  0.51100000000E-03 0.  1.
         23    2    1    2    0    0  0.00000000000E+00  0.00000000000E+00  0.00000000000E+00  0.91188000000E+02  0.91188000000E+02 0.  0.
    9900012    2    3    3    0    0  0.19596980826E+02 -0.22586211316E+02 -0.31455439499E+02  0.47787271052E+02  0.20000000036E+02 0.  0.
         12    1    3    3    0    0 -0.19596980826E+02  0.22586211316E+02  0.31455439499E+02  0.43400728948E+02  0.00000000000E+00 0. -1.
         11    1    4    4    0    0  0.93943148833E+01 -0.45200925560E+01 -0.64505045235E+01  0.12259420774E+02  0.51100000000E-03 0. -1.
        -11    1    4    4    0    0  0.99461721122E+01 -0.13756855534E+02 -0.95422605224E+01  0.19473883794E+02  0.51100000000E-03 0.  1.
        -12    1    4    4    0    0  0.25649383036E+00 -0.43092632255E+01 -0.15462674453E+02  0.16053966485E+02  0.00000000000E+00 0.  1.
</event>
<event>
 8    1  0.5542925E-011  0.9118800E+02  0.7816164E-02  0.1184000E+00
        -11   -1    0    0    0    0  0.00000000000E+00  0.00000000000E+00  0.45593999997E+02  0.45594000000E+02  0.51100000000E-03 0. -1.
         11   -1    0    0    0    0 -0.00000000000E+00 -0.00000000000E+00 -0.45593999997E+02  0.45594000000E+02  0.51100000000E-03 0.  1.
         23    2    1    2    0    0  0.00000000000E+00 -0.71054273576E-14  0.00000000000E+00  0.91188000000E+02  0.91188000000E+02 0.  0.
    9900012    2    3    3    0    0  0.17185102675E+02  0.37059785897E+02  0.14658372082E+02  0.47787270089E+02  0.19999995643E+02 0.  0.
        -12    1    3    3    0    0 -0.17185102675E+02 -0.37059785897E+02 -0.14658372082E+02  0.43400729911E+02  0.00000000000E+00 0.  1.
         11    1    4    4    0    0  0.77041994368E+01  0.18411692984E+02  0.59601957928E+01  0.20829523798E+02  0.51100000000E-03 0. -1.
        -11    1    4    4    0    0  0.40466014704E+01  0.19436365803E+02  0.54906796657E+01  0.20598418933E+02  0.51100000000E-03 0.  1.
        -12    1    4    4    0    0  0.54343017682E+01 -0.78827288916E+00  0.32074966240E+01  0.63593273582E+01  0.00000000000E+00 0.  1.
</event>
<event>
 8    1  0.5542925E-011  0.9118800E+02  0.7816164E-02  0.1184000E+00
        -11   -1    0    0    0    0  0.00000000000E+00  0.00000000000E+00  0.45593999997E+02  0.45594000000E+02  0.51100000000E-03 0.  1.
         11   -1    0    0    0    0 -0.00000000000E+00 -0.00000000000E+00 -0.45593999997E+02  0.45594000000E+02  0.51100000000E-03 0. -1.
         23    2    1    2    0    0  0.00000000000E+00  0.35527136788E-14  0.35527136788E-14  0.91188000000E+02  0.91188000000E+02 0.  0.
    9900012    2    3    3    0    0  0.23587853722E+02 -0.28269653412E+02 -0.22979704914E+02  0.47787228288E+02  0.19999805057E+02 0.  0.
        -12    1    3    3    0    0 -0.23587853722E+02  0.28269653412E+02  0.22979704914E+02  0.43400771712E+02  0.00000000000E+00 0.  1.
         11    1    4    4    0    0  0.65992517134E+01 -0.80307763861E+01 -0.17592238150E+02  0.20433559062E+02  0.51100000000E-03 0. -1.
        -11    1    4    4    0    0  0.59662176883E+01 -0.46116925963E+01 -0.28560067557E+01  0.80635126934E+01  0.51100000000E-03 0.  1.
         12    1    4    4    0    0  0.11022384321E+02 -0.15627184430E+02 -0.25314600079E+01  0.19290156533E+02  0.00000000000E+00 0. -1.
</event>
<event>
 8    1  0.5542925E-011  0.9118800E+02  0.7816164E-02  0.1184000E+00
        -11   -1    0    0    0    0  0.00000000000E+00  0.00000000000E+00  0.45593999997E+02  0.45594000000E+02  0.51100000000E-03 0. -1.
         11   -1    0    0    0    0 -0.00000000000E+00 -0.00000000000E+00 -0.45593999997E+02  0.45594000000E+02  0.51100000000E-03 0.  1.
         23    2    1    2    0    0  0.00000000000E+00  0.00000000000E+00  0.00000000000E+00  0.91188000000E+02  0.91188000000E+02 0.  0.
    9900012    2    3    3    0    0 -0.12671025763E+02  0.23236349004E+02 -0.34396809004E+02  0.47787270991E+02  0.19999999754E+02 0.  0.
         12    1    3    3    0    0  0.12671025763E+02 -0.23236349004E+02  0.34396809004E+02  0.43400729009E+02  0.00000000000E+00 0. -1.
         11    1    4    4    0    0  0.14347338809E+01  0.27441811451E+01 -0.36441354355E+01  0.47821245070E+01  0.51100000000E-03 0. -1.
        -11    1    4    4    0    0 -0.11927440923E+02  0.85099944960E+01 -0.26170690404E+02  0.29993147381E+02  0.51100000000E-03 0.  1.
        -12    1    4    4    0    0 -0.21783187211E+01  0.11982173362E+02 -0.45819831638E+01  0.13011999103E+02  0.00000000000E+00 0.  1.
</event>
<event>
 8    1  0.5542925E-011  0.9118800E+02  0.7816164E-02  0.1184000E+00
        -11   -1    0    0    0    0  0.00000000000E+00  0.00000000000E+00  0.45593999997E+02  0.45594000000E+02  0.51100000000E-03 0. -1.
         11   -1    0    0    0    0 -0.00000000000E+00 -0.00000000000E+00 -0.45593999997E+02  0.45594000000E+02  0.51100000000E-03 0.  1.
         23    2    1    2    0    0  0.00000000000E+00 -0.88817841970E-15  0.00000000000E+00  0.91188000000E+02  0.91188000000E+02 0.  0.
    9900012    2    3    3    0    0  0.21402777053E+02  0.61005112062E+01  0.37260276219E+02  0.47787270900E+02  0.19999999340E+02 0.  0.
        -12    1    3    3    0    0 -0.21402777053E+02 -0.61005112062E+01 -0.37260276219E+02  0.43400729100E+02  0.00000000000E+00 0.  1.
         11    1    4    4    0    0  0.47243220073E+01  0.35364387714E+01  0.95611347336E+01  0.11235698255E+02  0.51100000000E-03 0. -1.
        -11    1    4    4    0    0  0.10829565815E+02 -0.67569170320E+01  0.16362709577E+02  0.20752679068E+02  0.51100000000E-03 0.  1.
        -12    1    4    4    0    0  0.58488892304E+01  0.93209894668E+01  0.11336431908E+02  0.15798893577E+02  0.00000000000E+00 0.  1.
</event>
<event>
 8    1  0.5542925E-011  0.9118800E+02  0.7816164E-02  0.1184000E+00
        -11   -1    0    0    0    0  0.00000000000E+00  0.00000000000E+00  0.45593999997E+02  0.45594000000E+02  0.51100000000E-03 0. -1.
         11   -1    0    0    0    0 -0.00000000000E+00 -0.00000000000E+00 -0.45593999997E+02  0.45594000000E+02  0.51100000000E-03 0.  1.
         23    2    1    2    0    0  0.00000000000E+00  0.00000000000E+00  0.00000000000E+00  0.91188000000E+02  0.91188000000E+02 0.  0.
    9900012    2    3    3    0    0  0.33893212255E+02 -0.16437801719E+02  0.21556242043E+02  0.47787277272E+02  0.20000028392E+02 0.  0.
        -12    1    3    3    0    0 -0.33893212255E+02  0.16437801719E+02 -0.21556242043E+02  0.43400722728E+02  0.00000000000E+00 0.  1.
         11    1    4    4    0    0 -0.73575787926E+00 -0.14965607413E+01 -0.63123589994E-01  0.16688374870E+01  0.51100000000E-03 0. -1.
        -11    1    4    4    0    0  0.13148605465E+02  0.19969284872E+01  0.57104960987E+01  0.14473538441E+02  0.51100000000E-03 0.  1.
         12    1    4    4    0    0  0.21480364669E+02 -0.16938169465E+02  0.15908869534E+02  0.31644901343E+02  0.00000000000E+00 0. -1.
</event>
<event>
 8    1  0.5542925E-011  0.9118800E+02  0.7816164E-02  0.1184000E+00
        -11   -1    0    0    0    0  0.00000000000E+00  0.00000000000E+00  0.45593999997E+02  0.45594000000E+02  0.51100000000E-03 0. -1.
         11   -1    0    0    0    0 -0.00000000000E+00 -0.00000000000E+00 -0.45593999997E+02  0.45594000000E+02  0.51100000000E-03 0.  1.
         23    2    1    2    0    0 -0.17763568394E-14  0.00000000000E+00 -0.71054273576E-14  0.91188000000E+02  0.91188000000E+02 0.  0.
    9900012    2    3    3    0    0  0.15219080242E+02 -0.13756687809E+02  0.38245995553E+02  0.47787273754E+02  0.20000012353E+02 0.  0.
        -12    1    3    3    0    0 -0.15219080242E+02  0.13756687809E+02 -0.38245995553E+02  0.43400726246E+02  0.00000000000E+00 0.  1.
         11    1    4    4    0    0 -0.26303489760E+01 -0.17308722648E+01  0.89115386310E+01  0.94514642022E+01  0.51100000000E-03 0. -1.
        -11    1    4    4    0    0  0.24752856006E+01 -0.84742698562E+01  0.91349741016E+01  0.12703859276E+02  0.51100000000E-03 0.  1.
        -12    1    4    4    0    0  0.15374143617E+02 -0.35515456883E+01  0.20199482820E+02  0.25631950276E+02  0.00000000000E+00 0.  1.
</event>
<event>
 8    1  0.5542925E-011  0.9118800E+02  0.7816164E-02  0.1184000E+00
        -11   -1    0    0    0    0  0.00000000000E+00  0.00000000000E+00  0.45593999997E+02  0.45594000000E+02  0.51100000000E-03 0. -1.
         11   -1    0    0    0    0 -0.00000000000E+00 -0.00000000000E+00 -0.45593999997E+02  0.45594000000E+02  0.51100000000E-03 0.  1.
         23    2    1    2    0    0 -0.22204460493E-15  0.00000000000E+00 -0.71054273576E-14  0.91188000000E+02  0.91188000000E+02 0.  0.
    9900012    2    3    3    0    0 -0.11115970665E+01  0.14485935975E+02 -0.40896764614E+02  0.47787270225E+02  0.19999996263E+02 0.  0.
         12    1    3    3    0    0  0.11115970665E+01 -0.14485935975E+02  0.40896764614E+02  0.43400729775E+02  0.00000000000E+00 0. -1.
         11    1    4    4    0    0  0.21797536066E+01 -0.86612287945E-01 -0.25770178278E+02  0.25862345528E+02  0.51100000000E-03 0. -1.
        -11    1    4    4    0    0 -0.91845804161E+00  0.10341379020E+02 -0.12976750460E+02  0.16618776669E+02  0.51100000000E-03 0.  1.
        -12    1    4    4    0    0 -0.23728926315E+01  0.42311692423E+01 -0.21498358764E+01  0.53061480278E+01  0.00000000000E+00 0.  1.
</event>
<event>
 8    1  0.5542925E-011  0.9118800E+02  0.7816164E-02  0.1184000E+00
        -11   -1    0    0    0    0  0.00000000000E+00  0.00000000000E+00  0.45593999997E+02  0.45594000000E+02  0.51100000000E-03 0. -1.
         11   -1    0    0    0    0 -0.00000000000E+00 -0.00000000000E+00 -0.45593999997E+02  0.45594000000E+02  0.51100000000E-03 0.  1.
         23    2    1    2    0    0 -0.17763568394E-14  0.17763568394E-14  0.71054273576E-14  0.91188000000E+02  0.91188000000E+02 0.  0.
    9900012    2    3    3    0    0 -0.11345319969E+02 -0.10144969962E+02 -0.40644636629E+02  0.47787272040E+02  0.20000004538E+02 0.  0.
         12    1    3    3    0    0  0.11345319969E+02  0.10144969962E+02  0.40644636629E+02  0.43400727960E+02  0.00000000000E+00 0. -1.
         11    1    4    4    0    0  0.20386152274E+01  0.96878003616E+00 -0.45218158884E+01  0.50538407171E+01  0.51100000000E-03 0. -1.
        -11    1    4    4    0    0  0.14619735754E+01 -0.70125178867E+01 -0.14655629238E+02  0.16312579271E+02  0.51100000000E-03 0.  1.
         12    1    4    4    0    0 -0.14845908772E+02 -0.41012321117E+01 -0.21467191503E+02  0.26420852052E+02  0.00000000000E+00 0. -1.
</event>
<event>
 8    1  0.5542925E-011  0.9118800E+02  0.7816164E-02  0.1184000E+00
        -11   -1    0    0    0    0  0.00000000000E+00  0.00000000000E+00  0.45593999997E+02  0.45594000000E+02  0.51100000000E-03 0. -1.
         11   -1    0    0    0    0 -0.00000000000E+00 -0.00000000000E+00 -0.45593999997E+02  0.45594000000E+02  0.51100000000E-03 0.  1.
         23    2    1    2    0    0  0.00000000000E+00  0.00000000000E+00  0.00000000000E+00  0.91188000000E+02  0.91188000000E+02 0.  0.
    9900012    2    3    3    0    0  0.96171820793E+01  0.76121582473E+01 -0.41631551889E+02  0.47787294280E+02  0.20000105941E+02 0.  0.
         12    1    3    3    0    0 -0.96171820793E+01 -0.76121582473E+01  0.41631551889E+02  0.43400705720E+02  0.00000000000E+00 0. -1.
         11    1    4    4    0    0  0.11664143424E+02  0.33807888333E+01 -0.10460049228E+02  0.16027932027E+02  0.51100000000E-03 0. -1.
        -11    1    4    4    0    0  0.71471136032E+00  0.15638290981E+00 -0.13612762844E+01  0.15454259369E+01  0.51100000000E-03 0.  1.
        -12    1    4    4    0    0 -0.27616727046E+01  0.40749865042E+01 -0.29810226376E+02  0.30213936317E+02  0.00000000000E+00 0.  1.
</event>
<event>
 8    1  0.5542925E-011  0.9118800E+02  0.7816164E-02  0.1184000E+00
        -11   -1    0    0    0    0  0.00000000000E+00  0.00000000000E+00  0.45593999997E+02  0.45594000000E+02  0.51100000000E-03 0. -1.
         11   -1    0    0    0    0 -0.00000000000E+00 -0.00000000000E+00 -0.45593999997E+02  0.45594000000E+02  0.51100000000E-03 0.  1.
         23    2    1    2    0    0  0.00000000000E+00  0.88817841970E-15  0.00000000000E+00  0.91188000000E+02  0.91188000000E+02 0.  0.
    9900012    2    3    3    0    0 -0.35795410509E+02 -0.54941802824E+01  0.23919155707E+02  0.47787269128E+02  0.19999991261E+02 0.  0.
        -12    1    3    3    0    0  0.35795410509E+02  0.54941802824E+01 -0.23919155707E+02  0.43400730872E+02  0.00000000000E+00 0.  1.
         11    1    4    4    0    0 -0.24690487972E+01 -0.36654053912E+01  0.87664419729E+01  0.98174285722E+01  0.51100000000E-03 0. -1.
        -11    1    4    4    0    0 -0.15888153064E+02 -0.47535685830E+01  0.10699207242E+02  0.19735826761E+02  0.51100000000E-03 0.  1.
        -12    1    4    4    0    0 -0.17438208648E+02  0.29247936918E+01  0.44535064923E+01  0.18234013795E+02  0.00000000000E+00 0.  1.
</event>
<event>
 8    1  0.5542925E-011  0.9118800E+02  0.7816164E-02  0.1184000E+00
        -11   -1    0    0    0    0  0.00000000000E+00  0.00000000000E+00  0.45593999997E+02  0.45594000000E+02  0.51100000000E-03 0. -1.
         11   -1    0    0    0    0 -0.00000000000E+00 -0.00000000000E+00 -0.45593999997E+02  0.45594000000E+02  0.51100000000E-03 0.  1.
         23    2    1    2    0    0  0.17763568394E-14  0.00000000000E+00  0.00000000000E+00  0.91188000000E+02  0.91188000000E+02 0.  0.
    9900012    2    3    3    0    0 -0.11141987476E+02 -0.22602047544E+02 -0.35335913784E+02  0.47787271422E+02  0.20000001724E+02 0.  0.
         12    1    3    3    0    0  0.11141987476E+02  0.22602047544E+02  0.35335913784E+02  0.43400728578E+02  0.00000000000E+00 0. -1.
         11    1    4    4    0    0 -0.59573807858E+01 -0.45976336454E+01 -0.83720416494E+01  0.11256984614E+02  0.51100000000E-03 0. -1.
        -11    1    4    4    0    0 -0.96992267079E+01 -0.97903229358E+01 -0.21903931819E+02  0.25878710388E+02  0.51100000000E-03 0.  1.
         12    1    4    4    0    0  0.45146200177E+01 -0.82140909628E+01 -0.50599403154E+01  0.10651576421E+02  0.00000000000E+00 0. -1.
</event>
<event>
 8    1  0.5542925E-011  0.9118800E+02  0.7816164E-02  0.1184000E+00
        -11   -1    0    0    0    0  0.00000000000E+00  0.00000000000E+00  0.45593999997E+02  0.45594000000E+02  0.51100000000E-03 0. -1.
         11   -1    0    0    0    0 -0.00000000000E+00 -0.00000000000E+00 -0.45593999997E+02  0.45594000000E+02  0.51100000000E-03 0.  1.
         23    2    1    2    0    0  0.35527136788E-14 -0.88817841970E-15  0.00000000000E+00  0.91188000000E+02  0.91188000000E+02 0.  0.
    9900012    2    3    3    0    0  0.26915154171E+02  0.68516822083E+01 -0.33350445919E+02  0.47787270557E+02  0.19999997778E+02 0.  0.
         12    1    3    3    0    0 -0.26915154171E+02 -0.68516822083E+01  0.33350445919E+02  0.43400729443E+02  0.00000000000E+00 0. -1.
         11    1    4    4    0    0  0.12948345425E+02  0.80890497002E+01 -0.17015973075E+02  0.22861227313E+02  0.51100000000E-03 0. -1.
        -11    1    4    4    0    0  0.45218048605E+01  0.64661945987E+00 -0.14394054638E+02  0.15101445133E+02  0.51100000000E-03 0.  1.
        -12    1    4    4    0    0  0.94450038860E+01 -0.18839869518E+01 -0.19404182068E+01  0.98245981118E+01  0.00000000000E+00 0.  1.
</event>
<event>
 8    1  0.5542925E-011  0.9118800E+02  0.7816164E-02  0.1184000E+00
        -11   -1    0    0    0    0  0.00000000000E+00  0.00000000000E+00  0.45593999997E+02  0.45594000000E+02  0.51100000000E-03 0.  1.
         11   -1    0    0    0    0 -0.00000000000E+00 -0.00000000000E+00 -0.45593999997E+02  0.45594000000E+02  0.51100000000E-03 0. -1.
         23    2    1    2    0    0 -0.44408920985E-15  0.71054273576E-14  0.00000000000E+00  0.91188000000E+02  0.91188000000E+02 0.  0.
    9900012    2    3    3    0    0 -0.27238387055E+01 -0.43240281017E+02  0.25459644692E+01  0.47787272647E+02  0.20000007305E+02 0.  0.
         12    1    3    3    0    0  0.27238387055E+01  0.43240281017E+02 -0.25459644692E+01  0.43400727353E+02  0.00000000000E+00 0. -1.
         11    1    4    4    0    0  0.10576495007E+01  0.24055973937E+00 -0.24915403916E+01  0.27174004561E+01  0.51100000000E-03 0.  1.
        -11    1    4    4    0    0 -0.49608324806E+01 -0.90331488502E+01  0.16327122871E+01  0.10434241071E+02  0.51100000000E-03 0. -1.
        -12    1    4    4    0    0  0.11793442744E+01 -0.34447691906E+02  0.34047925738E+01  0.34635631120E+02  0.00000000000E+00 0.  1.
</event>
<event>
 8    1  0.5542925E-011  0.9118800E+02  0.7816164E-02  0.1184000E+00
        -11   -1    0    0    0    0  0.00000000000E+00  0.00000000000E+00  0.45593999997E+02  0.45594000000E+02  0.51100000000E-03 0. -1.
         11   -1    0    0    0    0 -0.00000000000E+00 -0.00000000000E+00 -0.45593999997E+02  0.45594000000E+02  0.51100000000E-03 0.  1.
         23    2    1    2    0    0  0.00000000000E+00  0.72164496601E-15  0.00000000000E+00  0.91188000000E+02  0.91188000000E+02 0.  0.
    9900012    2    3    3    0    0 -0.86238830941E+01 -0.38077469493E+00  0.42533594805E+02  0.47787273784E+02  0.20000012492E+02 0.  0.
        -12    1    3    3    0    0  0.86238830941E+01  0.38077469493E+00 -0.42533594805E+02  0.43400726216E+02  0.00000000000E+00 0.  1.
         11    1    4    4    0    0  0.25193361810E+00 -0.39511439379E+01  0.83704606609E+01  0.92595691532E+01  0.51100000000E-03 0.  1.
        -11    1    4    4    0    0 -0.96106687961E+01 -0.38344551976E+01  0.18892091935E+02  0.21540175006E+02  0.51100000000E-03 0. -1.
         12    1    4    4    0    0  0.73485208395E+00  0.74048244405E+01  0.15271042210E+02  0.16987529625E+02  0.00000000000E+00 0. -1.
</event>
<event>
 8    1  0.5542925E-011  0.9118800E+02  0.7816164E-02  0.1184000E+00
        -11   -1    0    0    0    0  0.00000000000E+00  0.00000000000E+00  0.45593999997E+02  0.45594000000E+02  0.51100000000E-03 0. -1.
         11   -1    0    0    0    0 -0.00000000000E+00 -0.00000000000E+00 -0.45593999997E+02  0.45594000000E+02  0.51100000000E-03 0.  1.
         23    2    1    2    0    0 -0.35527136788E-14 -0.44408920985E-15  0.35527136788E-14  0.91188000000E+02  0.91188000000E+02 0.  0.
    9900012    2    3    3    0    0 -0.30539669103E+02 -0.23504073227E+01  0.30747803962E+02  0.47787271296E+02  0.20000001148E+02 0.  0.
        -12    1    3    3    0    0  0.30539669103E+02  0.23504073227E+01 -0.30747803962E+02  0.43400728704E+02  0.00000000000E+00 0.  1.
         11    1    4    4    0    0 -0.22322245745E+02  0.13204543566E+01  0.16607135247E+02  0.27853602930E+02  0.51100000000E-03 0. -1.
        -11    1    4    4    0    0 -0.94318423506E+01 -0.65196532120E+00  0.13706376972E+02  0.16650810156E+02  0.51100000000E-03 0.  1.
        -12    1    4    4    0    0  0.12144189924E+01 -0.30188963581E+01  0.43429174359E+00  0.32828582102E+01  0.00000000000E+00 0.  1.
</event>
<event>
 8    1  0.5542925E-011  0.9118800E+02  0.7816164E-02  0.1184000E+00
        -11   -1    0    0    0    0  0.00000000000E+00  0.00000000000E+00  0.45593999997E+02  0.45594000000E+02  0.51100000000E-03 0.  1.
         11   -1    0    0    0    0 -0.00000000000E+00 -0.00000000000E+00 -0.45593999997E+02  0.45594000000E+02  0.51100000000E-03 0. -1.
         23    2    1    2    0    0  0.00000000000E+00  0.00000000000E+00 -0.35527136788E-14  0.91188000000E+02  0.91188000000E+02 0.  0.
    9900012    2    3    3    0    0  0.17022244121E+02 -0.35901521842E+02  0.17462735822E+02  0.47787271804E+02  0.20000003465E+02 0.  0.
        -12    1    3    3    0    0 -0.17022244121E+02  0.35901521842E+02 -0.17462735822E+02  0.43400728196E+02  0.00000000000E+00 0.  1.
         11    1    4    4    0    0  0.71878928833E+01 -0.24105259909E+02  0.10422328347E+02  0.27227821944E+02  0.51100000000E-03 0. -1.
        -11    1    4    4    0    0  0.48793782470E+01 -0.13116812831E+02  0.64094250747E+01  0.15392850320E+02  0.51100000000E-03 0.  1.
        -12    1    4    4    0    0  0.49549729911E+01  0.13205508982E+01  0.63098240062E+00  0.51665995400E+01  0.00000000000E+00 0.  1.
</event>
<event>
 8    1  0.5542925E-011  0.9118800E+02  0.7816164E-02  0.1184000E+00
        -11   -1    0    0    0    0  0.00000000000E+00  0.00000000000E+00  0.45593999997E+02  0.45594000000E+02  0.51100000000E-03 0. -1.
         11   -1    0    0    0    0 -0.00000000000E+00 -0.00000000000E+00 -0.45593999997E+02  0.45594000000E+02  0.51100000000E-03 0.  1.
         23    2    1    2    0    0  0.00000000000E+00  0.00000000000E+00 -0.71054273576E-14  0.91188000000E+02  0.91188000000E+02 0.  0.
    9900012    2    3    3    0    0  0.87966146193E+01 -0.17412350043E+02 -0.38769226293E+02  0.47787271087E+02  0.20000000195E+02 0.  0.
         12    1    3    3    0    0 -0.87966146193E+01  0.17412350043E+02  0.38769226293E+02  0.43400728913E+02  0.00000000000E+00 0. -1.
         11    1    4    4    0    0 -0.20435432032E+01 -0.80599015574E+01 -0.79643297031E+01  0.11513845136E+02  0.51100000000E-03 0.  1.
        -11    1    4    4    0    0 -0.61127924337E+00  0.23335892970E+01 -0.19471296065E+01  0.31000992381E+01  0.51100000000E-03 0. -1.
        -12    1    4    4    0    0  0.11451437066E+02 -0.11686037782E+02 -0.28857766984E+02  0.33173326713E+02  0.00000000000E+00 0.  1.
</event>
<event>
 8    1  0.1039229E-010  0.9118800E+02  0.7816164E-02  0.1184000E+00
        -11   -1    0    0    0    0  0.00000000000E+00  0.00000000000E+00  0.45593999997E+02  0.45594000000E+02  0.51100000000E-03 0. -1.
         11   -1    0    0    0    0 -0.00000000000E+00 -0.00000000000E+00 -0.45593999997E+02  0.45594000000E+02  0.51100000000E-03 0.  1.
         23    2    1    2    0    0  0.17763568394E-14 -0.88817841970E-15 -0.71054273576E-14  0.91188000000E+02  0.91188000000E+02 0.  0.
    9900012    2    3    3    0    0  0.91267631411E+01  0.35946463418E+01  0.42277726522E+02  0.47787246002E+02  0.19999885820E+02 0.  0.
        -12    1    3    3    0    0 -0.91267631411E+01 -0.35946463418E+01 -0.42277726522E+02  0.43400753998E+02  0.00000000000E+00 0.  1.
         11    1    4    4    0    0  0.17310375722E+01  0.57367589659E+01  0.50600259046E+01  0.78428793772E+01  0.51100000000E-03 0.  1.
        -11    1    4    4    0    0 -0.32052822098E+01  0.10392595620E+01  0.71485753176E+01  0.79029123628E+01  0.51100000000E-03 0. -1.
         12    1    4    4    0    0  0.10601007779E+02 -0.31813721861E+01  0.30069125300E+02  0.32041454262E+02  0.00000000000E+00 0. -1.
</event>
<event>
 8    1  0.5542925E-011  0.9118800E+02  0.7816164E-02  0.1184000E+00
        -11   -1    0    0    0    0  0.00000000000E+00  0.00000000000E+00  0.45593999997E+02  0.45594000000E+02  0.51100000000E-03 0. -1.
         11   -1    0    0    0    0 -0.00000000000E+00 -0.00000000000E+00 -0.45593999997E+02  0.45594000000E+02  0.51100000000E-03 0.  1.
         23    2    1    2    0    0  0.00000000000E+00  0.00000000000E+00  0.00000000000E+00  0.91188000000E+02  0.91188000000E+02 0.  0.
    9900012    2    3    3    0    0  0.12694428022E+02 -0.53977226257E+01  0.41150201036E+02  0.47787274688E+02  0.20000016612E+02 0.  0.
        -12    1    3    3    0    0 -0.12694428022E+02  0.53977226257E+01 -0.41150201036E+02  0.43400725312E+02  0.00000000000E+00 0.  1.
         11    1    4    4    0    0  0.72750955720E+01 -0.60525327869E-03  0.99492985246E+01  0.12325402928E+02  0.51100000000E-03 0. -1.
        -11    1    4    4    0    0  0.99652891888E+01 -0.11520713823E+01  0.23578567553E+02  0.25623877638E+02  0.51100000000E-03 0.  1.
         12    1    4    4    0    0 -0.45459567390E+01 -0.42450459900E+01  0.76223349577E+01  0.98379941216E+01  0.00000000000E+00 0. -1.
</event>
<event>
 8    1  0.5542925E-011  0.9118800E+02  0.7816164E-02  0.1184000E+00
        -11   -1    0    0    0    0  0.00000000000E+00  0.00000000000E+00  0.45593999997E+02  0.45594000000E+02  0.51100000000E-03 0. -1.
         11   -1    0    0    0    0 -0.00000000000E+00 -0.00000000000E+00 -0.45593999997E+02  0.45594000000E+02  0.51100000000E-03 0.  1.
         23    2    1    2    0    0  0.00000000000E+00  0.00000000000E+00  0.00000000000E+00  0.91188000000E+02  0.91188000000E+02 0.  0.
    9900012    2    3    3    0    0  0.16489960272E+02 -0.35342898500E+02 -0.19041627677E+02  0.47787275942E+02  0.20000022330E+02 0.  0.
         12    1    3    3    0    0 -0.16489960272E+02  0.35342898500E+02  0.19041627677E+02  0.43400724058E+02  0.00000000000E+00 0. -1.
         11    1    4    4    0    0  0.78644185991E+01 -0.34094358079E+01 -0.65884935856E+01  0.10811178493E+02  0.51100000000E-03 0. -1.
        -11    1    4    4    0    0  0.79961368900E+01 -0.97617382092E+01 -0.50674953297E+01  0.13598133960E+02  0.51100000000E-03 0.  1.
         12    1    4    4    0    0  0.62940478303E+00 -0.22171724483E+02 -0.73856387619E+01  0.23377963488E+02  0.00000000000E+00 0. -1.
</event>
<event>
 8    1  0.5542925E-011  0.9118800E+02  0.7816164E-02  0.1184000E+00
        -11   -1    0    0    0    0  0.00000000000E+00  0.00000000000E+00  0.45593999997E+02  0.45594000000E+02  0.51100000000E-03 0. -1.
         11   -1    0    0    0    0 -0.00000000000E+00 -0.00000000000E+00 -0.45593999997E+02  0.45594000000E+02  0.51100000000E-03 0.  1.
         23    2    1    2    0    0  0.00000000000E+00 -0.71054273576E-14  0.11102230246E-15  0.91188000000E+02  0.91188000000E+02 0.  0.
    9900012    2    3    3    0    0 -0.39038730835E+01 -0.43221107317E+02 -0.56503297831E+00  0.47787267229E+02  0.19999982604E+02 0.  0.
         12    1    3    3    0    0  0.39038730835E+01  0.43221107317E+02  0.56503297831E+00  0.43400732771E+02  0.00000000000E+00 0. -1.
         11    1    4    4    0    0 -0.15826576458E+01 -0.14653497688E+02 -0.13287881160E+01  0.14798495797E+02  0.51100000000E-03 0.  1.
        -11    1    4    4    0    0 -0.81353117673E+01 -0.23127394286E+02  0.30478632179E+01  0.24705245080E+02  0.51100000000E-03 0. -1.
         12    1    4    4    0    0  0.58140963296E+01 -0.54402153433E+01 -0.22841080802E+01  0.82835263526E+01  0.00000000000E+00 0. -1.
</event>
<event>
 8    1  0.5542925E-011  0.9118800E+02  0.7816164E-02  0.1184000E+00
        -11   -1    0    0    0    0  0.00000000000E+00  0.00000000000E+00  0.45593999997E+02  0.45594000000E+02  0.51100000000E-03 0. -1.
         11   -1    0    0    0    0 -0.00000000000E+00 -0.00000000000E+00 -0.45593999997E+02  0.45594000000E+02  0.51100000000E-03 0.  1.
         23    2    1    2    0    0 -0.35527136788E-14 -0.35527136788E-14  0.35527136788E-14  0.91188000000E+02  0.91188000000E+02 0.  0.
    9900012    2    3    3    0    0  0.18525851793E+02 -0.29393529820E+02 -0.26008377376E+02  0.47787280264E+02  0.20000042035E+02 0.  0.
         12    1    3    3    0    0 -0.18525851793E+02  0.29393529820E+02  0.26008377376E+02  0.43400719736E+02  0.00000000000E+00 0. -1.
         11    1    4    4    0    0  0.10259453016E+02 -0.16529856139E+02 -0.21018513445E+02  0.28640363612E+02  0.51100000000E-03 0. -1.
        -11    1    4    4    0    0  0.65891934404E+01 -0.89257938577E+01 -0.82006518198E+01  0.13796302284E+02  0.51100000000E-03 0.  1.
        -12    1    4    4    0    0  0.16772053364E+01 -0.39378798232E+01  0.32107878888E+01  0.53506143675E+01  0.00000000000E+00 0.  1.
</event>
<event>
 8    1  0.5542925E-011  0.9118800E+02  0.7816164E-02  0.1184000E+00
        -11   -1    0    0    0    0  0.00000000000E+00  0.00000000000E+00  0.45593999997E+02  0.45594000000E+02  0.51100000000E-03 0. -1.
         11   -1    0    0    0    0 -0.00000000000E+00 -0.00000000000E+00 -0.45593999997E+02  0.45594000000E+02  0.51100000000E-03 0.  1.
         23    2    1    2    0    0  0.00000000000E+00  0.00000000000E+00  0.00000000000E+00  0.91188000000E+02  0.91188000000E+02 0.  0.
    9900012    2    3    3    0    0 -0.87471457137E+01 -0.32440454049E+02 -0.27472306302E+02  0.47787271543E+02  0.20000002275E+02 0.  0.
         12    1    3    3    0    0  0.87471457137E+01  0.32440454049E+02  0.27472306302E+02  0.43400728457E+02  0.00000000000E+00 0. -1.
         11    1    4    4    0    0 -0.16478751126E+01  0.93319543677E+00  0.89692408246E+00  0.20954281617E+01  0.51100000000E-03 0. -1.
        -11    1    4    4    0    0 -0.25350760130E+00  0.85835182397E+00 -0.52462475593E+00  0.10374320957E+01  0.51100000000E-03 0.  1.
        -12    1    4    4    0    0 -0.68457629998E+01 -0.34232001310E+02 -0.27844605628E+02  0.44654411286E+02  0.00000000000E+00 0.  1.
</event>
<event>
 8    1  0.5542925E-011  0.9118800E+02  0.7816164E-02  0.1184000E+00
        -11   -1    0    0    0    0  0.00000000000E+00  0.00000000000E+00  0.45593999997E+02  0.45594000000E+02  0.51100000000E-03 0. -1.
         11   -1    0    0    0    0 -0.00000000000E+00 -0.00000000000E+00 -0.45593999997E+02  0.45594000000E+02  0.51100000000E-03 0.  1.
         23    2    1    2    0    0 -0.13877787808E-15  0.17763568394E-14  0.71054273576E-14  0.91188000000E+02  0.91188000000E+02 0.  0.
    9900012    2    3    3    0    0 -0.15151627494E+00  0.13498965882E+02  0.41247759288E+02  0.47787277848E+02  0.20000031018E+02 0.  0.
        -12    1    3    3    0    0  0.15151627494E+00 -0.13498965882E+02 -0.41247759288E+02  0.43400722152E+02  0.00000000000E+00 0.  1.
         11    1    4    4    0    0 -0.85929561211E+00  0.13360419915E+02  0.17341418386E+02  0.21908080728E+02  0.51100000000E-03 0. -1.
        -11    1    4    4    0    0 -0.14337152814E+01  0.46589604057E+01  0.12870802977E+02  0.13762958297E+02  0.51100000000E-03 0.  1.
        -12    1    4    4    0    0  0.21414946185E+01 -0.45204144393E+01  0.11035537925E+02  0.12116238822E+02  0.00000000000E+00 0.  1.
</event>
<event>
 8    1  0.5542925E-011  0.9118800E+02  0.7816164E-02  0.1184000E+00
        -11   -1    0    0    0    0  0.00000000000E+00  0.00000000000E+00  0.45593999997E+02  0.45594000000E+02  0.51100000000E-03 0. -1.
         11   -1    0    0    0    0 -0.00000000000E+00 -0.00000000000E+00 -0.45593999997E+02  0.45594000000E+02  0.51100000000E-03 0.  1.
         23    2    1    2    0    0  0.88817841970E-15  0.00000000000E+00  0.00000000000E+00  0.91188000000E+02  0.91188000000E+02 0.  0.
    9900012    2    3    3    0    0  0.48522537085E+01  0.20222946563E+02  0.38093443640E+02  0.47787281318E+02  0.20000046842E+02 0.  0.
        -12    1    3    3    0    0 -0.48522537085E+01 -0.20222946563E+02 -0.38093443640E+02  0.43400718682E+02  0.00000000000E+00 0.  1.
         11    1    4    4    0    0 -0.20504293893E+01  0.13087163526E+01  0.85633468459E+01  0.89021294439E+01  0.51100000000E-03 0. -1.
        -11    1    4    4    0    0  0.92036051426E+01  0.10490598415E+02  0.25915857169E+02  0.29434514703E+02  0.51100000000E-03 0.  1.
        -12    1    4    4    0    0 -0.23009220448E+01  0.84236317949E+01  0.36142396252E+01  0.94506371712E+01  0.00000000000E+00 0.  1.
</event>
<event>
 8    1  0.5542925E-011  0.9118800E+02  0.7816164E-02  0.1184000E+00
        -11   -1    0    0    0    0  0.00000000000E+00  0.00000000000E+00  0.45593999997E+02  0.45594000000E+02  0.51100000000E-03 0. -1.
         11   -1    0    0    0    0 -0.00000000000E+00 -0.00000000000E+00 -0.45593999997E+02  0.45594000000E+02  0.51100000000E-03 0.  1.
         23    2    1    2    0    0  0.17763568394E-14  0.17763568394E-14  0.00000000000E+00  0.91188000000E+02  0.91188000000E+02 0.  0.
    9900012    2    3    3    0    0  0.10231682720E+02  0.11209963775E+02 -0.40660457193E+02  0.47787269612E+02  0.19999993467E+02 0.  0.
         12    1    3    3    0    0 -0.10231682720E+02 -0.11209963775E+02  0.40660457193E+02  0.43400730388E+02  0.00000000000E+00 0. -1.
         11    1    4    4    0    0  0.25964166456E+01 -0.16367293768E+01 -0.80494231403E+01  0.86147243487E+01  0.51100000000E-03 0. -1.
        -11    1    4    4    0    0  0.75649949572E+01  0.91521768991E+01 -0.33353015256E+02  0.35403603173E+02  0.51100000000E-03 0.  1.
         12    1    4    4    0    0  0.70271117096E-01  0.36945162527E+01  0.74198120358E+00  0.37689420900E+01  0.00000000000E+00 0. -1.
</event>
<event>
 8    1  0.5820720E-011  0.9118800E+02  0.7816164E-02  0.1184000E+00
        -11   -1    0    0    0    0  0.00000000000E+00  0.00000000000E+00  0.45593999997E+02  0.45594000000E+02  0.51100000000E-03 0. -1.
         11   -1    0    0    0    0 -0.00000000000E+00 -0.00000000000E+00 -0.45593999997E+02  0.45594000000E+02  0.51100000000E-03 0.  1.
         23    2    1    2    0    0  0.00000000000E+00  0.17763568394E-14  0.00000000000E+00  0.91188000000E+02  0.91188000000E+02 0.  0.
    9900012    2    3    3    0    0  0.21886156853E+02 -0.13213166108E+02  0.35071803750E+02  0.47787273754E+02  0.20000012354E+02 0.  0.
        -12    1    3    3    0    0 -0.21886156853E+02  0.13213166108E+02 -0.35071803750E+02  0.43400726246E+02  0.00000000000E+00 0.  1.
         11    1    4    4    0    0  0.83165818814E+01 -0.18526762886E+00  0.13120073088E+02  0.15534998435E+02  0.51100000000E-03 0. -1.
        -11    1    4    4    0    0  0.18432186716E+01  0.23749864925E+01  0.30045592654E-01  0.30064794876E+01  0.51100000000E-03 0.  1.
         12    1    4    4    0    0  0.11726356300E+02 -0.15402884972E+02  0.21921685069E+02  0.29245795831E+02  0.00000000000E+00 0. -1.
</event>
<event>
 8    1  0.5542925E-011  0.9118800E+02  0.7816164E-02  0.1184000E+00
        -11   -1    0    0    0    0  0.00000000000E+00  0.00000000000E+00  0.45593999997E+02  0.45594000000E+02  0.51100000000E-03 0. -1.
         11   -1    0    0    0    0 -0.00000000000E+00 -0.00000000000E+00 -0.45593999997E+02  0.45594000000E+02  0.51100000000E-03 0.  1.
         23    2    1    2    0    0  0.00000000000E+00  0.00000000000E+00  0.00000000000E+00  0.91188000000E+02  0.91188000000E+02 0.  0.
    9900012    2    3    3    0    0  0.90311060317E+01 -0.12648764081E+02 -0.40522474780E+02  0.47787273379E+02  0.20000010645E+02 0.  0.
         12    1    3    3    0    0 -0.90311060317E+01  0.12648764081E+02  0.40522474780E+02  0.43400726621E+02  0.00000000000E+00 0. -1.
         11    1    4    4    0    0 -0.36966072558E+01 -0.60577930425E+01 -0.12297928388E+02  0.14198619815E+02  0.51100000000E-03 0. -1.
        -11    1    4    4    0    0  0.35184297551E+01 -0.58957249150E+01 -0.47115591917E+01  0.83269268336E+01  0.51100000000E-03 0.  1.
        -12    1    4    4    0    0  0.92092835325E+01 -0.69524612365E+00 -0.23512987200E+02  0.25261726731E+02  0.00000000000E+00 0.  1.
</event>
<event>
 8    1  0.5542925E-011  0.9118800E+02  0.7816164E-02  0.1184000E+00
        -11   -1    0    0    0    0  0.00000000000E+00  0.00000000000E+00  0.45593999997E+02  0.45594000000E+02  0.51100000000E-03 0. -1.
         11   -1    0    0    0    0 -0.00000000000E+00 -0.00000000000E+00 -0.45593999997E+02  0.45594000000E+02  0.51100000000E-03 0.  1.
         23    2    1    2    0    0  0.35527136788E-14  0.00000000000E+00 -0.71054273576E-14  0.91188000000E+02  0.91188000000E+02 0.  0.
    9900012    2    3    3    0    0 -0.20015729850E+02  0.87346513998E+01 -0.37505994770E+02  0.47787271663E+02  0.20000002819E+02 0.  0.
         12    1    3    3    0    0  0.20015729850E+02 -0.87346513998E+01  0.37505994770E+02  0.43400728337E+02  0.00000000000E+00 0. -1.
         11    1    4    4    0    0 -0.18979895154E+02  0.23009992909E+01 -0.20001820496E+02  0.27669547181E+02  0.51100000000E-03 0. -1.
        -11    1    4    4    0    0 -0.60116231034E+00 -0.42142483309E+00  0.47276205618E+00  0.87321202248E+00  0.51100000000E-03 0.  1.
        -12    1    4    4    0    0 -0.43467238564E+00  0.68550769420E+01 -0.17976936331E+02  0.19244512460E+02  0.00000000000E+00 0.  1.
</event>
<event>
 8    1  0.5542925E-011  0.9118800E+02  0.7816164E-02  0.1184000E+00
        -11   -1    0    0    0    0  0.00000000000E+00  0.00000000000E+00  0.45593999997E+02  0.45594000000E+02  0.51100000000E-03 0. -1.
         11   -1    0    0    0    0 -0.00000000000E+00 -0.00000000000E+00 -0.45593999997E+02  0.45594000000E+02  0.51100000000E-03 0.  1.
         23    2    1    2    0    0 -0.44408920985E-15  0.00000000000E+00  0.00000000000E+00  0.91188000000E+02  0.91188000000E+02 0.  0.
    9900012    2    3    3    0    0 -0.23475729749E+01 -0.18950649546E+02 -0.38974158015E+02  0.47787271779E+02  0.20000003349E+02 0.  0.
         12    1    3    3    0    0  0.23475729749E+01  0.18950649546E+02  0.38974158015E+02  0.43400728221E+02  0.00000000000E+00 0. -1.
         11    1    4    4    0    0 -0.38798122699E+01 -0.10219452749E+01 -0.64948417311E+00  0.40643751484E+01  0.51100000000E-03 0. -1.
        -11    1    4    4    0    0 -0.42973098705E+01 -0.62387927105E+01 -0.18393500701E+02  0.19892467793E+02  0.51100000000E-03 0.  1.
        -12    1    4    4    0    0  0.58295491655E+01 -0.11689911561E+02 -0.19931173142E+02  0.23830428837E+02  0.00000000000E+00 0.  1.
</event>
<event>
 8    1  0.5542925E-011  0.9118800E+02  0.7816164E-02  0.1184000E+00
        -11   -1    0    0    0    0  0.00000000000E+00  0.00000000000E+00  0.45593999997E+02  0.45594000000E+02  0.51100000000E-03 0.  1.
         11   -1    0    0    0    0 -0.00000000000E+00 -0.00000000000E+00 -0.45593999997E+02  0.45594000000E+02  0.51100000000E-03 0. -1.
         23    2    1    2    0    0  0.00000000000E+00 -0.68001160258E-15  0.00000000000E+00  0.91188000000E+02  0.91188000000E+02 0.  0.
    9900012    2    3    3    0    0  0.41450344519E+02  0.44971412287E-01  0.12864315812E+02  0.47787266084E+02  0.19999977382E+02 0.  0.
        -12    1    3    3    0    0 -0.41450344519E+02 -0.44971412287E-01 -0.12864315812E+02  0.43400733916E+02  0.00000000000E+00 0.  1.
         11    1    4    4    0    0  0.71725421624E+01  0.29115636138E+01  0.18584823966E+01  0.79609371828E+01  0.51100000000E-03 0. -1.
        -11    1    4    4    0    0  0.79624975952E+01 -0.71214309294E+01  0.72394947059E+01  0.12904512013E+02  0.51100000000E-03 0.  1.
         12    1    4    4    0    0  0.26315304761E+02  0.42548387278E+01  0.37663387098E+01  0.26921816888E+02  0.00000000000E+00 0. -1.
</event>
<event>
 8    1  0.5542925E-011  0.9118800E+02  0.7816164E-02  0.1184000E+00
        -11   -1    0    0    0    0  0.00000000000E+00  0.00000000000E+00  0.45593999997E+02  0.45594000000E+02  0.51100000000E-03 0. -1.
         11   -1    0    0    0    0 -0.00000000000E+00 -0.00000000000E+00 -0.45593999997E+02  0.45594000000E+02  0.51100000000E-03 0.  1.
         23    2    1    2    0    0  0.35527136788E-14 -0.35527136788E-14  0.35527136788E-14  0.91188000000E+02  0.91188000000E+02 0.  0.
    9900012    2    3    3    0    0  0.29758691356E+02 -0.24211324694E+02  0.20294215521E+02  0.47787272607E+02  0.20000007124E+02 0.  0.
        -12    1    3    3    0    0 -0.29758691356E+02  0.24211324694E+02 -0.20294215521E+02  0.43400727393E+02  0.00000000000E+00 0.  1.
         11    1    4    4    0    0  0.29615584769E+01  0.16546935444E+01  0.50341720845E+00  0.34296163758E+01  0.51100000000E-03 0. -1.
        -11    1    4    4    0    0  0.30022806056E+00 -0.72230208079E+01  0.46538234149E+01  0.85976880100E+01  0.51100000000E-03 0.  1.
         12    1    4    4    0    0  0.26496904818E+02 -0.18642997430E+02  0.15136974897E+02  0.35759968221E+02  0.00000000000E+00 0. -1.
</event>
<event>
 8    1  0.5542925E-011  0.9118800E+02  0.7816164E-02  0.1184000E+00
        -11   -1    0    0    0    0  0.00000000000E+00  0.00000000000E+00  0.45593999997E+02  0.45594000000E+02  0.51100000000E-03 0. -1.
         11   -1    0    0    0    0 -0.00000000000E+00 -0.00000000000E+00 -0.45593999997E+02  0.45594000000E+02  0.51100000000E-03 0.  1.
         23    2    1    2    0    0 -0.71054273576E-14 -0.35527136788E-14 -0.35527136788E-14  0.91188000000E+02  0.91188000000E+02 0.  0.
    9900012    2    3    3    0    0 -0.36268626413E+02 -0.17643085364E+02 -0.16029087994E+02  0.47787269764E+02  0.19999994164E+02 0.  0.
         12    1    3    3    0    0  0.36268626413E+02  0.17643085364E+02  0.16029087994E+02  0.43400730236E+02  0.00000000000E+00 0. -1.
         11    1    4    4    0    0 -0.11071909073E+02 -0.14024718023E+02 -0.83969947325E+01  0.19743085042E+02  0.51100000000E-03 0. -1.
        -11    1    4    4    0    0 -0.10916193599E+02 -0.54678058871E+01 -0.11829794046E+01  0.12266198451E+02  0.51100000000E-03 0.  1.
        -12    1    4    4    0    0 -0.14280523741E+02  0.18494385464E+01 -0.64491138564E+01  0.15777986272E+02  0.00000000000E+00 0.  1.
</event>
<event>
 8    1  0.5542925E-011  0.9118800E+02  0.7816164E-02  0.1184000E+00
        -11   -1    0    0    0    0  0.00000000000E+00  0.00000000000E+00  0.45593999997E+02  0.45594000000E+02  0.51100000000E-03 0. -1.
         11   -1    0    0    0    0 -0.00000000000E+00 -0.00000000000E+00 -0.45593999997E+02  0.45594000000E+02  0.51100000000E-03 0.  1.
         23    2    1    2    0    0  0.00000000000E+00  0.00000000000E+00  0.00000000000E+00  0.91188000000E+02  0.91188000000E+02 0.  0.
    9900012    2    3    3    0    0 -0.42806612193E+01  0.30600872429E+02 -0.30477629985E+02  0.47787269783E+02  0.19999994248E+02 0.  0.
         12    1    3    3    0    0  0.42806612193E+01 -0.30600872429E+02  0.30477629985E+02  0.43400730217E+02  0.00000000000E+00 0. -1.
         11    1    4    4    0    0 -0.30502253315E+01  0.56719924953E+00  0.21945157948E+00  0.31102650720E+01  0.51100000000E-03 0. -1.
        -11    1    4    4    0    0  0.50053452540E+01  0.73196729594E+01 -0.74328436989E+01  0.11570577300E+02  0.51100000000E-03 0.  1.
         12    1    4    4    0    0 -0.62357811418E+01  0.22714000220E+02 -0.23264237866E+02  0.33106427411E+02  0.00000000000E+00 0. -1.
</event>
<event>
 8    1  0.5542925E-011  0.9118800E+02  0.7816164E-02  0.1184000E+00
        -11   -1    0    0    0    0  0.00000000000E+00  0.00000000000E+00  0.45593999997E+02  0.45594000000E+02  0.51100000000E-03 0. -1.
         11   -1    0    0    0    0 -0.00000000000E+00 -0.00000000000E+00 -0.45593999997E+02  0.45594000000E+02  0.51100000000E-03 0.  1.
         23    2    1    2    0    0  0.35527136788E-14  0.00000000000E+00  0.00000000000E+00  0.91188000000E+02  0.91188000000E+02 0.  0.
    9900012    2    3    3    0    0  0.19958398242E+02  0.49165144759E+01  0.38224513516E+02  0.47787271797E+02  0.20000003432E+02 0.  0.
        -12    1    3    3    0    0 -0.19958398242E+02 -0.49165144759E+01 -0.38224513516E+02  0.43400728203E+02  0.00000000000E+00 0.  1.
         11    1    4    4    0    0  0.91934496091E+01  0.11824946535E+02  0.22611436948E+02  0.27122425359E+02  0.51100000000E-03 0. -1.
        -11    1    4    4    0    0 -0.25609861098E+00 -0.25610793732E-01 -0.99190504824E-01  0.27582862192E+00  0.51100000000E-03 0.  1.
         12    1    4    4    0    0  0.11021047244E+02 -0.68828212651E+01  0.15712267073E+02  0.20389017816E+02  0.00000000000E+00 0. -1.
</event>
<event>
 8    1  0.5542925E-011  0.9118800E+02  0.7816164E-02  0.1184000E+00
        -11   -1    0    0    0    0  0.00000000000E+00  0.00000000000E+00  0.45593999997E+02  0.45594000000E+02  0.51100000000E-03 0.  1.
         11   -1    0    0    0    0 -0.00000000000E+00 -0.00000000000E+00 -0.45593999997E+02  0.45594000000E+02  0.51100000000E-03 0. -1.
         23    2    1    2    0    0 -0.44408920985E-15  0.00000000000E+00  0.00000000000E+00  0.91188000000E+02  0.91188000000E+02 0.  0.
    9900012    2    3    3    0    0  0.34083262075E+01  0.42504598876E+02 -0.80849112980E+01  0.47787269547E+02  0.19999993174E+02 0.  0.
         12    1    3    3    0    0 -0.34083262075E+01 -0.42504598876E+02  0.80849112980E+01  0.43400730453E+02  0.00000000000E+00 0. -1.
         11    1    4    4    0    0  0.40470497341E+01  0.31920313031E+01 -0.24649928227E+01  0.57134810114E+01  0.51100000000E-03 0. -1.
        -11    1    4    4    0    0 -0.31703952114E+01  0.12159782399E+01  0.40890467827E+00  0.34201187368E+01  0.51100000000E-03 0.  1.
        -12    1    4    4    0    0  0.25316716848E+01  0.38096589333E+02 -0.60288231536E+01  0.38653669799E+02  0.00000000000E+00 0.  1.
</event>
<event>
 8    1  0.5542925E-011  0.9118800E+02  0.7816164E-02  0.1184000E+00
        -11   -1    0    0    0    0  0.00000000000E+00  0.00000000000E+00  0.45593999997E+02  0.45594000000E+02  0.51100000000E-03 0. -1.
         11   -1    0    0    0    0 -0.00000000000E+00 -0.00000000000E+00 -0.45593999997E+02  0.45594000000E+02  0.51100000000E-03 0.  1.
         23    2    1    2    0    0  0.17763568394E-14  0.00000000000E+00  0.71054273576E-14  0.91188000000E+02  0.91188000000E+02 0.  0.
    9900012    2    3    3    0    0 -0.15315611785E+02  0.12738048999E+02  0.38559007704E+02  0.47787274986E+02  0.20000017969E+02 0.  0.
        -12    1    3    3    0    0  0.15315611785E+02 -0.12738048999E+02 -0.38559007704E+02  0.43400725014E+02  0.00000000000E+00 0.  1.
         11    1    4    4    0    0 -0.67729037609E+01 -0.23890551185E+01  0.67900147298E+01  0.98835272047E+01  0.51100000000E-03 0. -1.
        -11    1    4    4    0    0 -0.52372708960E+00 -0.45741770529E+00  0.96855982015E+01  0.97105269581E+01  0.51100000000E-03 0.  1.
         12    1    4    4    0    0 -0.80189809346E+01  0.15584521823E+02  0.22083394773E+02  0.28193220823E+02  0.00000000000E+00 0. -1.
</event>
<event>
 8    1  0.5542925E-011  0.9118800E+02  0.7816164E-02  0.1184000E+00
        -11   -1    0    0    0    0  0.00000000000E+00  0.00000000000E+00  0.45593999997E+02  0.45594000000E+02  0.51100000000E-03 0. -1.
         11   -1    0    0    0    0 -0.00000000000E+00 -0.00000000000E+00 -0.45593999997E+02  0.45594000000E+02  0.51100000000E-03 0.  1.
         23    2    1    2    0    0 -0.88817841970E-15  0.00000000000E+00  0.00000000000E+00  0.91188000000E+02  0.91188000000E+02 0.  0.
    9900012    2    3    3    0    0 -0.78647583221E+01 -0.17491790043E+02  0.38933346028E+02  0.47787279092E+02  0.20000036691E+02 0.  0.
        -12    1    3    3    0    0  0.78647583221E+01  0.17491790043E+02 -0.38933346028E+02  0.43400720908E+02  0.00000000000E+00 0.  1.
         11    1    4    4    0    0 -0.93631203923E+00 -0.38370132478E+01  0.32870821932E+01  0.51385076145E+01  0.51100000000E-03 0. -1.
        -11    1    4    4    0    0 -0.12648120967E+02 -0.12062078111E+02  0.26640641498E+02  0.31862085180E+02  0.51100000000E-03 0.  1.
        -12    1    4    4    0    0  0.57196746837E+01 -0.15926986843E+01  0.90056223373E+01  0.10786686297E+02  0.00000000000E+00 0.  1.
</event>
<event>
 8    1  0.5542925E-011  0.9118800E+02  0.7816164E-02  0.1184000E+00
        -11   -1    0    0    0    0  0.00000000000E+00  0.00000000000E+00  0.45593999997E+02  0.45594000000E+02  0.51100000000E-03 0. -1.
         11   -1    0    0    0    0 -0.00000000000E+00 -0.00000000000E+00 -0.45593999997E+02  0.45594000000E+02  0.51100000000E-03 0.  1.
         23    2    1    2    0    0  0.00000000000E+00  0.00000000000E+00  0.00000000000E+00  0.91188000000E+02  0.91188000000E+02 0.  0.
    9900012    2    3    3    0    0  0.34512217107E+02 -0.18585619577E+02 -0.18630749234E+02  0.47787271875E+02  0.20000003788E+02 0.  0.
         12    1    3    3    0    0 -0.34512217107E+02  0.18585619577E+02  0.18630749234E+02  0.43400728125E+02  0.00000000000E+00 0. -1.
         11    1    4    4    0    0 -0.58919880625E+00 -0.11345326786E+01 -0.51915492259E-01  0.12794589136E+01  0.51100000000E-03 0. -1.
        -11    1    4    4    0    0 -0.53291225576E+00  0.65815347450E+00  0.15406256328E+01  0.17580355712E+01  0.51100000000E-03 0.  1.
        -12    1    4    4    0    0  0.35634328169E+02 -0.18109240373E+02 -0.20119459375E+02  0.44749777390E+02  0.00000000000E+00 0.  1.
</event>
<event>
 8    1  0.5542925E-011  0.9118800E+02  0.7816164E-02  0.1184000E+00
        -11   -1    0    0    0    0  0.00000000000E+00  0.00000000000E+00  0.45593999997E+02  0.45594000000E+02  0.51100000000E-03 0.  1.
         11   -1    0    0    0    0 -0.00000000000E+00 -0.00000000000E+00 -0.45593999997E+02  0.45594000000E+02  0.51100000000E-03 0. -1.
         23    2    1    2    0    0 -0.17763568394E-14 -0.17763568394E-14  0.00000000000E+00  0.91188000000E+02  0.91188000000E+02 0.  0.
    9900012    2    3    3    0    0 -0.10480687270E+02 -0.14308318849E+02  0.39611253911E+02  0.47787260025E+02  0.19999949759E+02 0.  0.
        -12    1    3    3    0    0  0.10480687270E+02  0.14308318849E+02 -0.39611253911E+02  0.43400739975E+02  0.00000000000E+00 0.  1.
         11    1    4    4    0    0  0.34692672715E+01  0.31378677038E+00  0.22345505604E+01  0.41385376652E+01  0.51100000000E-03 0. -1.
        -11    1    4    4    0    0 -0.16076132883E+01 -0.15758362240E+01  0.13948098134E+02  0.14128592361E+02  0.51100000000E-03 0.  1.
        -12    1    4    4    0    0 -0.12342341254E+02 -0.13046269395E+02  0.23428605217E+02  0.29520129999E+02  0.00000000000E+00 0.  1.
</event>
<event>
 8    1  0.5542925E-011  0.9118800E+02  0.7816164E-02  0.1184000E+00
        -11   -1    0    0    0    0  0.00000000000E+00  0.00000000000E+00  0.45593999997E+02  0.45594000000E+02  0.51100000000E-03 0. -1.
         11   -1    0    0    0    0 -0.00000000000E+00 -0.00000000000E+00 -0.45593999997E+02  0.45594000000E+02  0.51100000000E-03 0.  1.
         23    2    1    2    0    0  0.22204460493E-15  0.00000000000E+00  0.00000000000E+00  0.91188000000E+02  0.91188000000E+02 0.  0.
    9900012    2    3    3    0    0  0.62959681562E+00  0.22604985090E+02  0.37043814444E+02  0.47787240425E+02  0.19999860395E+02 0.  0.
        -12    1    3    3    0    0 -0.62959681562E+00 -0.22604985090E+02 -0.37043814444E+02  0.43400759575E+02  0.00000000000E+00 0.  1.
         11    1    4    4    0    0  0.65561164775E+01  0.15053533760E+02  0.33403169730E+02  0.37220468700E+02  0.51100000000E-03 0. -1.
        -11    1    4    4    0    0 -0.64632351897E+00  0.25770861514E+01  0.11723745476E+01  0.29040608575E+01  0.51100000000E-03 0.  1.
         12    1    4    4    0    0 -0.52801961429E+01  0.49743651784E+01  0.24682701666E+01  0.76627108683E+01  0.00000000000E+00 0. -1.
</event>
<event>
 8    1  0.5542925E-011  0.9118800E+02  0.7816164E-02  0.1184000E+00
        -11   -1    0    0    0    0  0.00000000000E+00  0.00000000000E+00  0.45593999997E+02  0.45594000000E+02  0.51100000000E-03 0. -1.
         11   -1    0    0    0    0 -0.00000000000E+00 -0.00000000000E+00 -0.45593999997E+02  0.45594000000E+02  0.51100000000E-03 0.  1.
         23    2    1    2    0    0 -0.17763568394E-14  0.00000000000E+00  0.71054273576E-14  0.91188000000E+02  0.91188000000E+02 0.  0.
    9900012    2    3    3    0    0  0.13565768066E+02  0.66814515476E+01 -0.40681093065E+02  0.47787272000E+02  0.20000004356E+02 0.  0.
         12    1    3    3    0    0 -0.13565768066E+02 -0.66814515476E+01  0.40681093065E+02  0.43400728000E+02  0.00000000000E+00 0. -1.
         11    1    4    4    0    0  0.73116401420E+01  0.55268022257E+00 -0.20870716975E+02  0.22121310185E+02  0.51100000000E-03 0.  1.
        -11    1    4    4    0    0  0.95809675492E+01  0.10708683559E+01 -0.15427503928E+02  0.18192019567E+02  0.51100000000E-03 0. -1.
        -12    1    4    4    0    0 -0.33268396250E+01  0.50579029691E+01 -0.43828721610E+01  0.74739422472E+01  0.00000000000E+00 0.  1.
</event>
<event>
 8    1  0.5542925E-011  0.9118800E+02  0.7816164E-02  0.1184000E+00
        -11   -1    0    0    0    0  0.00000000000E+00  0.00000000000E+00  0.45593999997E+02  0.45594000000E+02  0.51100000000E-03 0. -1.
         11   -1    0    0    0    0 -0.00000000000E+00 -0.00000000000E+00 -0.45593999997E+02  0.45594000000E+02  0.51100000000E-03 0.  1.
         23    2    1    2    0    0  0.00000000000E+00  0.00000000000E+00  0.00000000000E+00  0.91188000000E+02  0.91188000000E+02 0.  0.
    9900012    2    3    3    0    0 -0.16799560072E+02 -0.23337262324E+02 -0.32508002403E+02  0.47787271301E+02  0.20000001170E+02 0.  0.
         12    1    3    3    0    0  0.16799560072E+02  0.23337262324E+02  0.32508002403E+02  0.43400728699E+02  0.00000000000E+00 0. -1.
         11    1    4    4    0    0 -0.45087707760E+01 -0.70848526481E+01 -0.11621613248E+02  0.14338272061E+02  0.51100000000E-03 0. -1.
        -11    1    4    4    0    0 -0.22279877326E+01 -0.95691172634E+01 -0.18768667922E+02  0.21184778270E+02  0.51100000000E-03 0.  1.
        -12    1    4    4    0    0 -0.10062801564E+02 -0.66832924122E+01 -0.21177212334E+01  0.12264220970E+02  0.00000000000E+00 0.  1.
</event>
<event>
 8    1  0.5542925E-011  0.9118800E+02  0.7816164E-02  0.1184000E+00
        -11   -1    0    0    0    0  0.00000000000E+00  0.00000000000E+00  0.45593999997E+02  0.45594000000E+02  0.51100000000E-03 0. -1.
         11   -1    0    0    0    0 -0.00000000000E+00 -0.00000000000E+00 -0.45593999997E+02  0.45594000000E+02  0.51100000000E-03 0.  1.
         23    2    1    2    0    0  0.17763568394E-14  0.00000000000E+00  0.00000000000E+00  0.91188000000E+02  0.91188000000E+02 0.  0.
    9900012    2    3    3    0    0 -0.12220413072E+02  0.19781307068E+02  0.36646708819E+02  0.47787310233E+02  0.20000178676E+02 0.  0.
        -12    1    3    3    0    0  0.12220413072E+02 -0.19781307068E+02 -0.36646708819E+02  0.43400689767E+02  0.00000000000E+00 0.  1.
         11    1    4    4    0    0 -0.68012059106E+01 -0.66475282743E+00  0.16228163025E+02  0.17608281392E+02  0.51100000000E-03 0. -1.
        -11    1    4    4    0    0 -0.38591627241E+01  0.36276113285E+01  0.56214569887E+01  0.77235665219E+01  0.51100000000E-03 0.  1.
        -12    1    4    4    0    0 -0.15600444372E+01  0.16818448567E+02  0.14797088805E+02  0.22455462319E+02  0.00000000000E+00 0.  1.
</event>
<event>
 8    1  0.5542925E-011  0.9118800E+02  0.7816164E-02  0.1184000E+00
        -11   -1    0    0    0    0  0.00000000000E+00  0.00000000000E+00  0.45593999997E+02  0.45594000000E+02  0.51100000000E-03 0. -1.
         11   -1    0    0    0    0 -0.00000000000E+00 -0.00000000000E+00 -0.45593999997E+02  0.45594000000E+02  0.51100000000E-03 0.  1.
         23    2    1    2    0    0  0.35527136788E-14  0.00000000000E+00  0.00000000000E+00  0.91188000000E+02  0.91188000000E+02 0.  0.
    9900012    2    3    3    0    0 -0.20802112430E+02 -0.22813005938E+02 -0.30503482040E+02  0.47787268001E+02  0.19999986124E+02 0.  0.
         12    1    3    3    0    0  0.20802112430E+02  0.22813005938E+02  0.30503482040E+02  0.43400731999E+02  0.00000000000E+00 0. -1.
         11    1    4    4    0    0 -0.27190263114E+01 -0.14667550636E+01  0.36331710353E+00  0.31107031484E+01  0.51100000000E-03 0. -1.
        -11    1    4    4    0    0 -0.18034900256E+02 -0.10241251836E+02 -0.16409221405E+02  0.26446236287E+02  0.51100000000E-03 0.  1.
         12    1    4    4    0    0 -0.48185862883E-01 -0.11104999038E+02 -0.14457577739E+02  0.18230328565E+02  0.00000000000E+00 0. -1.
</event>
<event>
 8    1  0.7634034E-011  0.9118800E+02  0.7816164E-02  0.1184000E+00
        -11   -1    0    0    0    0  0.00000000000E+00  0.00000000000E+00  0.45593999997E+02  0.45594000000E+02  0.51100000000E-03 0. -1.
         11   -1    0    0    0    0 -0.00000000000E+00 -0.00000000000E+00 -0.45593999997E+02  0.45594000000E+02  0.51100000000E-03 0.  1.
         23    2    1    2    0    0  0.00000000000E+00  0.00000000000E+00  0.00000000000E+00  0.91188000000E+02  0.91188000000E+02 0.  0.
    9900012    2    3    3    0    0 -0.45147447915E+01  0.22599904074E+02  0.36776130608E+02  0.47787281490E+02  0.20000047625E+02 0.  0.
        -12    1    3    3    0    0  0.45147447915E+01 -0.22599904074E+02 -0.36776130608E+02  0.43400718510E+02  0.00000000000E+00 0.  1.
         11    1    4    4    0    0  0.36863011899E+01  0.25313227485E+01  0.49898813232E+01  0.67003975405E+01  0.51100000000E-03 0. -1.
        -11    1    4    4    0    0  0.55725701432E+00  0.87631887323E+01  0.36196229138E+01  0.94976672103E+01  0.51100000000E-03 0.  1.
         12    1    4    4    0    0 -0.87583029957E+01  0.11305392593E+02  0.28166626371E+02  0.31589216739E+02  0.00000000000E+00 0. -1.
</event>
<event>
 8    1  0.5542925E-011  0.9118800E+02  0.7816164E-02  0.1184000E+00
        -11   -1    0    0    0    0  0.00000000000E+00  0.00000000000E+00  0.45593999997E+02  0.45594000000E+02  0.51100000000E-03 0. -1.
         11   -1    0    0    0    0 -0.00000000000E+00 -0.00000000000E+00 -0.45593999997E+02  0.45594000000E+02  0.51100000000E-03 0.  1.
         23    2    1    2    0    0  0.00000000000E+00  0.35527136788E-14 -0.71054273576E-14  0.91188000000E+02  0.91188000000E+02 0.  0.
    9900012    2    3    3    0    0 -0.50715356920E+01  0.21333959645E+02 -0.37453505751E+02  0.47787269575E+02  0.19999993299E+02 0.  0.
         12    1    3    3    0    0  0.50715356920E+01 -0.21333959645E+02  0.37453505751E+02  0.43400730425E+02  0.00000000000E+00 0. -1.
         11    1    4    4    0    0 -0.30451654114E+01 -0.66304170651E+00 -0.39943453801E+01  0.50663055538E+01  0.51100000000E-03 0. -1.
        -11    1    4    4    0    0 -0.62357853936E+01  0.45211116195E+01 -0.15515488718E+02  0.17322120545E+02  0.51100000000E-03 0.  1.
        -12    1    4    4    0    0  0.42094151131E+01  0.17475889732E+02 -0.17943671652E+02  0.25398843476E+02  0.00000000000E+00 0.  1.
</event>
<event>
 8    1  0.6686021E-011  0.9118800E+02  0.7816164E-02  0.1184000E+00
        -11   -1    0    0    0    0  0.00000000000E+00  0.00000000000E+00  0.45593999997E+02  0.45594000000E+02  0.51100000000E-03 0. -1.
         11   -1    0    0    0    0 -0.00000000000E+00 -0.00000000000E+00 -0.45593999997E+02  0.45594000000E+02  0.51100000000E-03 0.  1.
         23    2    1    2    0    0 -0.99920072216E-15  0.00000000000E+00  0.00000000000E+00  0.91188000000E+02  0.91188000000E+02 0.  0.
    9900012    2    3    3    0    0 -0.18242169489E+00 -0.32761404927E+02  0.28465423690E+02  0.47787271016E+02  0.19999999872E+02 0.  0.
        -12    1    3    3    0    0  0.18242169489E+00  0.32761404927E+02 -0.28465423690E+02  0.43400728984E+02  0.00000000000E+00 0.  1.
         11    1    4    4    0    0 -0.50529170961E+01 -0.69611684086E+01  0.91356423954E+01  0.12547900184E+02  0.51100000000E-03 0. -1.
        -11    1    4    4    0    0  0.11564057066E+01 -0.27190595132E+01 -0.20201979698E+01  0.35793517420E+01  0.51100000000E-03 0.  1.
         12    1    4    4    0    0  0.37140896946E+01 -0.23081177005E+02  0.21349979264E+02  0.31660019090E+02  0.00000000000E+00 0. -1.
</event>
<event>
 8    1  0.5542925E-011  0.9118800E+02  0.7816164E-02  0.1184000E+00
        -11   -1    0    0    0    0  0.00000000000E+00  0.00000000000E+00  0.45593999997E+02  0.45594000000E+02  0.51100000000E-03 0. -1.
         11   -1    0    0    0    0 -0.00000000000E+00 -0.00000000000E+00 -0.45593999997E+02  0.45594000000E+02  0.51100000000E-03 0.  1.
         23    2    1    2    0    0  0.00000000000E+00  0.15543122345E-14  0.00000000000E+00  0.91188000000E+02  0.91188000000E+02 0.  0.
    9900012    2    3    3    0    0 -0.28573809208E+02 -0.93256617961E+00 -0.32654122345E+02  0.47787263158E+02  0.19999964041E+02 0.  0.
         12    1    3    3    0    0  0.28573809208E+02  0.93256617961E+00  0.32654122345E+02  0.43400736842E+02  0.00000000000E+00 0. -1.
         11    1    4    4    0    0 -0.11431583379E+02  0.50930041413E+01 -0.15738876141E+02  0.20108008658E+02  0.51100000000E-03 0. -1.
        -11    1    4    4    0    0 -0.85765553373E+01  0.26503429250E+01 -0.10787827595E+02  0.14034202633E+02  0.51100000000E-03 0.  1.
         12    1    4    4    0    0 -0.85656704922E+01 -0.86759132459E+01 -0.61274186085E+01  0.13645051866E+02  0.00000000000E+00 0. -1.
</event>
<event>
 8    1  0.5542925E-011  0.9118800E+02  0.7816164E-02  0.1184000E+00
        -11   -1    0    0    0    0  0.00000000000E+00  0.00000000000E+00  0.45593999997E+02  0.45594000000E+02  0.51100000000E-03 0. -1.
         11   -1    0    0    0    0 -0.00000000000E+00 -0.00000000000E+00 -0.45593999997E+02  0.45594000000E+02  0.51100000000E-03 0.  1.
         23    2    1    2    0    0  0.35527136788E-14  0.00000000000E+00  0.00000000000E+00  0.91188000000E+02  0.91188000000E+02 0.  0.
    9900012    2    3    3    0    0 -0.29199631074E+02 -0.31105102670E+02 -0.79672678724E+01  0.47787271616E+02  0.20000002604E+02 0.  0.
         12    1    3    3    0    0  0.29199631074E+02  0.31105102670E+02  0.79672678724E+01  0.43400728384E+02  0.00000000000E+00 0. -1.
         11    1    4    4    0    0  0.24286327146E+01 -0.65907797776E+00 -0.17832488552E+01  0.30842531323E+01  0.51100000000E-03 0. -1.
        -11    1    4    4    0    0 -0.78448305285E+00 -0.85607442843E+00  0.77763067893E+00  0.13974930487E+01  0.51100000000E-03 0.  1.
         12    1    4    4    0    0 -0.30843780735E+02 -0.29589950264E+02 -0.69616496962E+01  0.43305525435E+02  0.00000000000E+00 0. -1.
</event>
<event>
 8    1  0.5542925E-011  0.9118800E+02  0.7816164E-02  0.1184000E+00
        -11   -1    0    0    0    0  0.00000000000E+00  0.00000000000E+00  0.45593999997E+02  0.45594000000E+02  0.51100000000E-03 0. -1.
         11   -1    0    0    0    0 -0.00000000000E+00 -0.00000000000E+00 -0.45593999997E+02  0.45594000000E+02  0.51100000000E-03 0.  1.
         23    2    1    2    0    0  0.00000000000E+00  0.00000000000E+00  0.88817841970E-15  0.91188000000E+02  0.91188000000E+02 0.  0.
    9900012    2    3    3    0    0 -0.38648713668E+02 -0.19185991501E+02  0.46689176057E+01  0.47787261185E+02  0.19999955048E+02 0.  0.
        -12    1    3    3    0    0  0.38648713668E+02  0.19185991501E+02 -0.46689176057E+01  0.43400738815E+02  0.00000000000E+00 0.  1.
         11    1    4    4    0    0 -0.10320676879E+01  0.69107755652E+00 -0.17858535199E+01  0.21753218054E+01  0.51100000000E-03 0. -1.
        -11    1    4    4    0    0 -0.26360152884E+02 -0.58084556236E+01  0.20908239789E+01  0.27073369978E+02  0.51100000000E-03 0.  1.
         12    1    4    4    0    0 -0.11256493096E+02 -0.14068613433E+02  0.43639471467E+01  0.18538569402E+02  0.00000000000E+00 0. -1.
</event>
<event>
 8    1  0.5542925E-011  0.9118800E+02  0.7816164E-02  0.1184000E+00
        -11   -1    0    0    0    0  0.00000000000E+00  0.00000000000E+00  0.45593999997E+02  0.45594000000E+02  0.51100000000E-03 0. -1.
         11   -1    0    0    0    0 -0.00000000000E+00 -0.00000000000E+00 -0.45593999997E+02  0.45594000000E+02  0.51100000000E-03 0.  1.
         23    2    1    2    0    0  0.00000000000E+00  0.17763568394E-14  0.00000000000E+00  0.91188000000E+02  0.91188000000E+02 0.  0.
    9900012    2    3    3    0    0 -0.35434764548E+02 -0.14167962392E+02  0.20670499496E+02  0.47787271362E+02  0.20000001446E+02 0.  0.
        -12    1    3    3    0    0  0.35434764548E+02  0.14167962392E+02 -0.20670499496E+02  0.43400728638E+02  0.00000000000E+00 0.  1.
         11    1    4    4    0    0  0.11804366310E+00 -0.22352677754E+01  0.57989080931E+01  0.62159224310E+01  0.51100000000E-03 0.  1.
        -11    1    4    4    0    0 -0.13478620514E+02 -0.17035798773E+01  0.97144523121E+01  0.16701675944E+02  0.51100000000E-03 0. -1.
        -12    1    4    4    0    0 -0.22074187698E+02 -0.10229114739E+02  0.51571390905E+01  0.24869672987E+02  0.00000000000E+00 0.  1.
</event>
<event>
 8    1  0.5542925E-011  0.9118800E+02  0.7816164E-02  0.1184000E+00
        -11   -1    0    0    0    0  0.00000000000E+00  0.00000000000E+00  0.45593999997E+02  0.45594000000E+02  0.51100000000E-03 0. -1.
         11   -1    0    0    0    0 -0.00000000000E+00 -0.00000000000E+00 -0.45593999997E+02  0.45594000000E+02  0.51100000000E-03 0.  1.
         23    2    1    2    0    0  0.35527136788E-14 -0.88817841970E-15 -0.71054273576E-14  0.91188000000E+02  0.91188000000E+02 0.  0.
    9900012    2    3    3    0    0  0.12520228705E+02 -0.69457725231E+01 -0.40970997700E+02  0.47787279553E+02  0.20000038793E+02 0.  0.
         12    1    3    3    0    0 -0.12520228705E+02  0.69457725231E+01  0.40970997700E+02  0.43400720447E+02  0.00000000000E+00 0. -1.
         11    1    4    4    0    0 -0.52742116787E+00 -0.23229783349E+01 -0.13195235977E+01  0.27231496872E+01  0.51100000000E-03 0. -1.
        -11    1    4    4    0    0  0.65720487506E+01 -0.68811963562E+01 -0.36115752090E+02  0.37348229373E+02  0.51100000000E-03 0.  1.
        -12    1    4    4    0    0  0.64756011227E+01  0.22584021680E+01 -0.35357220129E+01  0.77159004922E+01  0.00000000000E+00 0.  1.
</event>
<event>
 8    1  0.5542925E-011  0.9118800E+02  0.7816164E-02  0.1184000E+00
        -11   -1    0    0    0    0  0.00000000000E+00  0.00000000000E+00  0.45593999997E+02  0.45594000000E+02  0.51100000000E-03 0. -1.
         11   -1    0    0    0    0 -0.00000000000E+00 -0.00000000000E+00 -0.45593999997E+02  0.45594000000E+02  0.51100000000E-03 0.  1.
         23    2    1    2    0    0 -0.17763568394E-14  0.71054273576E-14  0.00000000000E+00  0.91188000000E+02  0.91188000000E+02 0.  0.
    9900012    2    3    3    0    0  0.13348689952E+02  0.32155255685E+02 -0.25912839937E+02  0.47787271144E+02  0.20000000454E+02 0.  0.
         12    1    3    3    0    0 -0.13348689952E+02 -0.32155255685E+02  0.25912839937E+02  0.43400728856E+02  0.00000000000E+00 0. -1.
         11    1    4    4    0    0  0.50121370981E+01  0.31587429657E+01 -0.54820576454E+01  0.80716870418E+01  0.51100000000E-03 0. -1.
        -11    1    4    4    0    0  0.12384925372E+02  0.26210397768E+02 -0.18737499234E+02  0.34517607180E+02  0.51100000000E-03 0.  1.
         12    1    4    4    0    0 -0.40483725182E+01  0.27861149516E+01 -0.16932830582E+01  0.51979769223E+01  0.00000000000E+00 0. -1.
</event>
<event>
 8    1  0.5542925E-011  0.9118800E+02  0.7816164E-02  0.1184000E+00
        -11   -1    0    0    0    0  0.00000000000E+00  0.00000000000E+00  0.45593999997E+02  0.45594000000E+02  0.51100000000E-03 0. -1.
         11   -1    0    0    0    0 -0.00000000000E+00 -0.00000000000E+00 -0.45593999997E+02  0.45594000000E+02  0.51100000000E-03 0.  1.
         23    2    1    2    0    0  0.00000000000E+00 -0.35527136788E-14  0.00000000000E+00  0.91188000000E+02  0.91188000000E+02 0.  0.
    9900012    2    3    3    0    0 -0.10500062910E+02 -0.20400381044E+02  0.36840136929E+02  0.47787279306E+02  0.20000037667E+02 0.  0.
        -12    1    3    3    0    0  0.10500062910E+02  0.20400381044E+02 -0.36840136929E+02  0.43400720694E+02  0.00000000000E+00 0.  1.
         11    1    4    4    0    0 -0.14156930293E+02 -0.15260128264E+02  0.26772218815E+02  0.33912267552E+02  0.51100000000E-03 0. -1.
        -11    1    4    4    0    0 -0.85808697189E+00  0.13736594345E+01  0.18194216574E+01  0.24358877072E+01  0.51100000000E-03 0.  1.
        -12    1    4    4    0    0  0.45149543554E+01 -0.65139122142E+01  0.82484964564E+01  0.11439124047E+02  0.00000000000E+00 0.  1.
</event>
<event>
 8    1  0.5542925E-011  0.9118800E+02  0.7816164E-02  0.1184000E+00
        -11   -1    0    0    0    0  0.00000000000E+00  0.00000000000E+00  0.45593999997E+02  0.45594000000E+02  0.51100000000E-03 0. -1.
         11   -1    0    0    0    0 -0.00000000000E+00 -0.00000000000E+00 -0.45593999997E+02  0.45594000000E+02  0.51100000000E-03 0.  1.
         23    2    1    2    0    0  0.00000000000E+00  0.35527136788E-14  0.00000000000E+00  0.91188000000E+02  0.91188000000E+02 0.  0.
    9900012    2    3    3    0    0  0.23106286183E+02  0.20183485092E+02 -0.30697694655E+02  0.47787285850E+02  0.20000067505E+02 0.  0.
         12    1    3    3    0    0 -0.23106286183E+02 -0.20183485092E+02  0.30697694655E+02  0.43400714150E+02  0.00000000000E+00 0. -1.
         11    1    4    4    0    0  0.26333308593E+00  0.53089258744E+01 -0.96073032487E+00  0.54015776651E+01  0.51100000000E-03 0. -1.
        -11    1    4    4    0    0  0.24029650731E+01  0.45633625253E+01 -0.13119925311E+02  0.14097196853E+02  0.51100000000E-03 0.  1.
        -12    1    4    4    0    0  0.20439988024E+02  0.10311196692E+02 -0.16617039019E+02  0.28288511332E+02  0.00000000000E+00 0.  1.
</event>
<event>
 8    1  0.5542925E-011  0.9118800E+02  0.7816164E-02  0.1184000E+00
        -11   -1    0    0    0    0  0.00000000000E+00  0.00000000000E+00  0.45593999997E+02  0.45594000000E+02  0.51100000000E-03 0. -1.
         11   -1    0    0    0    0 -0.00000000000E+00 -0.00000000000E+00 -0.45593999997E+02  0.45594000000E+02  0.51100000000E-03 0.  1.
         23    2    1    2    0    0 -0.35527136788E-14  0.00000000000E+00  0.35527136788E-14  0.91188000000E+02  0.91188000000E+02 0.  0.
    9900012    2    3    3    0    0 -0.17595179653E+02  0.36181578411E+02 -0.16276557265E+02  0.47787270977E+02  0.19999999692E+02 0.  0.
        -12    1    3    3    0    0  0.17595179653E+02 -0.36181578411E+02  0.16276557265E+02  0.43400729023E+02  0.00000000000E+00 0.  1.
         11    1    4    4    0    0 -0.65868066390E+00  0.27099956786E+01 -0.63194428460E+01  0.69074810850E+01  0.51100000000E-03 0.  1.
        -11    1    4    4    0    0 -0.31632727756E+01  0.15841922252E+02 -0.89883015021E+01  0.18486815827E+02  0.51100000000E-03 0. -1.
         12    1    4    4    0    0 -0.13773226213E+02  0.17629660481E+02 -0.96881291731E+00  0.22392974065E+02  0.00000000000E+00 0. -1.
</event>
<event>
 8    1  0.5542925E-011  0.9118800E+02  0.7816164E-02  0.1184000E+00
        -11   -1    0    0    0    0  0.00000000000E+00  0.00000000000E+00  0.45593999997E+02  0.45594000000E+02  0.51100000000E-03 0. -1.
         11   -1    0    0    0    0 -0.00000000000E+00 -0.00000000000E+00 -0.45593999997E+02  0.45594000000E+02  0.51100000000E-03 0.  1.
         23    2    1    2    0    0  0.00000000000E+00  0.00000000000E+00  0.00000000000E+00  0.91188000000E+02  0.91188000000E+02 0.  0.
    9900012    2    3    3    0    0 -0.29114232369E+02 -0.19545524334E+02 -0.25572582112E+02  0.47787274156E+02  0.20000014186E+02 0.  0.
         12    1    3    3    0    0  0.29114232369E+02  0.19545524334E+02  0.25572582112E+02  0.43400725844E+02  0.00000000000E+00 0. -1.
         11    1    4    4    0    0 -0.46211975695E+01  0.66614791247E+00 -0.88947133521E+01  0.10045653085E+02  0.51100000000E-03 0. -1.
        -11    1    4    4    0    0 -0.13867405225E+02 -0.93542081021E+01 -0.24096754181E+01  0.16900079076E+02  0.51100000000E-03 0.  1.
         12    1    4    4    0    0 -0.10625629575E+02 -0.10857464144E+02 -0.14268193342E+02  0.20841541995E+02  0.00000000000E+00 0. -1.
</event>
<event>
 8    1  0.5542925E-011  0.9118800E+02  0.7816164E-02  0.1184000E+00
        -11   -1    0    0    0    0  0.00000000000E+00  0.00000000000E+00  0.45593999997E+02  0.45594000000E+02  0.51100000000E-03 0. -1.
         11   -1    0    0    0    0 -0.00000000000E+00 -0.00000000000E+00 -0.45593999997E+02  0.45594000000E+02  0.51100000000E-03 0.  1.
         23    2    1    2    0    0 -0.35527136788E-14  0.00000000000E+00  0.71054273576E-14  0.91188000000E+02  0.91188000000E+02 0.  0.
    9900012    2    3    3    0    0  0.28512430619E+02 -0.74612397998E+01 -0.31858971604E+02  0.47787275688E+02  0.20000021172E+02 0.  0.
         12    1    3    3    0    0 -0.28512430619E+02  0.74612397998E+01  0.31858971604E+02  0.43400724312E+02  0.00000000000E+00 0. -1.
         11    1    4    4    0    0  0.44274701961E+01 -0.75420485254E+01 -0.11449611147E+02  0.14407587723E+02  0.51100000000E-03 0.  1.
        -11    1    4    4    0    0  0.15428125866E+01  0.26548965838E+01 -0.34154221157E+00  0.30895627347E+01  0.51100000000E-03 0. -1.
         12    1    4    4    0    0  0.22542147836E+02 -0.25740878583E+01 -0.20067818245E+02  0.30290125231E+02  0.00000000000E+00 0. -1.
</event>
<event>
 8    1  0.5542925E-011  0.9118800E+02  0.7816164E-02  0.1184000E+00
        -11   -1    0    0    0    0  0.00000000000E+00  0.00000000000E+00  0.45593999997E+02  0.45594000000E+02  0.51100000000E-03 0. -1.
         11   -1    0    0    0    0 -0.00000000000E+00 -0.00000000000E+00 -0.45593999997E+02  0.45594000000E+02  0.51100000000E-03 0.  1.
         23    2    1    2    0    0 -0.35527136788E-14 -0.71054273576E-14 -0.35527136788E-14  0.91188000000E+02  0.91188000000E+02 0.  0.
    9900012    2    3    3    0    0  0.21523567841E+02  0.33350783401E+02  0.17552482190E+02  0.47787212483E+02  0.19999732995E+02 0.  0.
        -12    1    3    3    0    0 -0.21523567841E+02 -0.33350783401E+02 -0.17552482190E+02  0.43400787517E+02  0.00000000000E+00 0.  1.
         11    1    4    4    0    0  0.99302920245E+01  0.14891442709E+02  0.12165503531E+02  0.21641747667E+02  0.51100000000E-03 0. -1.
        -11    1    4    4    0    0  0.29034340898E+01  0.14520363390E+02  0.71490150492E+01  0.16443214373E+02  0.51100000000E-03 0.  1.
         12    1    4    4    0    0  0.86898417269E+01  0.39389773023E+01 -0.17620363911E+01  0.97022504436E+01  0.00000000000E+00 0. -1.
</event>
<event>
 8    1  0.5542925E-011  0.9118800E+02  0.7816164E-02  0.1184000E+00
        -11   -1    0    0    0    0  0.00000000000E+00  0.00000000000E+00  0.45593999997E+02  0.45594000000E+02  0.51100000000E-03 0.  1.
         11   -1    0    0    0    0 -0.00000000000E+00 -0.00000000000E+00 -0.45593999997E+02  0.45594000000E+02  0.51100000000E-03 0. -1.
         23    2    1    2    0    0  0.00000000000E+00 -0.66613381478E-15  0.00000000000E+00  0.91188000000E+02  0.91188000000E+02 0.  0.
    9900012    2    3    3    0    0 -0.40828092456E+02 -0.11977531806E+01 -0.14671595603E+02  0.47787268856E+02  0.19999990022E+02 0.  0.
        -12    1    3    3    0    0  0.40828092456E+02  0.11977531806E+01  0.14671595603E+02  0.43400731144E+02  0.00000000000E+00 0.  1.
         11    1    4    4    0    0 -0.85763336006E+01 -0.58181020898E+01 -0.10466390145E+02  0.14729193219E+02  0.51100000000E-03 0. -1.
        -11    1    4    4    0    0 -0.51683305877E+01  0.14946422601E+01  0.45552177931E+00  0.53993607864E+01  0.51100000000E-03 0.  1.
        -12    1    4    4    0    0 -0.27083428268E+02  0.31257066491E+01 -0.46607272375E+01  0.27658714851E+02  0.00000000000E+00 0.  1.
</event>
<event>
 8    1  0.5542925E-011  0.9118800E+02  0.7816164E-02  0.1184000E+00
        -11   -1    0    0    0    0  0.00000000000E+00  0.00000000000E+00  0.45593999997E+02  0.45594000000E+02  0.51100000000E-03 0. -1.
         11   -1    0    0    0    0 -0.00000000000E+00 -0.00000000000E+00 -0.45593999997E+02  0.45594000000E+02  0.51100000000E-03 0.  1.
         23    2    1    2    0    0  0.00000000000E+00  0.00000000000E+00  0.00000000000E+00  0.91188000000E+02  0.91188000000E+02 0.  0.
    9900012    2    3    3    0    0 -0.56016182573E+01  0.17234290838E+02 -0.39436338381E+02  0.47787266219E+02  0.19999977999E+02 0.  0.
         12    1    3    3    0    0  0.56016182573E+01 -0.17234290838E+02  0.39436338381E+02  0.43400733781E+02  0.00000000000E+00 0. -1.
         11    1    4    4    0    0 -0.17943048902E+01 -0.15237479934E+01 -0.17703598802E-01  0.23540712957E+01  0.51100000000E-03 0. -1.
        -11    1    4    4    0    0 -0.13421456652E+01 -0.93025347172E-02 -0.12236044872E+02  0.12309436863E+02  0.51100000000E-03 0.  1.
        -12    1    4    4    0    0 -0.24651677018E+01  0.18767341366E+02 -0.27182589911E+02  0.33123758060E+02  0.00000000000E+00 0.  1.
</event>
<event>
 8    1  0.5542925E-011  0.9118800E+02  0.7816164E-02  0.1184000E+00
        -11   -1    0    0    0    0  0.00000000000E+00  0.00000000000E+00  0.45593999997E+02  0.45594000000E+02  0.51100000000E-03 0. -1.
         11   -1    0    0    0    0 -0.00000000000E+00 -0.00000000000E+00 -0.45593999997E+02  0.45594000000E+02  0.51100000000E-03 0.  1.
         23    2    1    2    0    0  0.13322676296E-14  0.00000000000E+00  0.00000000000E+00  0.91188000000E+02  0.91188000000E+02 0.  0.
    9900012    2    3    3    0    0  0.14658077322E+01 -0.30748584512E+02 -0.30594106888E+02  0.47787269384E+02  0.19999992427E+02 0.  0.
         12    1    3    3    0    0 -0.14658077322E+01  0.30748584512E+02  0.30594106888E+02  0.43400730616E+02  0.00000000000E+00 0. -1.
         11    1    4    4    0    0  0.69805229219E+01 -0.45356891646E+01 -0.13478212455E+02  0.15841792440E+02  0.51100000000E-03 0. -1.
        -11    1    4    4    0    0 -0.21750204801E+01 -0.45932225204E+01 -0.36500646498E+01  0.62571063135E+01  0.51100000000E-03 0.  1.
        -12    1    4    4    0    0 -0.33396947096E+01 -0.21619672827E+02 -0.13465829783E+02  0.25688370630E+02  0.00000000000E+00 0.  1.
</event>
<event>
 8    1  0.5542925E-011  0.9118800E+02  0.7816164E-02  0.1184000E+00
        -11   -1    0    0    0    0  0.00000000000E+00  0.00000000000E+00  0.45593999997E+02  0.45594000000E+02  0.51100000000E-03 0. -1.
         11   -1    0    0    0    0 -0.00000000000E+00 -0.00000000000E+00 -0.45593999997E+02  0.45594000000E+02  0.51100000000E-03 0.  1.
         23    2    1    2    0    0 -0.17763568394E-14  0.00000000000E+00  0.00000000000E+00  0.91188000000E+02  0.91188000000E+02 0.  0.
    9900012    2    3    3    0    0 -0.93784509885E+01  0.11196658267E+02  0.40869341639E+02  0.47787267456E+02  0.19999983640E+02 0.  0.
        -12    1    3    3    0    0  0.93784509885E+01 -0.11196658267E+02 -0.40869341639E+02  0.43400732544E+02  0.00000000000E+00 0.  1.
         11    1    4    4    0    0 -0.24252606018E+01  0.32963211548E+01  0.28619311876E+01  0.49938234376E+01  0.51100000000E-03 0. -1.
        -11    1    4    4    0    0  0.51458789035E+01 -0.18493923300E-01  0.85705831085E+01  0.99967648165E+01  0.51100000000E-03 0.  1.
         12    1    4    4    0    0 -0.12099069290E+02  0.79188310354E+01  0.29436827343E+02  0.32796679202E+02  0.00000000000E+00 0. -1.
</event>
<event>
 8    1  0.5542925E-011  0.9118800E+02  0.7816164E-02  0.1184000E+00
        -11   -1    0    0    0    0  0.00000000000E+00  0.00000000000E+00  0.45593999997E+02  0.45594000000E+02  0.51100000000E-03 0. -1.
         11   -1    0    0    0    0 -0.00000000000E+00 -0.00000000000E+00 -0.45593999997E+02  0.45594000000E+02  0.51100000000E-03 0.  1.
         23    2    1    2    0    0 -0.71054273576E-14  0.00000000000E+00  0.88817841970E-15  0.91188000000E+02  0.91188000000E+02 0.  0.
    9900012    2    3    3    0    0 -0.38710974282E+02  0.18275385199E+02 -0.71480044951E+01  0.47787271869E+02  0.20000003759E+02 0.  0.
         12    1    3    3    0    0  0.38710974282E+02 -0.18275385199E+02  0.71480044951E+01  0.43400728131E+02  0.00000000000E+00 0. -1.
         11    1    4    4    0    0 -0.23892484374E+01  0.10273728758E+01 -0.19352435865E+01  0.32417851752E+01  0.51100000000E-03 0. -1.
        -11    1    4    4    0    0 -0.26188621074E+02  0.10899357449E+02  0.50202684220E+01  0.28806995016E+02  0.51100000000E-03 0.  1.
        -12    1    4    4    0    0 -0.10133104770E+02  0.63486548749E+01 -0.10233029331E+02  0.15738491678E+02  0.00000000000E+00 0.  1.
</event>
<event>
 8    1  0.5542925E-011  0.9118800E+02  0.7816164E-02  0.1184000E+00
        -11   -1    0    0    0    0  0.00000000000E+00  0.00000000000E+00  0.45593999997E+02  0.45594000000E+02  0.51100000000E-03 0. -1.
         11   -1    0    0    0    0 -0.00000000000E+00 -0.00000000000E+00 -0.45593999997E+02  0.45594000000E+02  0.51100000000E-03 0.  1.
         23    2    1    2    0    0  0.00000000000E+00  0.00000000000E+00  0.00000000000E+00  0.91188000000E+02  0.91188000000E+02 0.  0.
    9900012    2    3    3    0    0 -0.52743126825E+01 -0.33467142190E+02  0.27124812435E+02  0.47787269243E+02  0.19999991785E+02 0.  0.
        -12    1    3    3    0    0  0.52743126825E+01  0.33467142190E+02 -0.27124812435E+02  0.43400730757E+02  0.00000000000E+00 0.  1.
         11    1    4    4    0    0 -0.40014961975E+01 -0.45985881315E+01  0.27445033085E+01  0.66851539469E+01  0.51100000000E-03 0. -1.
        -11    1    4    4    0    0 -0.92939911879E+00 -0.23699555562E+02  0.98604810687E+01  0.25685828850E+02  0.51100000000E-03 0.  1.
         12    1    4    4    0    0 -0.34341736619E+00 -0.51689984968E+01  0.14519828057E+02  0.15416286445E+02  0.00000000000E+00 0. -1.
</event>
<event>
 8    1  0.5542925E-011  0.9118800E+02  0.7816164E-02  0.1184000E+00
        -11   -1    0    0    0    0  0.00000000000E+00  0.00000000000E+00  0.45593999997E+02  0.45594000000E+02  0.51100000000E-03 0. -1.
         11   -1    0    0    0    0 -0.00000000000E+00 -0.00000000000E+00 -0.45593999997E+02  0.45594000000E+02  0.51100000000E-03 0.  1.
         23    2    1    2    0    0 -0.88817841970E-15  0.00000000000E+00  0.00000000000E+00  0.91188000000E+02  0.91188000000E+02 0.  0.
    9900012    2    3    3    0    0  0.49338822830E+01 -0.42032881597E+02  0.96184684954E+01  0.47787294177E+02  0.20000105471E+02 0.  0.
        -12    1    3    3    0    0 -0.49338822830E+01  0.42032881597E+02 -0.96184684954E+01  0.43400705823E+02  0.00000000000E+00 0.  1.
         11    1    4    4    0    0  0.75418139531E+01 -0.18306726166E+02  0.30049045544E+01  0.20026098778E+02  0.51100000000E-03 0. -1.
        -11    1    4    4    0    0  0.14204877821E+01 -0.10170465958E+02 -0.29558343617E+01  0.10686118115E+02  0.51100000000E-03 0.  1.
         12    1    4    4    0    0 -0.40284194522E+01 -0.13555689473E+02  0.95693983027E+01  0.17075077284E+02  0.00000000000E+00 0. -1.
</event>
<event>
 8    1  0.5542925E-011  0.9118800E+02  0.7816164E-02  0.1184000E+00
        -11   -1    0    0    0    0  0.00000000000E+00  0.00000000000E+00  0.45593999997E+02  0.45594000000E+02  0.51100000000E-03 0. -1.
         11   -1    0    0    0    0 -0.00000000000E+00 -0.00000000000E+00 -0.45593999997E+02  0.45594000000E+02  0.51100000000E-03 0.  1.
         23    2    1    2    0    0  0.00000000000E+00  0.00000000000E+00  0.00000000000E+00  0.91188000000E+02  0.91188000000E+02 0.  0.
    9900012    2    3    3    0    0  0.15921102357E+02  0.29496517235E+02  0.27569854015E+02  0.47787275586E+02  0.20000020708E+02 0.  0.
        -12    1    3    3    0    0 -0.15921102357E+02 -0.29496517235E+02 -0.27569854015E+02  0.43400724414E+02  0.00000000000E+00 0.  1.
         11    1    4    4    0    0  0.45963366023E+01  0.14750523142E+02  0.13441993709E+02  0.20479048763E+02  0.51100000000E-03 0. -1.
        -11    1    4    4    0    0 -0.53326466900E+00  0.10481534944E+02  0.43618827443E+01  0.11365428603E+02  0.51100000000E-03 0.  1.
        -12    1    4    4    0    0  0.11858030423E+02  0.42644591491E+01  0.97659775614E+01  0.15942798220E+02  0.00000000000E+00 0.  1.
</event>
<event>
 8    1  0.5542925E-011  0.9118800E+02  0.7816164E-02  0.1184000E+00
        -11   -1    0    0    0    0  0.00000000000E+00  0.00000000000E+00  0.45593999997E+02  0.45594000000E+02  0.51100000000E-03 0. -1.
         11   -1    0    0    0    0 -0.00000000000E+00 -0.00000000000E+00 -0.45593999997E+02  0.45594000000E+02  0.51100000000E-03 0.  1.
         23    2    1    2    0    0 -0.11102230246E-15  0.35527136788E-14  0.71054273576E-14  0.91188000000E+02  0.91188000000E+02 0.  0.
    9900012    2    3    3    0    0 -0.94402827501E+00  0.22802083649E+02  0.36916087092E+02  0.47787266201E+02  0.19999977919E+02 0.  0.
        -12    1    3    3    0    0  0.94402827501E+00 -0.22802083649E+02 -0.36916087092E+02  0.43400733799E+02  0.00000000000E+00 0.  1.
         11    1    4    4    0    0  0.51732949001E+00  0.11274877757E+02  0.26331022364E+02  0.28648093082E+02  0.51100000000E-03 0. -1.
        -11    1    4    4    0    0 -0.14605735644E+00  0.11768971061E+02  0.12260410872E+02  0.16995519633E+02  0.51100000000E-03 0.  1.
        -12    1    4    4    0    0 -0.13153004086E+01 -0.24176516925E+00 -0.16753461451E+01  0.21436534859E+01  0.00000000000E+00 0.  1.
</event>
<event>
 8    1  0.5542925E-011  0.9118800E+02  0.7816164E-02  0.1184000E+00
        -11   -1    0    0    0    0  0.00000000000E+00  0.00000000000E+00  0.45593999997E+02  0.45594000000E+02  0.51100000000E-03 0.  1.
         11   -1    0    0    0    0 -0.00000000000E+00 -0.00000000000E+00 -0.45593999997E+02  0.45594000000E+02  0.51100000000E-03 0. -1.
         23    2    1    2    0    0  0.00000000000E+00 -0.88817841970E-15  0.00000000000E+00  0.91188000000E+02  0.91188000000E+02 0.  0.
    9900012    2    3    3    0    0  0.43093784834E+02 -0.15984658263E+01  0.48984812575E+01  0.47787256885E+02  0.19999935440E+02 0.  0.
        -12    1    3    3    0    0 -0.43093784834E+02  0.15984658263E+01 -0.48984812575E+01  0.43400743115E+02  0.00000000000E+00 0.  1.
         11    1    4    4    0    0  0.12147294697E+01 -0.98612394395E+00 -0.16035385599E+01  0.22403893170E+01  0.51100000000E-03 0. -1.
        -11    1    4    4    0    0  0.19223072318E+02 -0.77655848524E+01 -0.62725334259E+00  0.20741848145E+02  0.51100000000E-03 0.  1.
         12    1    4    4    0    0  0.22655983046E+02  0.71532429700E+01  0.71292731600E+01  0.24805019423E+02  0.00000000000E+00 0. -1.
</event>
<event>
 8    1  0.5542925E-011  0.9118800E+02  0.7816164E-02  0.1184000E+00
        -11   -1    0    0    0    0  0.00000000000E+00  0.00000000000E+00  0.45593999997E+02  0.45594000000E+02  0.51100000000E-03 0. -1.
         11   -1    0    0    0    0 -0.00000000000E+00 -0.00000000000E+00 -0.45593999997E+02  0.45594000000E+02  0.51100000000E-03 0.  1.
         23    2    1    2    0    0 -0.35527136788E-14  0.00000000000E+00  0.00000000000E+00  0.91188000000E+02  0.91188000000E+02 0.  0.
    9900012    2    3    3    0    0 -0.30095360895E+02 -0.17993632364E+02 -0.25575766715E+02  0.47787292677E+02  0.20000098632E+02 0.  0.
         12    1    3    3    0    0  0.30095360895E+02  0.17993632364E+02  0.25575766715E+02  0.43400707323E+02  0.00000000000E+00 0. -1.
         11    1    4    4    0    0 -0.36916859924E+01  0.32108876974E+01 -0.14460305479E+00  0.48948192588E+01  0.51100000000E-03 0. -1.
        -11    1    4    4    0    0 -0.14975327333E+01 -0.22616617240E+01 -0.24380703820E+00  0.27234463781E+01  0.51100000000E-03 0.  1.
        -12    1    4    4    0    0 -0.24906142170E+02 -0.18942858337E+02 -0.25187356622E+02  0.40169027040E+02  0.00000000000E+00 0.  1.
</event>
<event>
 8    1  0.5542925E-011  0.9118800E+02  0.7816164E-02  0.1184000E+00
        -11   -1    0    0    0    0  0.00000000000E+00  0.00000000000E+00  0.45593999997E+02  0.45594000000E+02  0.51100000000E-03 0. -1.
         11   -1    0    0    0    0 -0.00000000000E+00 -0.00000000000E+00 -0.45593999997E+02  0.45594000000E+02  0.51100000000E-03 0.  1.
         23    2    1    2    0    0  0.00000000000E+00  0.00000000000E+00  0.00000000000E+00  0.91188000000E+02  0.91188000000E+02 0.  0.
    9900012    2    3    3    0    0  0.11851687245E+02  0.23797341995E+02  0.34305192837E+02  0.47787283046E+02  0.20000054718E+02 0.  0.
        -12    1    3    3    0    0 -0.11851687245E+02 -0.23797341995E+02 -0.34305192837E+02  0.43400716954E+02  0.00000000000E+00 0.  1.
         11    1    4    4    0    0  0.10933574372E+01  0.12320976839E+02  0.83239738732E+01  0.14909407838E+02  0.51100000000E-03 0. -1.
        -11    1    4    4    0    0 -0.32293686917E+00  0.63624225670E+01  0.34282134744E+01  0.72344562359E+01  0.51100000000E-03 0.  1.
        -12    1    4    4    0    0  0.11081266677E+02  0.51139425882E+01  0.22553005489E+02  0.25643418972E+02  0.00000000000E+00 0.  1.
</event>
<event>
 8    1  0.5542925E-011  0.9118800E+02  0.7816164E-02  0.1184000E+00
        -11   -1    0    0    0    0  0.00000000000E+00  0.00000000000E+00  0.45593999997E+02  0.45594000000E+02  0.51100000000E-03 0. -1.
         11   -1    0    0    0    0 -0.00000000000E+00 -0.00000000000E+00 -0.45593999997E+02  0.45594000000E+02  0.51100000000E-03 0.  1.
         23    2    1    2    0    0 -0.22204460493E-15  0.00000000000E+00  0.71054273576E-14  0.91188000000E+02  0.91188000000E+02 0.  0.
    9900012    2    3    3    0    0 -0.14376168858E+01  0.15355152388E+02 -0.40568162350E+02  0.47787271393E+02  0.20000001587E+02 0.  0.
         12    1    3    3    0    0  0.14376168858E+01 -0.15355152388E+02  0.40568162350E+02  0.43400728607E+02  0.00000000000E+00 0. -1.
         11    1    4    4    0    0 -0.68700477769E+01  0.99630553201E+01 -0.12447855909E+02  0.17361138924E+02  0.51100000000E-03 0. -1.
        -11    1    4    4    0    0  0.66110145448E+01  0.56651321588E+01 -0.15744589700E+02  0.17991424089E+02  0.51100000000E-03 0.  1.
        -12    1    4    4    0    0 -0.11785836537E+01 -0.27303509095E+00 -0.12375716742E+02  0.12434708379E+02  0.00000000000E+00 0.  1.
</event>
<event>
 8    1  0.5542925E-011  0.9118800E+02  0.7816164E-02  0.1184000E+00
        -11   -1    0    0    0    0  0.00000000000E+00  0.00000000000E+00  0.45593999997E+02  0.45594000000E+02  0.51100000000E-03 0. -1.
         11   -1    0    0    0    0 -0.00000000000E+00 -0.00000000000E+00 -0.45593999997E+02  0.45594000000E+02  0.51100000000E-03 0.  1.
         23    2    1    2    0    0 -0.17763568394E-14  0.35527136788E-14  0.00000000000E+00  0.91188000000E+02  0.91188000000E+02 0.  0.
    9900012    2    3    3    0    0 -0.14302177043E+02  0.18390667799E+02  0.36617680634E+02  0.47787268839E+02  0.19999989946E+02 0.  0.
        -12    1    3    3    0    0  0.14302177043E+02 -0.18390667799E+02 -0.36617680634E+02  0.43400731161E+02  0.00000000000E+00 0.  1.
         11    1    4    4    0    0 -0.11376110495E+02  0.68400693264E+01  0.13611088087E+02  0.19012210749E+02  0.51100000000E-03 0. -1.
        -11    1    4    4    0    0 -0.56859950298E+01  0.23481800254E+01  0.15193787840E+02  0.16391939425E+02  0.51100000000E-03 0.  1.
         12    1    4    4    0    0  0.27599284816E+01  0.92024184475E+01  0.78128047068E+01  0.12383118666E+02  0.00000000000E+00 0. -1.
</event>
<event>
 8    1  0.5542925E-011  0.9118800E+02  0.7816164E-02  0.1184000E+00
        -11   -1    0    0    0    0  0.00000000000E+00  0.00000000000E+00  0.45593999997E+02  0.45594000000E+02  0.51100000000E-03 0.  1.
         11   -1    0    0    0    0 -0.00000000000E+00 -0.00000000000E+00 -0.45593999997E+02  0.45594000000E+02  0.51100000000E-03 0. -1.
         23    2    1    2    0    0  0.00000000000E+00  0.00000000000E+00 -0.35527136788E-14  0.91188000000E+02  0.91188000000E+02 0.  0.
    9900012    2    3    3    0    0 -0.33455923486E+02 -0.21463512883E+02  0.17425326953E+02  0.47787271654E+02  0.20000002778E+02 0.  0.
        -12    1    3    3    0    0  0.33455923486E+02  0.21463512883E+02 -0.17425326953E+02  0.43400728346E+02  0.00000000000E+00 0.  1.
         11    1    4    4    0    0 -0.98995079697E+01 -0.10392349457E+02 -0.21796846467E+01  0.14517307281E+02  0.51100000000E-03 0. -1.
        -11    1    4    4    0    0 -0.68785569648E+01 -0.55190336938E+01  0.36969827170E+01  0.95625289701E+01  0.51100000000E-03 0.  1.
        -12    1    4    4    0    0 -0.16677858552E+02 -0.55521297319E+01  0.15908028882E+02  0.23707435402E+02  0.00000000000E+00 0.  1.
</event>
<event>
 8    1  0.5542925E-011  0.9118800E+02  0.7816164E-02  0.1184000E+00
        -11   -1    0    0    0    0  0.00000000000E+00  0.00000000000E+00  0.45593999997E+02  0.45594000000E+02  0.51100000000E-03 0. -1.
         11   -1    0    0    0    0 -0.00000000000E+00 -0.00000000000E+00 -0.45593999997E+02  0.45594000000E+02  0.51100000000E-03 0.  1.
         23    2    1    2    0    0  0.17763568394E-14  0.00000000000E+00 -0.71054273576E-14  0.91188000000E+02  0.91188000000E+02 0.  0.
    9900012    2    3    3    0    0 -0.14855881477E+02  0.41948425664E+01  0.40562658323E+02  0.47787272255E+02  0.20000005519E+02 0.  0.
        -12    1    3    3    0    0  0.14855881477E+02 -0.41948425664E+01 -0.40562658323E+02  0.43400727745E+02  0.00000000000E+00 0.  1.
         11    1    4    4    0    0 -0.50855943502E+01  0.29424679911E+01  0.16849860140E+02  0.17844864101E+02  0.51100000000E-03 0. -1.
        -11    1    4    4    0    0 -0.56100521989E+01 -0.15049833801E+01  0.24237582188E+02  0.24923845033E+02  0.51100000000E-03 0.  1.
        -12    1    4    4    0    0 -0.41602349276E+01  0.27573579554E+01 -0.52478400572E+00  0.50185631211E+01  0.00000000000E+00 0.  1.
</event>
<event>
 8    1  0.5542925E-011  0.9118800E+02  0.7816164E-02  0.1184000E+00
        -11   -1    0    0    0    0  0.00000000000E+00  0.00000000000E+00  0.45593999997E+02  0.45594000000E+02  0.51100000000E-03 0. -1.
         11   -1    0    0    0    0 -0.00000000000E+00 -0.00000000000E+00 -0.45593999997E+02  0.45594000000E+02  0.51100000000E-03 0.  1.
         23    2    1    2    0    0 -0.35527136788E-14 -0.17763568394E-14 -0.71054273576E-14  0.91188000000E+02  0.91188000000E+02 0.  0.
    9900012    2    3    3    0    0 -0.21617077722E+02 -0.15909791919E+02  0.34105772339E+02  0.47787271492E+02  0.20000002040E+02 0.  0.
        -12    1    3    3    0    0  0.21617077722E+02  0.15909791919E+02 -0.34105772339E+02  0.43400728508E+02  0.00000000000E+00 0.  1.
         11    1    4    4    0    0 -0.84549667942E+01 -0.10337746438E+02  0.24751375272E+02  0.28124474093E+02  0.51100000000E-03 0. -1.
        -11    1    4    4    0    0  0.22703650846E+00 -0.14702555025E+01  0.46628684712E+01  0.48944396472E+01  0.51100000000E-03 0.  1.
         12    1    4    4    0    0 -0.13389147437E+02 -0.41017899780E+01  0.46915285963E+01  0.14768357751E+02  0.00000000000E+00 0. -1.
</event>
<event>
 8    1  0.5542925E-011  0.9118800E+02  0.7816164E-02  0.1184000E+00
        -11   -1    0    0    0    0  0.00000000000E+00  0.00000000000E+00  0.45593999997E+02  0.45594000000E+02  0.51100000000E-03 0. -1.
         11   -1    0    0    0    0 -0.00000000000E+00 -0.00000000000E+00 -0.45593999997E+02  0.45594000000E+02  0.51100000000E-03 0.  1.
         23    2    1    2    0    0  0.00000000000E+00  0.35527136788E-14  0.00000000000E+00  0.91188000000E+02  0.91188000000E+02 0.  0.
    9900012    2    3    3    0    0  0.25377684315E+02 -0.23942032412E+02 -0.25814250200E+02  0.47787270852E+02  0.19999999122E+02 0.  0.
         12    1    3    3    0    0 -0.25377684315E+02  0.23942032412E+02  0.25814250200E+02  0.43400729148E+02  0.00000000000E+00 0. -1.
         11    1    4    4    0    0 -0.17763631449E+00 -0.18144718538E+01 -0.16832059875E+01  0.24813394419E+01  0.51100000000E-03 0. -1.
        -11    1    4    4    0    0  0.98716758361E+01  0.11359503612E+01 -0.37195469031E+01  0.10610155346E+02  0.51100000000E-03 0.  1.
        -12    1    4    4    0    0  0.15683644793E+02 -0.23263510920E+02 -0.20411497309E+02  0.34695776064E+02  0.00000000000E+00 0.  1.
</event>
<event>
 8    1  0.5542925E-011  0.9118800E+02  0.7816164E-02  0.1184000E+00
        -11   -1    0    0    0    0  0.00000000000E+00  0.00000000000E+00  0.45593999997E+02  0.45594000000E+02  0.51100000000E-03 0. -1.
         11   -1    0    0    0    0 -0.00000000000E+00 -0.00000000000E+00 -0.45593999997E+02  0.45594000000E+02  0.51100000000E-03 0.  1.
         23    2    1    2    0    0  0.00000000000E+00  0.17763568394E-14  0.00000000000E+00  0.91188000000E+02  0.91188000000E+02 0.  0.
    9900012    2    3    3    0    0  0.17182719159E+02  0.13652295476E+02  0.37443177376E+02  0.47787279482E+02  0.20000038469E+02 0.  0.
        -12    1    3    3    0    0 -0.17182719159E+02 -0.13652295476E+02 -0.37443177376E+02  0.43400720518E+02  0.00000000000E+00 0.  1.
         11    1    4    4    0    0  0.39840637397E+01 -0.98708524563E+00  0.17759657596E+02  0.18227795789E+02  0.51100000000E-03 0. -1.
        -11    1    4    4    0    0  0.63379876036E+01  0.48684791596E+01  0.14473050494E+02  0.16533038652E+02  0.51100000000E-03 0.  1.
        -12    1    4    4    0    0  0.68606678157E+01  0.97709015618E+01  0.52104692866E+01  0.13026445041E+02  0.00000000000E+00 0.  1.
</event>
<event>
 8    1  0.6313121E-011  0.9118800E+02  0.7816164E-02  0.1184000E+00
        -11   -1    0    0    0    0  0.00000000000E+00  0.00000000000E+00  0.45593999997E+02  0.45594000000E+02  0.51100000000E-03 0. -1.
         11   -1    0    0    0    0 -0.00000000000E+00 -0.00000000000E+00 -0.45593999997E+02  0.45594000000E+02  0.51100000000E-03 0.  1.
         23    2    1    2    0    0  0.00000000000E+00  0.17763568394E-14 -0.71054273576E-14  0.91188000000E+02  0.91188000000E+02 0.  0.
    9900012    2    3    3    0    0 -0.24833562909E+02 -0.13173179164E+02  0.33066374153E+02  0.47787267337E+02  0.19999983097E+02 0.  0.
        -12    1    3    3    0    0  0.24833562909E+02  0.13173179164E+02 -0.33066374153E+02  0.43400732663E+02  0.00000000000E+00 0.  1.
         11    1    4    4    0    0 -0.62664438073E+01  0.33417142298E+01  0.68626504459E+01  0.98757958356E+01  0.51100000000E-03 0. -1.
        -11    1    4    4    0    0 -0.46322303908E+01 -0.33442018671E+01  0.35057616121E+00  0.57239975915E+01  0.51100000000E-03 0.  1.
         12    1    4    4    0    0 -0.13934888711E+02 -0.13170691527E+02  0.25853147546E+02  0.32187473910E+02  0.00000000000E+00 0. -1.
</event>
<event>
 8    1  0.5542925E-011  0.9118800E+02  0.7816164E-02  0.1184000E+00
        -11   -1    0    0    0    0  0.00000000000E+00  0.00000000000E+00  0.45593999997E+02  0.45594000000E+02  0.51100000000E-03 0.  1.
         11   -1    0    0    0    0 -0.00000000000E+00 -0.00000000000E+00 -0.45593999997E+02  0.45594000000E+02  0.51100000000E-03 0. -1.
         23    2    1    2    0    0 -0.71054273576E-14  0.00000000000E+00  0.00000000000E+00  0.91188000000E+02  0.91188000000E+02 0.  0.
    9900012    2    3    3    0    0 -0.41397023821E+02  0.39422581431E+01  0.12424510775E+02  0.47787269033E+02  0.19999990830E+02 0.  0.
        -12    1    3    3    0    0  0.41397023821E+02 -0.39422581431E+01 -0.12424510775E+02  0.43400730967E+02  0.00000000000E+00 0.  1.
         11    1    4    4    0    0 -0.94306749682E+01  0.12367593145E+01 -0.33130585988E+00  0.95171932728E+01  0.51100000000E-03 0. -1.
        -11    1    4    4    0    0 -0.84455444503E+01  0.20169933946E+01 -0.38209203795E+01  0.94865650382E+01  0.51100000000E-03 0.  1.
         12    1    4    4    0    0 -0.23520804402E+02  0.68850543402E+00  0.16576737014E+02  0.28783510722E+02  0.00000000000E+00 0. -1.
</event>
<event>
 8    1  0.5779956E-011  0.9118800E+02  0.7816164E-02  0.1184000E+00
        -11   -1    0    0    0    0  0.00000000000E+00  0.00000000000E+00  0.45593999997E+02  0.45594000000E+02  0.51100000000E-03 0. -1.
         11   -1    0    0    0    0 -0.00000000000E+00 -0.00000000000E+00 -0.45593999997E+02  0.45594000000E+02  0.51100000000E-03 0.  1.
         23    2    1    2    0    0  0.00000000000E+00  0.00000000000E+00  0.00000000000E+00  0.91188000000E+02  0.91188000000E+02 0.  0.
    9900012    2    3    3    0    0 -0.19691820665E+02 -0.16467962484E+02  0.34995164506E+02  0.47787272722E+02  0.20000007647E+02 0.  0.
        -12    1    3    3    0    0  0.19691820665E+02  0.16467962484E+02 -0.34995164506E+02  0.43400727278E+02  0.00000000000E+00 0.  1.
         11    1    4    4    0    0 -0.78480922318E+00 -0.76581666552E+01  0.13978016432E+02  0.15957706153E+02  0.51100000000E-03 0. -1.
        -11    1    4    4    0    0 -0.30153953613E+01  0.26330612391E+01  0.57132446886E+01  0.69761583846E+01  0.51100000000E-03 0.  1.
         12    1    4    4    0    0 -0.15891616080E+02 -0.11442857068E+02  0.15303903386E+02  0.24853408184E+02  0.00000000000E+00 0. -1.
</event>
<event>
 8    1  0.5542925E-011  0.9118800E+02  0.7816164E-02  0.1184000E+00
        -11   -1    0    0    0    0  0.00000000000E+00  0.00000000000E+00  0.45593999997E+02  0.45594000000E+02  0.51100000000E-03 0. -1.
         11   -1    0    0    0    0 -0.00000000000E+00 -0.00000000000E+00 -0.45593999997E+02  0.45594000000E+02  0.51100000000E-03 0.  1.
         23    2    1    2    0    0  0.00000000000E+00  0.35527136788E-14  0.35527136788E-14  0.91188000000E+02  0.91188000000E+02 0.  0.
    9900012    2    3    3    0    0  0.92820890021E+01 -0.31558727470E+02 -0.28311036188E+02  0.47787248557E+02  0.19999897472E+02 0.  0.
         12    1    3    3    0    0 -0.92820890021E+01  0.31558727470E+02  0.28311036188E+02  0.43400751443E+02  0.00000000000E+00 0. -1.
         11    1    4    4    0    0 -0.36237328037E+00 -0.43094674712E+01 -0.10715237739E+02  0.11555048435E+02  0.51100000000E-03 0. -1.
        -11    1    4    4    0    0  0.17803908024E+01 -0.15779844269E+02 -0.15459891364E+02  0.22162615320E+02  0.51100000000E-03 0.  1.
         12    1    4    4    0    0  0.78640714800E+01 -0.11469415729E+02 -0.21359070845E+01  0.14069584801E+02  0.00000000000E+00 0. -1.
</event>
<event>
 8    1  0.5542925E-011  0.9118800E+02  0.7816164E-02  0.1184000E+00
        -11   -1    0    0    0    0  0.00000000000E+00  0.00000000000E+00  0.45593999997E+02  0.45594000000E+02  0.51100000000E-03 0.  1.
         11   -1    0    0    0    0 -0.00000000000E+00 -0.00000000000E+00 -0.45593999997E+02  0.45594000000E+02  0.51100000000E-03 0. -1.
         23    2    1    2    0    0  0.00000000000E+00  0.00000000000E+00  0.49960036108E-15  0.91188000000E+02  0.91188000000E+02 0.  0.
    9900012    2    3    3    0    0 -0.26296189408E+02  0.34526260138E+02  0.26738347304E+00  0.47787266015E+02  0.19999977070E+02 0.  0.
        -12    1    3    3    0    0  0.26296189408E+02 -0.34526260138E+02 -0.26738347304E+00  0.43400733985E+02  0.00000000000E+00 0.  1.
         11    1    4    4    0    0  0.42071443664E+00  0.50502889585E+01  0.36645603226E+01  0.62539125210E+01  0.51100000000E-03 0. -1.
        -11    1    4    4    0    0 -0.10530443486E+02  0.71522636278E+01  0.33139423720E+01  0.13153985301E+02  0.51100000000E-03 0.  1.
         12    1    4    4    0    0 -0.16186460359E+02  0.22323707552E+02 -0.67111192215E+01  0.28379368193E+02  0.00000000000E+00 0. -1.
</event>
<event>
 8    1  0.5542925E-011  0.9118800E+02  0.7816164E-02  0.1184000E+00
        -11   -1    0    0    0    0  0.00000000000E+00  0.00000000000E+00  0.45593999997E+02  0.45594000000E+02  0.51100000000E-03 0. -1.
         11   -1    0    0    0    0 -0.00000000000E+00 -0.00000000000E+00 -0.45593999997E+02  0.45594000000E+02  0.51100000000E-03 0.  1.
         23    2    1    2    0    0  0.00000000000E+00  0.00000000000E+00 -0.71054273576E-14  0.91188000000E+02  0.91188000000E+02 0.  0.
    9900012    2    3    3    0    0  0.49807472491E+01  0.21045830549E+02  0.37628288313E+02  0.47787275259E+02  0.20000019217E+02 0.  0.
        -12    1    3    3    0    0 -0.49807472491E+01 -0.21045830549E+02 -0.37628288313E+02  0.43400724741E+02  0.00000000000E+00 0.  1.
         11    1    4    4    0    0 -0.11539841998E+01  0.80371123117E+00  0.16978643605E+02  0.17036782860E+02  0.51100000000E-03 0. -1.
        -11    1    4    4    0    0  0.35974718040E+01  0.17608304709E+01  0.49586751913E+01  0.63742283645E+01  0.51100000000E-03 0.  1.
        -12    1    4    4    0    0  0.25372596449E+01  0.18481288847E+02  0.15690969517E+02  0.24376264035E+02  0.00000000000E+00 0.  1.
</event>
<event>
 8    1  0.5542925E-011  0.9118800E+02  0.7816164E-02  0.1184000E+00
        -11   -1    0    0    0    0  0.00000000000E+00  0.00000000000E+00  0.45593999997E+02  0.45594000000E+02  0.51100000000E-03 0. -1.
         11   -1    0    0    0    0 -0.00000000000E+00 -0.00000000000E+00 -0.45593999997E+02  0.45594000000E+02  0.51100000000E-03 0.  1.
         23    2    1    2    0    0  0.88817841970E-15  0.00000000000E+00  0.00000000000E+00  0.91188000000E+02  0.91188000000E+02 0.  0.
    9900012    2    3    3    0    0 -0.26702202289E+01 -0.41112191889E+02  0.13648500884E+02  0.47787262975E+02  0.19999963207E+02 0.  0.
        -12    1    3    3    0    0  0.26702202289E+01  0.41112191889E+02 -0.13648500884E+02  0.43400737025E+02  0.00000000000E+00 0.  1.
         11    1    4    4    0    0  0.88477563371E+00 -0.57371424801E+01  0.32552129655E+01  0.66553770345E+01  0.51100000000E-03 0. -1.
        -11    1    4    4    0    0 -0.97376215226E+01 -0.15233870271E+02  0.11263887159E+01  0.18115209857E+02  0.51100000000E-03 0.  1.
         12    1    4    4    0    0  0.61826256600E+01 -0.20141179137E+02  0.92668992022E+01  0.23016676083E+02  0.00000000000E+00 0. -1.
</event>
<event>
 8    1  0.5542925E-011  0.9118800E+02  0.7816164E-02  0.1184000E+00
        -11   -1    0    0    0    0  0.00000000000E+00  0.00000000000E+00  0.45593999997E+02  0.45594000000E+02  0.51100000000E-03 0.  1.
         11   -1    0    0    0    0 -0.00000000000E+00 -0.00000000000E+00 -0.45593999997E+02  0.45594000000E+02  0.51100000000E-03 0. -1.
         23    2    1    2    0    0  0.35527136788E-14  0.35527136788E-14 -0.35527136788E-14  0.91188000000E+02  0.91188000000E+02 0.  0.
    9900012    2    3    3    0    0  0.22769697094E+02  0.31115601559E+02 -0.19924449693E+02  0.47787268880E+02  0.19999990134E+02 0.  0.
         12    1    3    3    0    0 -0.22769697094E+02 -0.31115601559E+02  0.19924449693E+02  0.43400731120E+02  0.00000000000E+00 0. -1.
         11    1    4    4    0    0  0.85729610941E+01  0.15983001916E+02 -0.95379772986E+00  0.18162096314E+02  0.51100000000E-03 0. -1.
        -11    1    4    4    0    0  0.10478894997E+02  0.13257438521E+02 -0.97544125788E+01  0.19511931773E+02  0.51100000000E-03 0.  1.
         12    1    4    4    0    0  0.37178410037E+01  0.18751611226E+01 -0.92162393841E+01  0.10113240794E+02  0.00000000000E+00 0. -1.
</event>
<event>
 8    1  0.5542925E-011  0.9118800E+02  0.7816164E-02  0.1184000E+00
        -11   -1    0    0    0    0  0.00000000000E+00  0.00000000000E+00  0.45593999997E+02  0.45594000000E+02  0.51100000000E-03 0.  1.
         11   -1    0    0    0    0 -0.00000000000E+00 -0.00000000000E+00 -0.45593999997E+02  0.45594000000E+02  0.51100000000E-03 0. -1.
         23    2    1    2    0    0  0.22204460493E-15  0.35527136788E-14  0.35527136788E-14  0.91188000000E+02  0.91188000000E+02 0.  0.
    9900012    2    3    3    0    0 -0.76892788225E+00  0.31359354031E+02 -0.29993737511E+02  0.47787255476E+02  0.19999929019E+02 0.  0.
         12    1    3    3    0    0  0.76892788225E+00 -0.31359354031E+02  0.29993737511E+02  0.43400744524E+02  0.00000000000E+00 0. -1.
         11    1    4    4    0    0  0.11441155886E+01  0.60887396021E+01 -0.36445736280E+01  0.71878138272E+01  0.51100000000E-03 0. -1.
        -11    1    4    4    0    0 -0.70853829216E+01  0.75232376927E+01 -0.16973259504E+02  0.19871922277E+02  0.51100000000E-03 0.  1.
        -12    1    4    4    0    0  0.51723394507E+01  0.17747376736E+02 -0.93759043789E+01  0.20727519372E+02  0.00000000000E+00 0.  1.
</event>
<event>
 8    1  0.5542925E-011  0.9118800E+02  0.7816164E-02  0.1184000E+00
        -11   -1    0    0    0    0  0.00000000000E+00  0.00000000000E+00  0.45593999997E+02  0.45594000000E+02  0.51100000000E-03 0. -1.
         11   -1    0    0    0    0 -0.00000000000E+00 -0.00000000000E+00 -0.45593999997E+02  0.45594000000E+02  0.51100000000E-03 0.  1.
         23    2    1    2    0    0  0.00000000000E+00  0.00000000000E+00 -0.71054273576E-14  0.91188000000E+02  0.91188000000E+02 0.  0.
    9900012    2    3    3    0    0  0.23459348993E+02  0.36304086794E+01 -0.36333216290E+02  0.47787268113E+02  0.19999986633E+02 0.  0.
         12    1    3    3    0    0 -0.23459348993E+02 -0.36304086794E+01  0.36333216290E+02  0.43400731887E+02  0.00000000000E+00 0. -1.
         11    1    4    4    0    0  0.49019463658E+01 -0.69931224671E+00 -0.83229428881E+01  0.96844976313E+01  0.51100000000E-03 0. -1.
        -11    1    4    4    0    0  0.10495349900E+02 -0.29679380917E+01 -0.24261399724E+02  0.26600310954E+02  0.51100000000E-03 0.  1.
         12    1    4    4    0    0  0.80620527273E+01  0.72976590178E+01 -0.37488736786E+01  0.11502459527E+02  0.00000000000E+00 0. -1.
</event>
<event>
 8    1  0.6909957E-011  0.9118800E+02  0.7816164E-02  0.1184000E+00
        -11   -1    0    0    0    0  0.00000000000E+00  0.00000000000E+00  0.45593999997E+02  0.45594000000E+02  0.51100000000E-03 0. -1.
         11   -1    0    0    0    0 -0.00000000000E+00 -0.00000000000E+00 -0.45593999997E+02  0.45594000000E+02  0.51100000000E-03 0.  1.
         23    2    1    2    0    0  0.00000000000E+00  0.00000000000E+00  0.00000000000E+00  0.91188000000E+02  0.91188000000E+02 0.  0.
    9900012    2    3    3    0    0  0.57568917711E+01 -0.24597743539E+02  0.35290685791E+02  0.47787270816E+02  0.19999998960E+02 0.  0.
        -12    1    3    3    0    0 -0.57568917711E+01  0.24597743539E+02 -0.35290685791E+02  0.43400729184E+02  0.00000000000E+00 0.  1.
         11    1    4    4    0    0 -0.33600138107E+01 -0.49604673825E+01  0.46125252867E+01  0.75611718168E+01  0.51100000000E-03 0. -1.
        -11    1    4    4    0    0  0.40034212031E+01 -0.30858801931E+00  0.52914147918E+00  0.40500122051E+01  0.51100000000E-03 0.  1.
         12    1    4    4    0    0  0.51134843786E+01 -0.19328688137E+02  0.30149019025E+02  0.36176086795E+02  0.00000000000E+00 0. -1.
</event>
<event>
 8    1  0.5542925E-011  0.9118800E+02  0.7816164E-02  0.1184000E+00
        -11   -1    0    0    0    0  0.00000000000E+00  0.00000000000E+00  0.45593999997E+02  0.45594000000E+02  0.51100000000E-03 0. -1.
         11   -1    0    0    0    0 -0.00000000000E+00 -0.00000000000E+00 -0.45593999997E+02  0.45594000000E+02  0.51100000000E-03 0.  1.
         23    2    1    2    0    0 -0.61062266354E-15 -0.35527136788E-14  0.00000000000E+00  0.91188000000E+02  0.91188000000E+02 0.  0.
    9900012    2    3    3    0    0  0.26577116623E+00  0.18566983345E+02 -0.39227789046E+02  0.47787274911E+02  0.20000017629E+02 0.  0.
         12    1    3    3    0    0 -0.26577116623E+00 -0.18566983345E+02  0.39227789046E+02  0.43400725089E+02  0.00000000000E+00 0. -1.
         11    1    4    4    0    0 -0.47278220411E+01  0.29393316456E+01 -0.16998514734E+01  0.58207789056E+01  0.51100000000E-03 0. -1.
        -11    1    4    4    0    0 -0.17377497526E+01  0.41331216164E+01 -0.16299679584E+02  0.16905088681E+02  0.51100000000E-03 0.  1.
        -12    1    4    4    0    0  0.67313429600E+01  0.11494530083E+02 -0.21228257988E+02  0.25061407324E+02  0.00000000000E+00 0.  1.
</event>
<event>
 8    1  0.5542925E-011  0.9118800E+02  0.7816164E-02  0.1184000E+00
        -11   -1    0    0    0    0  0.00000000000E+00  0.00000000000E+00  0.45593999997E+02  0.45594000000E+02  0.51100000000E-03 0. -1.
         11   -1    0    0    0    0 -0.00000000000E+00 -0.00000000000E+00 -0.45593999997E+02  0.45594000000E+02  0.51100000000E-03 0.  1.
         23    2    1    2    0    0 -0.88817841970E-15  0.00000000000E+00  0.00000000000E+00  0.91188000000E+02  0.91188000000E+02 0.  0.
    9900012    2    3    3    0    0  0.28519519884E+01  0.39522376549E+02 -0.17705130731E+02  0.47787268066E+02  0.19999986418E+02 0.  0.
         12    1    3    3    0    0 -0.28519519884E+01 -0.39522376549E+02  0.17705130731E+02  0.43400731934E+02  0.00000000000E+00 0. -1.
         11    1    4    4    0    0 -0.54591559885E+01  0.14697831048E+02 -0.21835924540E+00  0.15680443318E+02  0.51100000000E-03 0. -1.
        -11    1    4    4    0    0  0.26541268016E+00  0.68473089432E+01 -0.22729387052E+01  0.72195799235E+01  0.51100000000E-03 0.  1.
        -12    1    4    4    0    0  0.80456952967E+01  0.17977236558E+02 -0.15213832780E+02  0.24887244824E+02  0.00000000000E+00 0.  1.
</event>
<event>
 8    1  0.5542925E-011  0.9118800E+02  0.7816164E-02  0.1184000E+00
        -11   -1    0    0    0    0  0.00000000000E+00  0.00000000000E+00  0.45593999997E+02  0.45594000000E+02  0.51100000000E-03 0. -1.
         11   -1    0    0    0    0 -0.00000000000E+00 -0.00000000000E+00 -0.45593999997E+02  0.45594000000E+02  0.51100000000E-03 0.  1.
         23    2    1    2    0    0  0.44408920985E-15  0.00000000000E+00  0.00000000000E+00  0.91188000000E+02  0.91188000000E+02 0.  0.
    9900012    2    3    3    0    0 -0.24534167398E+01 -0.23029560242E+02 -0.36704813574E+02  0.47787271456E+02  0.20000001878E+02 0.  0.
         12    1    3    3    0    0  0.24534167398E+01  0.23029560242E+02  0.36704813574E+02  0.43400728544E+02  0.00000000000E+00 0. -1.
         11    1    4    4    0    0  0.11183941940E+01  0.11960570331E+00 -0.15654923759E+02  0.15695277929E+02  0.51100000000E-03 0. -1.
        -11    1    4    4    0    0 -0.26562733764E+01 -0.56599288396E+01 -0.84758163451E+01  0.10532333345E+02  0.51100000000E-03 0.  1.
         12    1    4    4    0    0 -0.91553755737E+00 -0.17489237106E+02 -0.12574073469E+02  0.21559660182E+02  0.00000000000E+00 0. -1.
</event>
<event>
 8    1  0.5542925E-011  0.9118800E+02  0.7816164E-02  0.1184000E+00
        -11   -1    0    0    0    0  0.00000000000E+00  0.00000000000E+00  0.45593999997E+02  0.45594000000E+02  0.51100000000E-03 0. -1.
         11   -1    0    0    0    0 -0.00000000000E+00 -0.00000000000E+00 -0.45593999997E+02  0.45594000000E+02  0.51100000000E-03 0.  1.
         23    2    1    2    0    0  0.00000000000E+00 -0.44408920985E-15  0.00000000000E+00  0.91188000000E+02  0.91188000000E+02 0.  0.
    9900012    2    3    3    0    0  0.37610618173E+02 -0.33144483495E+01  0.21402802633E+02  0.47787261207E+02  0.19999955149E+02 0.  0.
        -12    1    3    3    0    0 -0.37610618173E+02  0.33144483495E+01 -0.21402802633E+02  0.43400738793E+02  0.00000000000E+00 0.  1.
         11    1    4    4    0    0  0.62122064537E+01  0.25828865255E+01  0.46712995666E+01  0.81904732299E+01  0.51100000000E-03 0. -1.
        -11    1    4    4    0    0  0.21922683084E+01 -0.19353425649E+01  0.85092849856E+01  0.89977509638E+01  0.51100000000E-03 0.  1.
         12    1    4    4    0    0  0.29206143411E+02 -0.39619923101E+01  0.82222180805E+01  0.30599037014E+02  0.00000000000E+00 0. -1.
</event>
<event>
 8    1  0.9909360E-011  0.9118800E+02  0.7816164E-02  0.1184000E+00
        -11   -1    0    0    0    0  0.00000000000E+00  0.00000000000E+00  0.45593999997E+02  0.45594000000E+02  0.51100000000E-03 0. -1.
         11   -1    0    0    0    0 -0.00000000000E+00 -0.00000000000E+00 -0.45593999997E+02  0.45594000000E+02  0.51100000000E-03 0.  1.
         23    2    1    2    0    0 -0.88817841970E-15  0.00000000000E+00  0.00000000000E+00  0.91188000000E+02  0.91188000000E+02 0.  0.
    9900012    2    3    3    0    0  0.77904355618E+01  0.16076748016E+01  0.42665546862E+02  0.47787258145E+02  0.19999941188E+02 0.  0.
        -12    1    3    3    0    0 -0.77904355618E+01 -0.16076748016E+01 -0.42665546862E+02  0.43400741855E+02  0.00000000000E+00 0.  1.
         11    1    4    4    0    0  0.24966216929E+01  0.50896242695E+00  0.27276545928E-01  0.25481183059E+01  0.51100000000E-03 0. -1.
        -11    1    4    4    0    0  0.52592077304E+01  0.22449441256E+01  0.50370219260E+01  0.76204087963E+01  0.51100000000E-03 0.  1.
         12    1    4    4    0    0  0.34606138395E-01 -0.11462317510E+01  0.37601248390E+02  0.37618731043E+02  0.00000000000E+00 0. -1.
</event>
<event>
 8    1  0.5542925E-011  0.9118800E+02  0.7816164E-02  0.1184000E+00
        -11   -1    0    0    0    0  0.00000000000E+00  0.00000000000E+00  0.45593999997E+02  0.45594000000E+02  0.51100000000E-03 0. -1.
         11   -1    0    0    0    0 -0.00000000000E+00 -0.00000000000E+00 -0.45593999997E+02  0.45594000000E+02  0.51100000000E-03 0.  1.
         23    2    1    2    0    0  0.00000000000E+00  0.00000000000E+00 -0.35527136788E-14  0.91188000000E+02  0.91188000000E+02 0.  0.
    9900012    2    3    3    0    0  0.18058070207E+02 -0.25371638036E+02 -0.30229290858E+02  0.47787263348E+02  0.19999964907E+02 0.  0.
         12    1    3    3    0    0 -0.18058070207E+02  0.25371638036E+02  0.30229290858E+02  0.43400736652E+02  0.00000000000E+00 0. -1.
         11    1    4    4    0    0 -0.11326453334E+01  0.15879204243E+01 -0.23956243618E+01  0.30892382668E+01  0.51100000000E-03 0. -1.
        -11    1    4    4    0    0  0.19120431207E+01 -0.11289278413E+02 -0.69839223383E+01  0.13411893508E+02  0.51100000000E-03 0.  1.
        -12    1    4    4    0    0  0.17278672420E+02 -0.15670280047E+02 -0.20849744157E+02  0.31286131572E+02  0.00000000000E+00 0.  1.
</event>
<event>
 8    1  0.5542925E-011  0.9118800E+02  0.7816164E-02  0.1184000E+00
        -11   -1    0    0    0    0  0.00000000000E+00  0.00000000000E+00  0.45593999997E+02  0.45594000000E+02  0.51100000000E-03 0. -1.
         11   -1    0    0    0    0 -0.00000000000E+00 -0.00000000000E+00 -0.45593999997E+02  0.45594000000E+02  0.51100000000E-03 0.  1.
         23    2    1    2    0    0  0.00000000000E+00  0.35527136788E-14  0.00000000000E+00  0.91188000000E+02  0.91188000000E+02 0.  0.
    9900012    2    3    3    0    0 -0.21012922885E+02 -0.17856116540E+02 -0.33514764643E+02  0.47787271030E+02  0.19999999934E+02 0.  0.
         12    1    3    3    0    0  0.21012922885E+02  0.17856116540E+02  0.33514764643E+02  0.43400728970E+02  0.00000000000E+00 0. -1.
         11    1    4    4    0    0 -0.74212975438E+01 -0.11411333835E+02 -0.26324878776E+02  0.29636015926E+02  0.51100000000E-03 0.  1.
        -11    1    4    4    0    0 -0.63316796702E+01 -0.20120820702E+00 -0.55788794518E+01  0.84412409269E+01  0.51100000000E-03 0. -1.
         12    1    4    4    0    0 -0.72599456708E+01 -0.62435744975E+01 -0.16110064156E+01  0.97100141771E+01  0.00000000000E+00 0. -1.
</event>
<event>
 8    1  0.5542925E-011  0.9118800E+02  0.7816164E-02  0.1184000E+00
        -11   -1    0    0    0    0  0.00000000000E+00  0.00000000000E+00  0.45593999997E+02  0.45594000000E+02  0.51100000000E-03 0. -1.
         11   -1    0    0    0    0 -0.00000000000E+00 -0.00000000000E+00 -0.45593999997E+02  0.45594000000E+02  0.51100000000E-03 0.  1.
         23    2    1    2    0    0  0.00000000000E+00  0.00000000000E+00  0.00000000000E+00  0.91188000000E+02  0.91188000000E+02 0.  0.
    9900012    2    3    3    0    0 -0.24781328624E+02  0.16055381995E+02  0.31807760262E+02  0.47787272446E+02  0.20000006389E+02 0.  0.
        -12    1    3    3    0    0  0.24781328624E+02 -0.16055381995E+02 -0.31807760262E+02  0.43400727554E+02  0.00000000000E+00 0.  1.
         11    1    4    4    0    0 -0.20564527465E+01  0.19528658631E+01  0.57037238166E+01  0.63698625271E+01  0.51100000000E-03 0. -1.
        -11    1    4    4    0    0 -0.92438501373E+01 -0.29782708023E+01  0.43267861925E+01  0.10632024330E+02  0.51100000000E-03 0.  1.
        -12    1    4    4    0    0 -0.13481025740E+02  0.17080786934E+02  0.21777250253E+02  0.30785385589E+02  0.00000000000E+00 0.  1.
</event>
<event>
 8    1  0.5542925E-011  0.9118800E+02  0.7816164E-02  0.1184000E+00
        -11   -1    0    0    0    0  0.00000000000E+00  0.00000000000E+00  0.45593999997E+02  0.45594000000E+02  0.51100000000E-03 0. -1.
         11   -1    0    0    0    0 -0.00000000000E+00 -0.00000000000E+00 -0.45593999997E+02  0.45594000000E+02  0.51100000000E-03 0.  1.
         23    2    1    2    0    0  0.00000000000E+00  0.00000000000E+00  0.00000000000E+00  0.91188000000E+02  0.91188000000E+02 0.  0.
    9900012    2    3    3    0    0  0.23345195038E+02  0.64063365219E+01  0.36021995494E+02  0.47787269150E+02  0.19999991361E+02 0.  0.
        -12    1    3    3    0    0 -0.23345195038E+02 -0.64063365219E+01 -0.36021995494E+02  0.43400730850E+02  0.00000000000E+00 0.  1.
         11    1    4    4    0    0  0.34668109749E+01 -0.39697343117E+00  0.13987469694E+02  0.14416160201E+02  0.51100000000E-03 0. -1.
        -11    1    4    4    0    0  0.61872867124E+01 -0.41282456615E+01  0.79954014674E+01  0.10920227744E+02  0.51100000000E-03 0.  1.
         12    1    4    4    0    0  0.13691097351E+02  0.10931555615E+02  0.14039124332E+02  0.22450881204E+02  0.00000000000E+00 0. -1.
</event>
<event>
 8    1  0.5542925E-011  0.9118800E+02  0.7816164E-02  0.1184000E+00
        -11   -1    0    0    0    0  0.00000000000E+00  0.00000000000E+00  0.45593999997E+02  0.45594000000E+02  0.51100000000E-03 0.  1.
         11   -1    0    0    0    0 -0.00000000000E+00 -0.00000000000E+00 -0.45593999997E+02  0.45594000000E+02  0.51100000000E-03 0. -1.
         23    2    1    2    0    0 -0.71054273576E-14  0.17763568394E-14  0.00000000000E+00  0.91188000000E+02  0.91188000000E+02 0.  0.
    9900012    2    3    3    0    0  0.37814011202E+02 -0.12552100386E+02  0.17209549037E+02  0.47787271373E+02  0.20000001497E+02 0.  0.
        -12    1    3    3    0    0 -0.37814011202E+02  0.12552100386E+02 -0.17209549037E+02  0.43400728627E+02  0.00000000000E+00 0.  1.
         11    1    4    4    0    0  0.34240321066E+02 -0.48212456008E+01  0.10513437898E+02  0.36141062139E+02  0.51100000000E-03 0. -1.
        -11    1    4    4    0    0  0.32411578193E+00 -0.21182931430E+00  0.23340692113E+01  0.23659674644E+01  0.51100000000E-03 0.  1.
         12    1    4    4    0    0  0.32495743543E+01 -0.75190254709E+01  0.43620419277E+01  0.92802417693E+01  0.00000000000E+00 0. -1.
</event>
<event>
 8    1  0.5542925E-011  0.9118800E+02  0.7816164E-02  0.1184000E+00
        -11   -1    0    0    0    0  0.00000000000E+00  0.00000000000E+00  0.45593999997E+02  0.45594000000E+02  0.51100000000E-03 0. -1.
         11   -1    0    0    0    0 -0.00000000000E+00 -0.00000000000E+00 -0.45593999997E+02  0.45594000000E+02  0.51100000000E-03 0.  1.
         23    2    1    2    0    0  0.00000000000E+00  0.00000000000E+00  0.00000000000E+00  0.91188000000E+02  0.91188000000E+02 0.  0.
    9900012    2    3    3    0    0 -0.49010413043E+01 -0.35812539279E+02 -0.24022179150E+02  0.47787271128E+02  0.20000000381E+02 0.  0.
         12    1    3    3    0    0  0.49010413043E+01  0.35812539279E+02  0.24022179150E+02  0.43400728872E+02  0.00000000000E+00 0. -1.
         11    1    4    4    0    0  0.65376027850E+00 -0.28647664977E+01 -0.78043106806E+01  0.83391579340E+01  0.51100000000E-03 0. -1.
        -11    1    4    4    0    0  0.37819016153E+01 -0.93963718290E+01 -0.17670229462E+01  0.10281875010E+02  0.51100000000E-03 0.  1.
         12    1    4    4    0    0 -0.93367031981E+01 -0.23551400953E+02 -0.14450845523E+02  0.29166238184E+02  0.00000000000E+00 0. -1.
</event>
<event>
 8    1  0.5542925E-011  0.9118800E+02  0.7816164E-02  0.1184000E+00
        -11   -1    0    0    0    0  0.00000000000E+00  0.00000000000E+00  0.45593999997E+02  0.45594000000E+02  0.51100000000E-03 0. -1.
         11   -1    0    0    0    0 -0.00000000000E+00 -0.00000000000E+00 -0.45593999997E+02  0.45594000000E+02  0.51100000000E-03 0.  1.
         23    2    1    2    0    0  0.00000000000E+00  0.00000000000E+00  0.00000000000E+00  0.91188000000E+02  0.91188000000E+02 0.  0.
    9900012    2    3    3    0    0 -0.31699724697E+02  0.10538252271E+02 -0.27707332510E+02  0.47787267499E+02  0.19999983837E+02 0.  0.
         12    1    3    3    0    0  0.31699724697E+02 -0.10538252271E+02  0.27707332510E+02  0.43400732501E+02  0.00000000000E+00 0. -1.
         11    1    4    4    0    0 -0.12186297677E+02 -0.66714824382E+00 -0.79588031563E+01  0.14570294636E+02  0.51100000000E-03 0. -1.
        -11    1    4    4    0    0 -0.40264614687E+01 -0.15015014707E+00 -0.11736044483E+02  0.12408451853E+02  0.51100000000E-03 0.  1.
         12    1    4    4    0    0 -0.15486965551E+02  0.11355550662E+02 -0.80124848707E+01  0.20808521010E+02  0.00000000000E+00 0. -1.
</event>
<event>
 8    1  0.5542925E-011  0.9118800E+02  0.7816164E-02  0.1184000E+00
        -11   -1    0    0    0    0  0.00000000000E+00  0.00000000000E+00  0.45593999997E+02  0.45594000000E+02  0.51100000000E-03 0. -1.
         11   -1    0    0    0    0 -0.00000000000E+00 -0.00000000000E+00 -0.45593999997E+02  0.45594000000E+02  0.51100000000E-03 0.  1.
         23    2    1    2    0    0 -0.71054273576E-14  0.00000000000E+00  0.17763568394E-14  0.91188000000E+02  0.91188000000E+02 0.  0.
    9900012    2    3    3    0    0 -0.40552868057E+02 -0.10728412433E+02  0.11135055666E+02  0.47787269526E+02  0.19999993077E+02 0.  0.
        -12    1    3    3    0    0  0.40552868057E+02  0.10728412433E+02 -0.11135055666E+02  0.43400730474E+02  0.00000000000E+00 0.  1.
         11    1    4    4    0    0 -0.18956880025E+02  0.10062763060E+01  0.87973558636E+00  0.19003942413E+02  0.51100000000E-03 0. -1.
        -11    1    4    4    0    0 -0.63509221148E+01 -0.25422190257E+01 -0.20510417534E+01  0.71416988048E+01  0.51100000000E-03 0.  1.
        -12    1    4    4    0    0 -0.15245065918E+02 -0.91924697128E+01  0.12306361833E+02  0.21641628308E+02  0.00000000000E+00 0.  1.
</event>
<event>
 8    1  0.5542925E-011  0.9118800E+02  0.7816164E-02  0.1184000E+00
        -11   -1    0    0    0    0  0.00000000000E+00  0.00000000000E+00  0.45593999997E+02  0.45594000000E+02  0.51100000000E-03 0. -1.
         11   -1    0    0    0    0 -0.00000000000E+00 -0.00000000000E+00 -0.45593999997E+02  0.45594000000E+02  0.51100000000E-03 0.  1.
         23    2    1    2    0    0 -0.22204460493E-15  0.17763568394E-14  0.71054273576E-14  0.91188000000E+02  0.91188000000E+02 0.  0.
    9900012    2    3    3    0    0 -0.13271691516E+01  0.15944974623E+02  0.40343770591E+02  0.47787269370E+02  0.19999992367E+02 0.  0.
        -12    1    3    3    0    0  0.13271691516E+01 -0.15944974623E+02 -0.40343770591E+02  0.43400730630E+02  0.00000000000E+00 0.  1.
         11    1    4    4    0    0 -0.15527240425E+01  0.10635222083E+02  0.19241204708E+02  0.22039574851E+02  0.51100000000E-03 0. -1.
        -11    1    4    4    0    0  0.10016306878E+01  0.96135530556E+01  0.17845111918E+02  0.20294622095E+02  0.51100000000E-03 0.  1.
        -12    1    4    4    0    0 -0.77607579696E+00 -0.43038005161E+01  0.32574539655E+01  0.54530724241E+01  0.00000000000E+00 0.  1.
</event>
<event>
 8    1  0.5542925E-011  0.9118800E+02  0.7816164E-02  0.1184000E+00
        -11   -1    0    0    0    0  0.00000000000E+00  0.00000000000E+00  0.45593999997E+02  0.45594000000E+02  0.51100000000E-03 0. -1.
         11   -1    0    0    0    0 -0.00000000000E+00 -0.00000000000E+00 -0.45593999997E+02  0.45594000000E+02  0.51100000000E-03 0.  1.
         23    2    1    2    0    0  0.00000000000E+00 -0.35527136788E-14  0.00000000000E+00  0.91188000000E+02  0.91188000000E+02 0.  0.
    9900012    2    3    3    0    0  0.15847737130E+02 -0.29999147913E+02  0.27065172370E+02  0.47787271861E+02  0.20000003721E+02 0.  0.
        -12    1    3    3    0    0 -0.15847737130E+02  0.29999147913E+02 -0.27065172370E+02  0.43400728139E+02  0.00000000000E+00 0.  1.
         11    1    4    4    0    0  0.20372361282E+01 -0.47056733978E+01  0.78903351801E+00  0.51880889856E+01  0.51100000000E-03 0. -1.
        -11    1    4    4    0    0  0.14573404866E+02 -0.14770139192E+02  0.95931981695E+01  0.22859802985E+02  0.51100000000E-03 0.  1.
         12    1    4    4    0    0 -0.76290386457E+00 -0.10523335324E+02  0.16682940682E+02  0.19739379890E+02  0.00000000000E+00 0. -1.
</event>
<event>
 8    1  0.5542925E-011  0.9118800E+02  0.7816164E-02  0.1184000E+00
        -11   -1    0    0    0    0  0.00000000000E+00  0.00000000000E+00  0.45593999997E+02  0.45594000000E+02  0.51100000000E-03 0. -1.
         11   -1    0    0    0    0 -0.00000000000E+00 -0.00000000000E+00 -0.45593999997E+02  0.45594000000E+02  0.51100000000E-03 0.  1.
         23    2    1    2    0    0  0.00000000000E+00 -0.35527136788E-14  0.00000000000E+00  0.91188000000E+02  0.91188000000E+02 0.  0.
    9900012    2    3    3    0    0  0.43132577930E+01 -0.30813804682E+02 -0.30257693963E+02  0.47787276553E+02  0.20000025116E+02 0.  0.
         12    1    3    3    0    0 -0.43132577930E+01  0.30813804682E+02  0.30257693963E+02  0.43400723447E+02  0.00000000000E+00 0. -1.
         11    1    4    4    0    0  0.28030729975E+01 -0.65016200238E+01 -0.99262391480E+01  0.12192559413E+02  0.51100000000E-03 0. -1.
        -11    1    4    4    0    0  0.32921407540E+01 -0.26171125516E+02 -0.16987686810E+02  0.31374312820E+02  0.51100000000E-03 0.  1.
         12    1    4    4    0    0 -0.17819559584E+01  0.18589408578E+01 -0.33437680047E+01  0.42204043195E+01  0.00000000000E+00 0. -1.
</event>
<event>
 8    1  0.5542925E-011  0.9118800E+02  0.7816164E-02  0.1184000E+00
        -11   -1    0    0    0    0  0.00000000000E+00  0.00000000000E+00  0.45593999997E+02  0.45594000000E+02  0.51100000000E-03 0. -1.
         11   -1    0    0    0    0 -0.00000000000E+00 -0.00000000000E+00 -0.45593999997E+02  0.45594000000E+02  0.51100000000E-03 0.  1.
         23    2    1    2    0    0  0.61062266354E-15  0.00000000000E+00  0.71054273576E-14  0.91188000000E+02  0.91188000000E+02 0.  0.
    9900012    2    3    3    0    0  0.14887222808E+00 -0.22250777242E+02 -0.37262634794E+02  0.47787271866E+02  0.20000003745E+02 0.  0.
         12    1    3    3    0    0 -0.14887222808E+00  0.22250777242E+02  0.37262634794E+02  0.43400728134E+02  0.00000000000E+00 0. -1.
         11    1    4    4    0    0  0.27302846501E+01 -0.22132263552E+01 -0.10095130781E+01  0.36567666163E+01  0.51100000000E-03 0. -1.
        -11    1    4    4    0    0  0.35591249870E+01 -0.10186616453E+02 -0.75516209730E+01  0.13170478541E+02  0.51100000000E-03 0.  1.
        -12    1    4    4    0    0 -0.61405374090E+01 -0.98509344343E+01 -0.28701500743E+02  0.30960026708E+02  0.00000000000E+00 0.  1.
</event>
<event>
 8    1  0.5542925E-011  0.9118800E+02  0.7816164E-02  0.1184000E+00
        -11   -1    0    0    0    0  0.00000000000E+00  0.00000000000E+00  0.45593999997E+02  0.45594000000E+02  0.51100000000E-03 0. -1.
         11   -1    0    0    0    0 -0.00000000000E+00 -0.00000000000E+00 -0.45593999997E+02  0.45594000000E+02  0.51100000000E-03 0.  1.
         23    2    1    2    0    0  0.00000000000E+00  0.71054273576E-14 -0.35527136788E-14  0.91188000000E+02  0.91188000000E+02 0.  0.
    9900012    2    3    3    0    0 -0.32144777868E+02 -0.19547589417E+02  0.21638583267E+02  0.47787270951E+02  0.19999999575E+02 0.  0.
        -12    1    3    3    0    0  0.32144777868E+02  0.19547589417E+02 -0.21638583267E+02  0.43400729049E+02  0.00000000000E+00 0.  1.
         11    1    4    4    0    0 -0.16022701750E+02 -0.16379909477E+02  0.10110019530E+02  0.25044777918E+02  0.51100000000E-03 0. -1.
        -11    1    4    4    0    0 -0.91657066315E+01 -0.49521436526E+01  0.11558784080E+02  0.15560828850E+02  0.51100000000E-03 0.  1.
        -12    1    4    4    0    0 -0.69563694863E+01  0.17844637126E+01 -0.30220343297E-01  0.71816641832E+01  0.00000000000E+00 0.  1.
</event>
<event>
 8    1  0.5542925E-011  0.9118800E+02  0.7816164E-02  0.1184000E+00
        -11   -1    0    0    0    0  0.00000000000E+00  0.00000000000E+00  0.45593999997E+02  0.45594000000E+02  0.51100000000E-03 0. -1.
         11   -1    0    0    0    0 -0.00000000000E+00 -0.00000000000E+00 -0.45593999997E+02  0.45594000000E+02  0.51100000000E-03 0.  1.
         23    2    1    2    0    0  0.00000000000E+00  0.00000000000E+00  0.00000000000E+00  0.91188000000E+02  0.91188000000E+02 0.  0.
    9900012    2    3    3    0    0 -0.16324346962E+02 -0.18730854521E+02 -0.35585028618E+02  0.47787268709E+02  0.19999989353E+02 0.  0.
         12    1    3    3    0    0  0.16324346962E+02  0.18730854521E+02  0.35585028618E+02  0.43400731291E+02  0.00000000000E+00 0. -1.
         11    1    4    4    0    0 -0.32859044389E+01 -0.27127605627E+01  0.17359557970E+01  0.46010629905E+01  0.51100000000E-03 0.  1.
        -11    1    4    4    0    0 -0.47765921142E+00 -0.40043681147E+00 -0.57978147941E+01  0.58312232516E+01  0.51100000000E-03 0. -1.
        -12    1    4    4    0    0 -0.12560783312E+02 -0.15617657147E+02 -0.31523169621E+02  0.37354982467E+02  0.00000000000E+00 0.  1.
</event>
<event>
 8    1  0.5542925E-011  0.9118800E+02  0.7816164E-02  0.1184000E+00
        -11   -1    0    0    0    0  0.00000000000E+00  0.00000000000E+00  0.45593999997E+02  0.45594000000E+02  0.51100000000E-03 0. -1.
         11   -1    0    0    0    0 -0.00000000000E+00 -0.00000000000E+00 -0.45593999997E+02  0.45594000000E+02  0.51100000000E-03 0.  1.
         23    2    1    2    0    0 -0.35527136788E-14 -0.35527136788E-14  0.00000000000E+00  0.91188000000E+02  0.91188000000E+02 0.  0.
    9900012    2    3    3    0    0  0.19862248905E+02  0.28809505285E+02 -0.25673478211E+02  0.47787262567E+02  0.19999961347E+02 0.  0.
         12    1    3    3    0    0 -0.19862248905E+02 -0.28809505285E+02  0.25673478211E+02  0.43400737433E+02  0.00000000000E+00 0. -1.
         11    1    4    4    0    0  0.38383332988E+01  0.43907238965E+01 -0.96250405205E+01  0.11254006581E+02  0.51100000000E-03 0. -1.
        -11    1    4    4    0    0  0.98099898952E+01  0.17114984983E+02 -0.18048121875E+02  0.26737488966E+02  0.51100000000E-03 0.  1.
        -12    1    4    4    0    0  0.62139257106E+01  0.73037964056E+01  0.19996841845E+01  0.97957670199E+01  0.00000000000E+00 0.  1.
</event>
<event>
 8    1  0.5542925E-011  0.9118800E+02  0.7816164E-02  0.1184000E+00
        -11   -1    0    0    0    0  0.00000000000E+00  0.00000000000E+00  0.45593999997E+02  0.45594000000E+02  0.51100000000E-03 0. -1.
         11   -1    0    0    0    0 -0.00000000000E+00 -0.00000000000E+00 -0.45593999997E+02  0.45594000000E+02  0.51100000000E-03 0.  1.
         23    2    1    2    0    0  0.00000000000E+00 -0.17763568394E-14  0.00000000000E+00  0.91188000000E+02  0.91188000000E+02 0.  0.
    9900012    2    3    3    0    0 -0.14843862050E+02 -0.10830865262E+02 -0.39318896001E+02  0.47787268835E+02  0.19999989927E+02 0.  0.
         12    1    3    3    0    0  0.14843862050E+02  0.10830865262E+02  0.39318896001E+02  0.43400731165E+02  0.00000000000E+00 0. -1.
         11    1    4    4    0    0  0.10080397573E+01 -0.10835636520E+01  0.86819060960E+00  0.17158116260E+01  0.51100000000E-03 0. -1.
        -11    1    4    4    0    0  0.20092685055E+01 -0.11880061553E+01 -0.20885512097E+01  0.31321821416E+01  0.51100000000E-03 0.  1.
        -12    1    4    4    0    0 -0.17861170312E+02 -0.85592954548E+01 -0.38098535401E+02  0.42939275068E+02  0.00000000000E+00 0.  1.
</event>
<event>
 8    1  0.5542925E-011  0.9118800E+02  0.7816164E-02  0.1184000E+00
        -11   -1    0    0    0    0  0.00000000000E+00  0.00000000000E+00  0.45593999997E+02  0.45594000000E+02  0.51100000000E-03 0. -1.
         11   -1    0    0    0    0 -0.00000000000E+00 -0.00000000000E+00 -0.45593999997E+02  0.45594000000E+02  0.51100000000E-03 0.  1.
         23    2    1    2    0    0  0.00000000000E+00  0.00000000000E+00  0.00000000000E+00  0.91188000000E+02  0.91188000000E+02 0.  0.
    9900012    2    3    3    0    0  0.84442443682E+01 -0.34784670774E+02 -0.24542718780E+02  0.47787266954E+02  0.19999981351E+02 0.  0.
         12    1    3    3    0    0 -0.84442443682E+01  0.34784670774E+02  0.24542718780E+02  0.43400733046E+02  0.00000000000E+00 0. -1.
         11    1    4    4    0    0  0.14066687596E+01 -0.58781993819E+01 -0.64048290158E+01  0.88064623973E+01  0.51100000000E-03 0. -1.
        -11    1    4    4    0    0 -0.47181231101E+01 -0.38607937253E+01 -0.38703434886E+00  0.61086995113E+01  0.51100000000E-03 0.  1.
        -12    1    4    4    0    0  0.11755698719E+02 -0.25045677667E+02 -0.17750855416E+02  0.32872105046E+02  0.00000000000E+00 0.  1.
</event>
<event>
 8    1  0.5542925E-011  0.9118800E+02  0.7816164E-02  0.1184000E+00
        -11   -1    0    0    0    0  0.00000000000E+00  0.00000000000E+00  0.45593999997E+02  0.45594000000E+02  0.51100000000E-03 0. -1.
         11   -1    0    0    0    0 -0.00000000000E+00 -0.00000000000E+00 -0.45593999997E+02  0.45594000000E+02  0.51100000000E-03 0.  1.
         23    2    1    2    0    0  0.35527136788E-14  0.17763568394E-14  0.00000000000E+00  0.91188000000E+02  0.91188000000E+02 0.  0.
    9900012    2    3    3    0    0  0.26332673266E+02  0.86383794217E+01 -0.33400481273E+02  0.47787269249E+02  0.19999991816E+02 0.  0.
         12    1    3    3    0    0 -0.26332673266E+02 -0.86383794217E+01  0.33400481273E+02  0.43400730751E+02  0.00000000000E+00 0. -1.
         11    1    4    4    0    0  0.67704874315E+00  0.29862512844E+01  0.19863216089E+01  0.36498719881E+01  0.51100000000E-03 0. -1.
        -11    1    4    4    0    0  0.18324674010E+02  0.50876723954E+01 -0.24994111129E+02  0.31406745762E+02  0.51100000000E-03 0.  1.
         12    1    4    4    0    0  0.73309505131E+01  0.56445574181E+00 -0.10392691754E+02  0.12730651499E+02  0.00000000000E+00 0. -1.
</event>
<event>
 8    1  0.5542925E-011  0.9118800E+02  0.7816164E-02  0.1184000E+00
        -11   -1    0    0    0    0  0.00000000000E+00  0.00000000000E+00  0.45593999997E+02  0.45594000000E+02  0.51100000000E-03 0. -1.
         11   -1    0    0    0    0 -0.00000000000E+00 -0.00000000000E+00 -0.45593999997E+02  0.45594000000E+02  0.51100000000E-03 0.  1.
         23    2    1    2    0    0  0.35527136788E-14  0.35527136788E-14  0.00000000000E+00  0.91188000000E+02  0.91188000000E+02 0.  0.
    9900012    2    3    3    0    0  0.24595948934E+02 -0.29799587108E+02 -0.19764792264E+02  0.47787272944E+02  0.20000008660E+02 0.  0.
         12    1    3    3    0    0 -0.24595948934E+02  0.29799587108E+02  0.19764792264E+02  0.43400727056E+02  0.00000000000E+00 0. -1.
         11    1    4    4    0    0 -0.19637770710E+01 -0.56778968974E+01  0.71678186876E+00  0.60505132072E+01  0.51100000000E-03 0. -1.
        -11    1    4    4    0    0  0.14823927475E+02 -0.16310185315E+02 -0.14738444653E+02  0.26514009916E+02  0.51100000000E-03 0.  1.
        -12    1    4    4    0    0  0.11735798530E+02 -0.78115048950E+01 -0.57431294805E+01  0.15222749820E+02  0.00000000000E+00 0.  1.
</event>
<event>
 8    1  0.5542925E-011  0.9118800E+02  0.7816164E-02  0.1184000E+00
        -11   -1    0    0    0    0  0.00000000000E+00  0.00000000000E+00  0.45593999997E+02  0.45594000000E+02  0.51100000000E-03 0. -1.
         11   -1    0    0    0    0 -0.00000000000E+00 -0.00000000000E+00 -0.45593999997E+02  0.45594000000E+02  0.51100000000E-03 0.  1.
         23    2    1    2    0    0  0.00000000000E+00  0.00000000000E+00  0.00000000000E+00  0.91188000000E+02  0.91188000000E+02 0.  0.
    9900012    2    3    3    0    0  0.10802909640E+02 -0.26764734534E+02 -0.32412490281E+02  0.47787269619E+02  0.19999993502E+02 0.  0.
         12    1    3    3    0    0 -0.10802909640E+02  0.26764734534E+02  0.32412490281E+02  0.43400730381E+02  0.00000000000E+00 0. -1.
         11    1    4    4    0    0  0.46082800833E+01 -0.14052738850E+02 -0.23039149065E+02  0.27377328292E+02  0.51100000000E-03 0. -1.
        -11    1    4    4    0    0  0.14327586118E+01 -0.12997767373E+01 -0.76905519264E+01  0.79301201757E+01  0.51100000000E-03 0.  1.
         12    1    4    4    0    0  0.47618709449E+01 -0.11412218946E+02 -0.16827892896E+01  0.12479821151E+02  0.00000000000E+00 0. -1.
</event>
<event>
 8    1  0.5542925E-011  0.9118800E+02  0.7816164E-02  0.1184000E+00
        -11   -1    0    0    0    0  0.00000000000E+00  0.00000000000E+00  0.45593999997E+02  0.45594000000E+02  0.51100000000E-03 0. -1.
         11   -1    0    0    0    0 -0.00000000000E+00 -0.00000000000E+00 -0.45593999997E+02  0.45594000000E+02  0.51100000000E-03 0.  1.
         23    2    1    2    0    0  0.00000000000E+00  0.00000000000E+00  0.00000000000E+00  0.91188000000E+02  0.91188000000E+02 0.  0.
    9900012    2    3    3    0    0  0.39819311988E+02  0.12920924166E+02  0.11449690310E+02  0.47787270781E+02  0.19999998801E+02 0.  0.
        -12    1    3    3    0    0 -0.39819311988E+02 -0.12920924166E+02 -0.11449690310E+02  0.43400729219E+02  0.00000000000E+00 0.  1.
         11    1    4    4    0    0  0.12190538890E+02 -0.14488130540E+01  0.23064254785E+01  0.12491112698E+02  0.51100000000E-03 0. -1.
        -11    1    4    4    0    0  0.11688383878E+02 -0.12723364817E+01  0.30428822279E+01  0.12144805076E+02  0.51100000000E-03 0.  1.
         12    1    4    4    0    0  0.15940389219E+02  0.15642073702E+02  0.61003826040E+01  0.23151353008E+02  0.00000000000E+00 0. -1.
</event>
<event>
 8    1  0.5542925E-011  0.9118800E+02  0.7816164E-02  0.1184000E+00
        -11   -1    0    0    0    0  0.00000000000E+00  0.00000000000E+00  0.45593999997E+02  0.45594000000E+02  0.51100000000E-03 0.  1.
         11   -1    0    0    0    0 -0.00000000000E+00 -0.00000000000E+00 -0.45593999997E+02  0.45594000000E+02  0.51100000000E-03 0. -1.
         23    2    1    2    0    0  0.00000000000E+00  0.00000000000E+00  0.35527136788E-14  0.91188000000E+02  0.91188000000E+02 0.  0.
    9900012    2    3    3    0    0 -0.37026093142E+02 -0.12101917064E+02  0.19137271915E+02  0.47787272514E+02  0.20000006699E+02 0.  0.
        -12    1    3    3    0    0  0.37026093142E+02  0.12101917064E+02 -0.19137271915E+02  0.43400727486E+02  0.00000000000E+00 0.  1.
         11    1    4    4    0    0 -0.11299753052E+02 -0.11601950278E+01  0.14204872710E+02  0.18188152202E+02  0.51100000000E-03 0.  1.
        -11    1    4    4    0    0 -0.18078116614E+02 -0.33490566549E+01  0.36700471050E+01  0.18748432649E+02  0.51100000000E-03 0. -1.
        -12    1    4    4    0    0 -0.76482234759E+01 -0.75926653817E+01  0.12623520998E+01  0.10850687663E+02  0.00000000000E+00 0.  1.
</event>
