<event>
 7    1  0.1538805E-008  0.4614232E+02  0.7816164E-02  0.1320468E+00
        -11   -1    0    0    0    0  0.00000000000E+00  0.00000000000E+00  0.45593999997E+02  0.45594000000E+02  0.51100000000E-03 0.  1.
         11   -1    0    0    0    0 -0.00000000000E+00 -0.00000000000E+00 -0.45593999997E+02  0.45594000000E+02  0.51100000000E-03 0. -1.
    9900012    2    1    2    0    0 -0.21158320873E+01 -0.66326753045E+01 -0.44504430322E+02  0.46142318238E+02  0.10000004350E+02 0.  0.
        -12    1    1    2    0    0  0.21158320873E+01  0.66326753045E+01  0.44504430322E+02  0.45045681762E+02  0.00000000000E+00 0.  1.
         11    1    3    3    0    0 -0.19322699656E+01 -0.58396551935E-01 -0.15310380407E+01  0.24659998216E+01  0.51100000000E-03 0. -1.
        -11    1    3    3    0    0  0.53605467776E+00 -0.20850453365E+01 -0.26491664319E+02  0.26578996357E+02  0.51100000000E-03 0.  1.
         12    1    3    3    0    0 -0.71961679950E+00 -0.44892334162E+01 -0.16481727962E+02  0.17097322060E+02  0.00000000000E+00 0. -1.
</event>
<event>
 7    1  0.1538805E-008  0.4614232E+02  0.7816164E-02  0.1320468E+00
        -11   -1    0    0    0    0  0.00000000000E+00  0.00000000000E+00  0.45593999997E+02  0.45594000000E+02  0.51100000000E-03 0.  1.
         11   -1    0    0    0    0 -0.00000000000E+00 -0.00000000000E+00 -0.45593999997E+02  0.45594000000E+02  0.51100000000E-03 0. -1.
    9900012    2    1    2    0    0  0.62166097009E+01  0.42295415410E+02 -0.14197363554E+02  0.46142317269E+02  0.99999955084E+01 0.  0.
        -12    1    1    2    0    0 -0.62166097009E+01 -0.42295415410E+02  0.14197363554E+02  0.45045682731E+02  0.00000000000E+00 0.  1.
         11    1    3    3    0    0  0.89872287533E+00  0.62540103540E+01 -0.15452047362E+01  0.65044604890E+01  0.51100000000E-03 0.  1.
        -11    1    3    3    0    0  0.18649682164E+01  0.31352815105E+02 -0.86678246706E+01  0.32582331197E+02  0.51100000000E-03 0. -1.
        -12    1    3    3    0    0  0.34529186092E+01  0.46885899507E+01 -0.39843341472E+01  0.70555255824E+01  0.00000000000E+00 0.  1.
</event>
<event>
 7    1  0.1538805E-008  0.4614232E+02  0.7816164E-02  0.1320468E+00
        -11   -1    0    0    0    0  0.00000000000E+00  0.00000000000E+00  0.45593999997E+02  0.45594000000E+02  0.51100000000E-03 0. -1.
         11   -1    0    0    0    0 -0.00000000000E+00 -0.00000000000E+00 -0.45593999997E+02  0.45594000000E+02  0.51100000000E-03 0.  1.
    9900012    2    1    2    0    0 -0.20893983360E+02  0.21670696330E+02  0.33510235896E+02  0.46142317300E+02  0.99999957971E+01 0.  0.
        -12    1    1    2    0    0  0.20893983360E+02 -0.21670696330E+02 -0.33510235896E+02  0.45045682700E+02  0.00000000000E+00 0.  1.
         11    1    3    3    0    0  0.72700340751E+00  0.49878544154E+00  0.20030813593E+01  0.21885282873E+01  0.51100000000E-03 0. -1.
        -11    1    3    3    0    0 -0.30901127771E+01  0.11922883721E+01  0.45007459394E+01  0.55881180025E+01  0.51100000000E-03 0.  1.
         12    1    3    3    0    0 -0.18530873991E+02  0.19979622517E+02  0.27006408597E+02  0.38365671010E+02  0.00000000000E+00 0. -1.
</event>
<event>
 7    1  0.1538805E-008  0.4614232E+02  0.7816164E-02  0.1320468E+00
        -11   -1    0    0    0    0  0.00000000000E+00  0.00000000000E+00  0.45593999997E+02  0.45594000000E+02  0.51100000000E-03 0. -1.
         11   -1    0    0    0    0 -0.00000000000E+00 -0.00000000000E+00 -0.45593999997E+02  0.45594000000E+02  0.51100000000E-03 0.  1.
    9900012    2    1    2    0    0 -0.42114774289E+02  0.35656160485E+01 -0.15580298437E+02  0.46142317292E+02  0.99999957249E+01 0.  0.
        -12    1    1    2    0    0  0.42114774289E+02 -0.35656160485E+01  0.15580298437E+02  0.45045682708E+02  0.00000000000E+00 0.  1.
         11    1    3    3    0    0 -0.29800218304E+02  0.20486503974E+01 -0.14440123129E+02  0.33177810893E+02  0.51100000000E-03 0. -1.
        -11    1    3    3    0    0 -0.99941175637E+01  0.22958386841E+01  0.23145025749E-01  0.10254452550E+02  0.51100000000E-03 0.  1.
         12    1    3    3    0    0 -0.23204384218E+01 -0.77887303302E+00 -0.11633203334E+01  0.27100538499E+01  0.00000000000E+00 0. -1.
</event>
<event>
 7    1  0.1538805E-008  0.4614232E+02  0.7816164E-02  0.1320468E+00
        -11   -1    0    0    0    0  0.00000000000E+00  0.00000000000E+00  0.45593999997E+02  0.45594000000E+02  0.51100000000E-03 0.  1.
         11   -1    0    0    0    0 -0.00000000000E+00 -0.00000000000E+00 -0.45593999997E+02  0.45594000000E+02  0.51100000000E-03 0. -1.
    9900012    2    1    2    0    0 -0.20175711302E+02  0.24506354498E+02 -0.31960800080E+02  0.46142317864E+02  0.10000000938E+02 0.  0.
        -12    1    1    2    0    0  0.20175711302E+02 -0.24506354498E+02  0.31960800080E+02  0.45045682136E+02  0.00000000000E+00 0.  1.
         11    1    3    3    0    0 -0.15848090280E+02  0.23187705886E+02 -0.25028653455E+02  0.37620010151E+02  0.51100000000E-03 0. -1.
        -11    1    3    3    0    0 -0.93322320760E+00  0.54646789967E+00 -0.33799584969E+01  0.35487536436E+01  0.51100000000E-03 0.  1.
         12    1    3    3    0    0 -0.33943978147E+01  0.77218071235E+00 -0.35521881287E+01  0.49735540692E+01  0.00000000000E+00 0. -1.
</event>
<event>
 7    1  0.1538805E-008  0.4614232E+02  0.7816164E-02  0.1320468E+00
        -11   -1    0    0    0    0  0.00000000000E+00  0.00000000000E+00  0.45593999997E+02  0.45594000000E+02  0.51100000000E-03 0.  1.
         11   -1    0    0    0    0 -0.00000000000E+00 -0.00000000000E+00 -0.45593999997E+02  0.45594000000E+02  0.51100000000E-03 0. -1.
    9900012    2    1    2    0    0  0.10991834819E+01  0.27781342767E+02 -0.35441533356E+02  0.46142317666E+02  0.99999991336E+01 0.  0.
        -12    1    1    2    0    0 -0.10991834819E+01 -0.27781342767E+02  0.35441533356E+02  0.45045682334E+02  0.00000000000E+00 0.  1.
         11    1    3    3    0    0  0.17792221600E+00  0.44297769291E+00 -0.17451637293E+01  0.18092767214E+01  0.51100000000E-03 0. -1.
        -11    1    3    3    0    0  0.65470515618E+00  0.18589992335E+02 -0.28854157906E+02  0.34330436679E+02  0.51100000000E-03 0.  1.
        -12    1    3    3    0    0  0.26655610968E+00  0.87483727391E+01 -0.48422117214E+01  0.10002604266E+02  0.00000000000E+00 0.  1.
</event>
<event>
 7    1  0.1538805E-008  0.4614232E+02  0.7816164E-02  0.1320468E+00
        -11   -1    0    0    0    0  0.00000000000E+00  0.00000000000E+00  0.45593999997E+02  0.45594000000E+02  0.51100000000E-03 0. -1.
         11   -1    0    0    0    0 -0.00000000000E+00 -0.00000000000E+00 -0.45593999997E+02  0.45594000000E+02  0.51100000000E-03 0.  1.
    9900012    2    1    2    0    0  0.55500239399E+01  0.23295709894E+02  0.38152595835E+02  0.46142318363E+02  0.10000005492E+02 0.  0.
        -12    1    1    2    0    0 -0.55500239399E+01 -0.23295709894E+02 -0.38152595835E+02  0.45045681637E+02  0.00000000000E+00 0.  1.
         11    1    3    3    0    0  0.28375092357E+01  0.10804133405E+01  0.73880949424E+01  0.79876591557E+01  0.51100000000E-03 0. -1.
        -11    1    3    3    0    0 -0.23327288893E+00  0.30247675229E+01  0.29291340924E+01  0.42170441782E+01  0.51100000000E-03 0.  1.
         12    1    3    3    0    0  0.29457875931E+01  0.19190529030E+02  0.27835366800E+02  0.33937615030E+02  0.00000000000E+00 0. -1.
</event>
<event>
 7    1  0.1538805E-008  0.4614232E+02  0.7816164E-02  0.1320468E+00
        -11   -1    0    0    0    0  0.00000000000E+00  0.00000000000E+00  0.45593999997E+02  0.45594000000E+02  0.51100000000E-03 0. -1.
         11   -1    0    0    0    0 -0.00000000000E+00 -0.00000000000E+00 -0.45593999997E+02  0.45594000000E+02  0.51100000000E-03 0.  1.
    9900012    2    1    2    0    0  0.91258761713E+01  0.22827858220E+02  0.37745472812E+02  0.46142318246E+02  0.10000004425E+02 0.  0.
        -12    1    1    2    0    0 -0.91258761713E+01 -0.22827858220E+02 -0.37745472812E+02  0.45045681754E+02  0.00000000000E+00 0.  1.
         11    1    3    3    0    0  0.14604099915E+01  0.25497121192E+01  0.92413606988E+01  0.96972458492E+01  0.51100000000E-03 0. -1.
        -11    1    3    3    0    0  0.70425206828E+01  0.20736585923E+02  0.27870147956E+02  0.35445003042E+02  0.51100000000E-03 0.  1.
        -12    1    3    3    0    0  0.62294549702E+00 -0.45843982147E+00  0.63396415776E+00  0.10000693553E+01  0.00000000000E+00 0.  1.
</event>
<event>
 7    1  0.1538805E-008  0.4614232E+02  0.7816164E-02  0.1320468E+00
        -11   -1    0    0    0    0  0.00000000000E+00  0.00000000000E+00  0.45593999997E+02  0.45594000000E+02  0.51100000000E-03 0.  1.
         11   -1    0    0    0    0 -0.00000000000E+00 -0.00000000000E+00 -0.45593999997E+02  0.45594000000E+02  0.51100000000E-03 0. -1.
    9900012    2    1    2    0    0  0.14269753349E+02  0.41850205889E+02 -0.86051124259E+01  0.46142317039E+02  0.99999934130E+01 0.  0.
        -12    1    1    2    0    0 -0.14269753349E+02 -0.41850205889E+02  0.86051124259E+01  0.45045682961E+02  0.00000000000E+00 0.  1.
         11    1    3    3    0    0  0.93805879675E+01  0.27876704524E+02 -0.93836203884E+01  0.30873263799E+02  0.51100000000E-03 0. -1.
        -11    1    3    3    0    0  0.22374842332E+01  0.10942364763E+02  0.84434926474E-02  0.11168784797E+02  0.51100000000E-03 0.  1.
         12    1    3    3    0    0  0.26516811487E+01  0.30311366019E+01  0.77006446983E+00  0.41002684426E+01  0.00000000000E+00 0. -1.
</event>
<event>
 7    1  0.1538805E-008  0.4614232E+02  0.7816164E-02  0.1320468E+00
        -11   -1    0    0    0    0  0.00000000000E+00  0.00000000000E+00  0.45593999997E+02  0.45594000000E+02  0.51100000000E-03 0.  1.
         11   -1    0    0    0    0 -0.00000000000E+00 -0.00000000000E+00 -0.45593999997E+02  0.45594000000E+02  0.51100000000E-03 0. -1.
    9900012    2    1    2    0    0  0.36288346878E+02 -0.10638830266E+02 -0.24476206006E+02  0.46142317754E+02  0.99999999333E+01 0.  0.
        -12    1    1    2    0    0 -0.36288346878E+02  0.10638830266E+02  0.24476206006E+02  0.45045682246E+02  0.00000000000E+00 0.  1.
         11    1    3    3    0    0  0.22057632713E+02 -0.61937960218E+01 -0.11835049935E+02  0.25787025367E+02  0.51100000000E-03 0. -1.
        -11    1    3    3    0    0  0.10310174578E+02 -0.56161570911E+01 -0.10430072917E+02  0.15704373328E+02  0.51100000000E-03 0.  1.
        -12    1    3    3    0    0  0.39205395865E+01  0.11711228474E+01 -0.22110831544E+01  0.46509190585E+01  0.00000000000E+00 0.  1.
</event>
<event>
 7    1  0.1538805E-008  0.4614232E+02  0.7816164E-02  0.1320468E+00
        -11   -1    0    0    0    0  0.00000000000E+00  0.00000000000E+00  0.45593999997E+02  0.45594000000E+02  0.51100000000E-03 0.  1.
         11   -1    0    0    0    0 -0.00000000000E+00 -0.00000000000E+00 -0.45593999997E+02  0.45594000000E+02  0.51100000000E-03 0. -1.
    9900012    2    1    2    0    0  0.76340856498E+01  0.44259212433E+02 -0.34577727639E+01  0.46142319393E+02  0.10000014881E+02 0.  0.
        -12    1    1    2    0    0 -0.76340856498E+01 -0.44259212433E+02  0.34577727639E+01  0.45045680607E+02  0.00000000000E+00 0.  1.
         11    1    3    3    0    0  0.30329979561E-01  0.13864323595E+02 -0.38335117637E+01  0.14384582071E+02  0.51100000000E-03 0. -1.
        -11    1    3    3    0    0  0.48575531684E+01  0.14791250251E+02  0.25157231320E+01  0.15770408045E+02  0.51100000000E-03 0.  1.
        -12    1    3    3    0    0  0.27462025018E+01  0.15603638587E+02 -0.21399841323E+01  0.15987329277E+02  0.00000000000E+00 0.  1.
</event>
<event>
 7    1  0.1538805E-008  0.4614232E+02  0.7816164E-02  0.1320468E+00
        -11   -1    0    0    0    0  0.00000000000E+00  0.00000000000E+00  0.45593999997E+02  0.45594000000E+02  0.51100000000E-03 0.  1.
         11   -1    0    0    0    0 -0.00000000000E+00 -0.00000000000E+00 -0.45593999997E+02  0.45594000000E+02  0.51100000000E-03 0. -1.
    9900012    2    1    2    0    0 -0.23993918229E+02 -0.23349413888E+02 -0.30136527143E+02  0.46142317531E+02  0.99999978986E+01 0.  0.
        -12    1    1    2    0    0  0.23993918229E+02  0.23349413888E+02  0.30136527143E+02  0.45045682469E+02  0.00000000000E+00 0.  1.
         11    1    3    3    0    0 -0.59197512454E+01 -0.69249127373E+01 -0.76815372972E+01  0.11916538371E+02  0.51100000000E-03 0. -1.
        -11    1    3    3    0    0 -0.10210798690E+02 -0.10906352960E+02 -0.18642762186E+02  0.23890615876E+02  0.51100000000E-03 0.  1.
        -12    1    3    3    0    0 -0.78633682935E+01 -0.55181481903E+01 -0.38122276603E+01  0.10335163284E+02  0.00000000000E+00 0.  1.
</event>
<event>
 7    1  0.1538805E-008  0.4614232E+02  0.7816164E-02  0.1320468E+00
        -11   -1    0    0    0    0  0.00000000000E+00  0.00000000000E+00  0.45593999997E+02  0.45594000000E+02  0.51100000000E-03 0. -1.
         11   -1    0    0    0    0 -0.00000000000E+00 -0.00000000000E+00 -0.45593999997E+02  0.45594000000E+02  0.51100000000E-03 0.  1.
    9900012    2    1    2    0    0 -0.35398445879E+02  0.20461308917E+02 -0.18904980789E+02  0.46142318389E+02  0.10000005721E+02 0.  0.
        -12    1    1    2    0    0  0.35398445879E+02 -0.20461308917E+02  0.18904980789E+02  0.45045681611E+02  0.00000000000E+00 0.  1.
         11    1    3    3    0    0 -0.32156263274E+02  0.20220094811E+02 -0.15677950621E+02  0.41093498730E+02  0.51100000000E-03 0. -1.
        -11    1    3    3    0    0 -0.20202443629E+01 -0.83203507783E+00 -0.13635443393E+01  0.25754461910E+01  0.51100000000E-03 0.  1.
         12    1    3    3    0    0 -0.12219382416E+01  0.10732491836E+01 -0.18634858290E+01  0.24733734678E+01  0.00000000000E+00 0. -1.
</event>
<event>
 7    1  0.1538805E-008  0.4614232E+02  0.7816164E-02  0.1320468E+00
        -11   -1    0    0    0    0  0.00000000000E+00  0.00000000000E+00  0.45593999997E+02  0.45594000000E+02  0.51100000000E-03 0.  1.
         11   -1    0    0    0    0 -0.00000000000E+00 -0.00000000000E+00 -0.45593999997E+02  0.45594000000E+02  0.51100000000E-03 0. -1.
    9900012    2    1    2    0    0  0.13238847857E+02  0.25775864730E+02 -0.34488421208E+02  0.46142317714E+02  0.99999995693E+01 0.  0.
        -12    1    1    2    0    0 -0.13238847857E+02 -0.25775864730E+02  0.34488421208E+02  0.45045682286E+02  0.00000000000E+00 0.  1.
         11    1    3    3    0    0 -0.94445076694E+00  0.62375366097E+01 -0.85344557828E+01  0.10613000800E+02  0.51100000000E-03 0. -1.
        -11    1    3    3    0    0  0.11388869747E+02  0.15390866827E+02 -0.19095309016E+02  0.27041005204E+02  0.51100000000E-03 0.  1.
         12    1    3    3    0    0  0.27944288775E+01  0.41474612936E+01 -0.68586564099E+01  0.84883117098E+01  0.00000000000E+00 0. -1.
</event>
<event>
 7    1  0.1538805E-008  0.4614232E+02  0.7816164E-02  0.1320468E+00
        -11   -1    0    0    0    0  0.00000000000E+00  0.00000000000E+00  0.45593999997E+02  0.45594000000E+02  0.51100000000E-03 0. -1.
         11   -1    0    0    0    0 -0.00000000000E+00 -0.00000000000E+00 -0.45593999997E+02  0.45594000000E+02  0.51100000000E-03 0.  1.
    9900012    2    1    2    0    0  0.40664462123E+02 -0.15630017902E+02  0.11455024455E+02  0.46142317358E+02  0.99999963256E+01 0.  0.
        -12    1    1    2    0    0 -0.40664462123E+02  0.15630017902E+02 -0.11455024455E+02  0.45045682642E+02  0.00000000000E+00 0.  1.
         11    1    3    3    0    0  0.22475393675E+02 -0.11974653819E+02  0.81929011196E+01  0.26751808985E+02  0.51100000000E-03 0. -1.
        -11    1    3    3    0    0  0.32520481837E+01 -0.22521066600E+01  0.17036230762E+01  0.43069866083E+01  0.51100000000E-03 0.  1.
         12    1    3    3    0    0  0.14937020265E+02 -0.14032574228E+01  0.15585002591E+01  0.15083521765E+02  0.00000000000E+00 0. -1.
</event>
<event>
 7    1  0.1538805E-008  0.4614232E+02  0.7816164E-02  0.1320468E+00
        -11   -1    0    0    0    0  0.00000000000E+00  0.00000000000E+00  0.45593999997E+02  0.45594000000E+02  0.51100000000E-03 0.  1.
         11   -1    0    0    0    0 -0.00000000000E+00 -0.00000000000E+00 -0.45593999997E+02  0.45594000000E+02  0.51100000000E-03 0. -1.
    9900012    2    1    2    0    0 -0.22905614265E+01 -0.41627470659E+02 -0.17059324678E+02  0.46142317148E+02  0.99999944120E+01 0.  0.
        -12    1    1    2    0    0  0.22905614265E+01  0.41627470659E+02  0.17059324678E+02  0.45045682852E+02  0.00000000000E+00 0.  1.
         11    1    3    3    0    0 -0.12047821924E+01 -0.30117334906E+02 -0.13696397693E+02  0.33107350725E+02  0.51100000000E-03 0. -1.
        -11    1    3    3    0    0  0.65079414385E-02  0.24456054239E+00 -0.95593883579E+00  0.98674795723E+00  0.51100000000E-03 0.  1.
        -12    1    3    3    0    0 -0.10922871756E+01 -0.11754696295E+02 -0.24069881493E+01  0.12048218466E+02  0.00000000000E+00 0.  1.
</event>
<event>
 7    1  0.1538805E-008  0.4614232E+02  0.7816164E-02  0.1320468E+00
        -11   -1    0    0    0    0  0.00000000000E+00  0.00000000000E+00  0.45593999997E+02  0.45594000000E+02  0.51100000000E-03 0.  1.
         11   -1    0    0    0    0 -0.00000000000E+00 -0.00000000000E+00 -0.45593999997E+02  0.45594000000E+02  0.51100000000E-03 0. -1.
    9900012    2    1    2    0    0  0.72728786643E+01  0.64580857932E+01 -0.43983086035E+02  0.46142317706E+02  0.99999994985E+01 0.  0.
        -12    1    1    2    0    0 -0.72728786643E+01 -0.64580857932E+01  0.43983086035E+02  0.45045682294E+02  0.00000000000E+00 0.  1.
         11    1    3    3    0    0  0.47348865788E+01  0.99253622080E+00 -0.91755851846E+01  0.10372831957E+02  0.51100000000E-03 0. -1.
        -11    1    3    3    0    0  0.85242032383E+00  0.11655473248E+01 -0.23647402320E+02  0.23691449043E+02  0.51100000000E-03 0.  1.
        -12    1    3    3    0    0  0.16855717616E+01  0.43000022476E+01 -0.11160098530E+02  0.12078036707E+02  0.00000000000E+00 0.  1.
</event>
<event>
 7    1  0.1538805E-008  0.4614232E+02  0.7816164E-02  0.1320468E+00
        -11   -1    0    0    0    0  0.00000000000E+00  0.00000000000E+00  0.45593999997E+02  0.45594000000E+02  0.51100000000E-03 0.  1.
         11   -1    0    0    0    0 -0.00000000000E+00 -0.00000000000E+00 -0.45593999997E+02  0.45594000000E+02  0.51100000000E-03 0. -1.
    9900012    2    1    2    0    0  0.26496536232E+02  0.18704787974E+02 -0.31259846241E+02  0.46142317494E+02  0.99999975609E+01 0.  0.
        -12    1    1    2    0    0 -0.26496536232E+02 -0.18704787974E+02  0.31259846241E+02  0.45045682506E+02  0.00000000000E+00 0.  1.
         11    1    3    3    0    0  0.10267689225E+02  0.78293485247E+01 -0.16747393050E+02  0.21147087615E+02  0.51100000000E-03 0. -1.
        -11    1    3    3    0    0  0.12045490848E+02  0.52907367022E+01 -0.77026476261E+01  0.15245213194E+02  0.51100000000E-03 0.  1.
        -12    1    3    3    0    0  0.41833561592E+01  0.55847027471E+01 -0.68098055647E+01  0.97500166850E+01  0.00000000000E+00 0.  1.
</event>
<event>
 7    1  0.1538805E-008  0.4614232E+02  0.7816164E-02  0.1320468E+00
        -11   -1    0    0    0    0  0.00000000000E+00  0.00000000000E+00  0.45593999997E+02  0.45594000000E+02  0.51100000000E-03 0. -1.
         11   -1    0    0    0    0 -0.00000000000E+00 -0.00000000000E+00 -0.45593999997E+02  0.45594000000E+02  0.51100000000E-03 0.  1.
    9900012    2    1    2    0    0  0.30113536863E+02 -0.22024815793E+01  0.33428096614E+02  0.46142315737E+02  0.99999815411E+01 0.  0.
        -12    1    1    2    0    0 -0.30113536863E+02  0.22024815793E+01 -0.33428096614E+02  0.45045684263E+02  0.00000000000E+00 0.  1.
         11    1    3    3    0    0  0.19603805685E+02 -0.22464758762E+01  0.17433288503E+02  0.26330123423E+02  0.51100000000E-03 0. -1.
        -11    1    3    3    0    0  0.10251080498E+02  0.13655743023E+01  0.14002488138E+02  0.17407444352E+02  0.51100000000E-03 0.  1.
        -12    1    3    3    0    0  0.25865068024E+00 -0.13215800054E+01  0.19923199728E+01  0.24047479616E+01  0.00000000000E+00 0.  1.
</event>
<event>
 7    1  0.1538805E-008  0.4614232E+02  0.7816164E-02  0.1320468E+00
        -11   -1    0    0    0    0  0.00000000000E+00  0.00000000000E+00  0.45593999997E+02  0.45594000000E+02  0.51100000000E-03 0.  1.
         11   -1    0    0    0    0 -0.00000000000E+00 -0.00000000000E+00 -0.45593999997E+02  0.45594000000E+02  0.51100000000E-03 0. -1.
    9900012    2    1    2    0    0  0.11635399727E+02 -0.29727064289E+02 -0.31781012747E+02  0.46142315975E+02  0.99999837133E+01 0.  0.
        -12    1    1    2    0    0 -0.11635399727E+02  0.29727064289E+02  0.31781012747E+02  0.45045684025E+02  0.00000000000E+00 0.  1.
         11    1    3    3    0    0  0.93086181556E+01 -0.18400676821E+02 -0.24953789514E+02  0.32371698917E+02  0.51100000000E-03 0. -1.
        -11    1    3    3    0    0  0.63180343460E+00 -0.89382465784E+01 -0.57676227563E+01  0.10656307991E+02  0.51100000000E-03 0.  1.
        -12    1    3    3    0    0  0.16949781366E+01 -0.23881408900E+01 -0.10596004770E+01  0.31143090670E+01  0.00000000000E+00 0.  1.
</event>
<event>
 7    1  0.1538805E-008  0.4614232E+02  0.7816164E-02  0.1320468E+00
        -11   -1    0    0    0    0  0.00000000000E+00  0.00000000000E+00  0.45593999997E+02  0.45594000000E+02  0.51100000000E-03 0.  1.
         11   -1    0    0    0    0 -0.00000000000E+00 -0.00000000000E+00 -0.45593999997E+02  0.45594000000E+02  0.51100000000E-03 0. -1.
    9900012    2    1    2    0    0  0.32018332252E+02 -0.21909783555E+02 -0.22888888787E+02  0.46142318236E+02  0.10000004331E+02 0.  0.
        -12    1    1    2    0    0 -0.32018332252E+02  0.21909783555E+02  0.22888888787E+02  0.45045681764E+02  0.00000000000E+00 0.  1.
         11    1    3    3    0    0  0.23273275200E+02 -0.17528156883E+02 -0.14923623678E+02  0.32735243488E+02  0.51100000000E-03 0. -1.
        -11    1    3    3    0    0  0.39051698163E+01 -0.11097465848E+01 -0.75884116061E+00  0.41301003553E+01  0.51100000000E-03 0.  1.
         12    1    3    3    0    0  0.48398872362E+01 -0.32718800873E+01 -0.72064239482E+01  0.92769743929E+01  0.00000000000E+00 0. -1.
</event>
<event>
 7    1  0.1538805E-008  0.4614232E+02  0.7816164E-02  0.1320468E+00
        -11   -1    0    0    0    0  0.00000000000E+00  0.00000000000E+00  0.45593999997E+02  0.45594000000E+02  0.51100000000E-03 0. -1.
         11   -1    0    0    0    0 -0.00000000000E+00 -0.00000000000E+00 -0.45593999997E+02  0.45594000000E+02  0.51100000000E-03 0.  1.
    9900012    2    1    2    0    0 -0.47149691008E+01 -0.41090182158E+02  0.17845993395E+02  0.46142317814E+02  0.10000000478E+02 0.  0.
        -12    1    1    2    0    0  0.47149691008E+01  0.41090182158E+02 -0.17845993395E+02  0.45045682186E+02  0.00000000000E+00 0.  1.
         11    1    3    3    0    0  0.22385493847E+01 -0.12746937053E+02  0.51409202754E+01  0.13925680203E+02  0.51100000000E-03 0. -1.
        -11    1    3    3    0    0 -0.38942305771E+00 -0.68860208844E+00  0.14393332533E+01  0.16424078754E+01  0.51100000000E-03 0.  1.
         12    1    3    3    0    0 -0.65640954278E+01 -0.27654643016E+02  0.11265739866E+02  0.30574229735E+02  0.00000000000E+00 0. -1.
</event>
<event>
 7    1  0.1538805E-008  0.4614232E+02  0.7816164E-02  0.1320468E+00
        -11   -1    0    0    0    0  0.00000000000E+00  0.00000000000E+00  0.45593999997E+02  0.45594000000E+02  0.51100000000E-03 0.  1.
         11   -1    0    0    0    0 -0.00000000000E+00 -0.00000000000E+00 -0.45593999997E+02  0.45594000000E+02  0.51100000000E-03 0. -1.
    9900012    2    1    2    0    0  0.21967712769E+02  0.13296907840E+02 -0.37009800161E+02  0.46142317961E+02  0.10000001824E+02 0.  0.
        -12    1    1    2    0    0 -0.21967712769E+02 -0.13296907840E+02  0.37009800161E+02  0.45045682039E+02  0.00000000000E+00 0.  1.
         11    1    3    3    0    0  0.13337943115E+02  0.10847298967E+02 -0.18563120387E+02  0.25301265980E+02  0.51100000000E-03 0.  1.
        -11    1    3    3    0    0  0.70415474520E+01  0.30422214075E+01 -0.12577860247E+02  0.14732313812E+02  0.51100000000E-03 0. -1.
         12    1    3    3    0    0  0.15882222018E+01 -0.59261253468E+00 -0.58688195265E+01  0.61087381687E+01  0.00000000000E+00 0. -1.
</event>
<event>
 7    1  0.1538805E-008  0.4614232E+02  0.7816164E-02  0.1320468E+00
        -11   -1    0    0    0    0  0.00000000000E+00  0.00000000000E+00  0.45593999997E+02  0.45594000000E+02  0.51100000000E-03 0.  1.
         11   -1    0    0    0    0 -0.00000000000E+00 -0.00000000000E+00 -0.45593999997E+02  0.45594000000E+02  0.51100000000E-03 0. -1.
    9900012    2    1    2    0    0  0.81513329360E+01  0.27898547224E+02 -0.34414245832E+02  0.46142317831E+02  0.10000000638E+02 0.  0.
        -12    1    1    2    0    0 -0.81513329360E+01 -0.27898547224E+02  0.34414245832E+02  0.45045682169E+02  0.00000000000E+00 0.  1.
         11    1    3    3    0    0  0.32714569587E+01  0.18005468385E+02 -0.21572011477E+02  0.28288708027E+02  0.51100000000E-03 0. -1.
        -11    1    3    3    0    0 -0.12521919048E+01  0.18784073659E+01 -0.17390763573E+01  0.28496992186E+01  0.51100000000E-03 0.  1.
         12    1    3    3    0    0  0.61320678821E+01  0.80146714734E+01 -0.11103157998E+02  0.15003910586E+02  0.00000000000E+00 0. -1.
</event>
<event>
 7    1  0.1538805E-008  0.4614232E+02  0.7816164E-02  0.1320468E+00
        -11   -1    0    0    0    0  0.00000000000E+00  0.00000000000E+00  0.45593999997E+02  0.45594000000E+02  0.51100000000E-03 0.  1.
         11   -1    0    0    0    0 -0.00000000000E+00 -0.00000000000E+00 -0.45593999997E+02  0.45594000000E+02  0.51100000000E-03 0. -1.
    9900012    2    1    2    0    0  0.16143787569E+02  0.17519664614E+02 -0.38230263855E+02  0.46142316525E+02  0.99999887317E+01 0.  0.
        -12    1    1    2    0    0 -0.16143787569E+02 -0.17519664614E+02  0.38230263855E+02  0.45045683475E+02  0.00000000000E+00 0.  1.
         11    1    3    3    0    0  0.82625493387E+01  0.13357946615E+02 -0.20449574197E+02  0.25785452187E+02  0.51100000000E-03 0. -1.
        -11    1    3    3    0    0  0.78961016597E+01  0.28901346798E+01 -0.13622374354E+02  0.16008447244E+02  0.51100000000E-03 0.  1.
        -12    1    3    3    0    0 -0.14863429087E-01  0.12715833189E+01 -0.41583153040E+01  0.43484170943E+01  0.00000000000E+00 0.  1.
</event>
<event>
 7    1  0.1538805E-008  0.4614232E+02  0.7816164E-02  0.1320468E+00
        -11   -1    0    0    0    0  0.00000000000E+00  0.00000000000E+00  0.45593999997E+02  0.45594000000E+02  0.51100000000E-03 0.  1.
         11   -1    0    0    0    0 -0.00000000000E+00 -0.00000000000E+00 -0.45593999997E+02  0.45594000000E+02  0.51100000000E-03 0. -1.
    9900012    2    1    2    0    0 -0.17369945890E+02  0.24377693827E+02 -0.33661944634E+02  0.46142317709E+02  0.99999995218E+01 0.  0.
        -12    1    1    2    0    0  0.17369945890E+02 -0.24377693827E+02  0.33661944634E+02  0.45045682291E+02  0.00000000000E+00 0.  1.
         11    1    3    3    0    0 -0.58434320202E+01  0.73566083717E+01 -0.85974567539E+01  0.12735055846E+02  0.51100000000E-03 0. -1.
        -11    1    3    3    0    0 -0.82574147269E+01  0.15999347607E+02 -0.23596315660E+02  0.29680804147E+02  0.51100000000E-03 0.  1.
        -12    1    3    3    0    0 -0.32690991432E+01  0.10217378483E+01 -0.14681722203E+01  0.37264577157E+01  0.00000000000E+00 0.  1.
</event>
<event>
 7    1  0.1538805E-008  0.4614232E+02  0.7816164E-02  0.1320468E+00
        -11   -1    0    0    0    0  0.00000000000E+00  0.00000000000E+00  0.45593999997E+02  0.45594000000E+02  0.51100000000E-03 0.  1.
         11   -1    0    0    0    0 -0.00000000000E+00 -0.00000000000E+00 -0.45593999997E+02  0.45594000000E+02  0.51100000000E-03 0. -1.
    9900012    2    1    2    0    0 -0.10495006737E+02 -0.97500976672E+01 -0.42707189092E+02  0.46142316843E+02  0.99999916255E+01 0.  0.
        -12    1    1    2    0    0  0.10495006737E+02  0.97500976672E+01  0.42707189092E+02  0.45045683157E+02  0.00000000000E+00 0.  1.
         11    1    3    3    0    0 -0.48437024383E+01 -0.19776540707E+01 -0.18693940369E+02  0.19412263539E+02  0.51100000000E-03 0. -1.
        -11    1    3    3    0    0 -0.26144843719E+00 -0.21894626218E+01 -0.95853990302E+00  0.24043504038E+01  0.51100000000E-03 0.  1.
        -12    1    3    3    0    0 -0.53898558616E+01 -0.55829809747E+01 -0.23054708820E+02  0.24325702900E+02  0.00000000000E+00 0.  1.
</event>
<event>
 7    1  0.1538805E-008  0.4614233E+02  0.7816164E-02  0.1320468E+00
        -11   -1    0    0    0    0  0.00000000000E+00  0.00000000000E+00  0.45593999997E+02  0.45594000000E+02  0.51100000000E-03 0.  1.
         11   -1    0    0    0    0 -0.00000000000E+00 -0.00000000000E+00 -0.45593999997E+02  0.45594000000E+02  0.51100000000E-03 0. -1.
    9900012    2    1    2    0    0 -0.13136301183E+02 -0.22351492935E+02 -0.36836953963E+02  0.46142325152E+02  0.10000067398E+02 0.  0.
        -12    1    1    2    0    0  0.13136301183E+02  0.22351492935E+02  0.36836953963E+02  0.45045674848E+02  0.00000000000E+00 0.  1.
         11    1    3    3    0    0 -0.67404806835E+01 -0.88737271905E+01 -0.16705940685E+02  0.20081473266E+02  0.51100000000E-03 0. -1.
        -11    1    3    3    0    0 -0.40140326863E+00  0.71659050446E+00 -0.16003765251E+00  0.83680275244E+00  0.51100000000E-03 0.  1.
         12    1    3    3    0    0 -0.59944172309E+01 -0.14194356249E+02 -0.19970975626E+02  0.25224049134E+02  0.00000000000E+00 0. -1.
</event>
<event>
 7    1  0.1538805E-008  0.4614232E+02  0.7816164E-02  0.1320468E+00
        -11   -1    0    0    0    0  0.00000000000E+00  0.00000000000E+00  0.45593999997E+02  0.45594000000E+02  0.51100000000E-03 0.  1.
         11   -1    0    0    0    0 -0.00000000000E+00 -0.00000000000E+00 -0.45593999997E+02  0.45594000000E+02  0.51100000000E-03 0. -1.
    9900012    2    1    2    0    0  0.30938001640E+02 -0.16867396727E+02 -0.28061441676E+02  0.46142317335E+02  0.99999961161E+01 0.  0.
        -12    1    1    2    0    0 -0.30938001640E+02  0.16867396727E+02  0.28061441676E+02  0.45045682665E+02  0.00000000000E+00 0.  1.
         11    1    3    3    0    0  0.22141657222E+02 -0.10752954757E+02 -0.22193246926E+02  0.33142408330E+02  0.51100000000E-03 0. -1.
        -11    1    3    3    0    0  0.46433245696E+01 -0.58065779952E+01 -0.36866480215E+01  0.82986857374E+01  0.51100000000E-03 0.  1.
         12    1    3    3    0    0  0.41530198481E+01 -0.30786397536E+00 -0.21815467289E+01  0.47012232681E+01  0.00000000000E+00 0. -1.
</event>
<event>
 7    1  0.1538805E-008  0.4614232E+02  0.7816164E-02  0.1320468E+00
        -11   -1    0    0    0    0  0.00000000000E+00  0.00000000000E+00  0.45593999997E+02  0.45594000000E+02  0.51100000000E-03 0.  1.
         11   -1    0    0    0    0 -0.00000000000E+00 -0.00000000000E+00 -0.45593999997E+02  0.45594000000E+02  0.51100000000E-03 0. -1.
    9900012    2    1    2    0    0 -0.26500186914E+02 -0.61628901709E+01 -0.35900867002E+02  0.46142319039E+02  0.10000011657E+02 0.  0.
        -12    1    1    2    0    0  0.26500186914E+02  0.61628901709E+01  0.35900867002E+02  0.45045680961E+02  0.00000000000E+00 0.  1.
         11    1    3    3    0    0 -0.10730227825E+02 -0.49210881725E+01 -0.15217286397E+02  0.19259301741E+02  0.51100000000E-03 0. -1.
        -11    1    3    3    0    0 -0.11246049621E+02  0.11090296582E+01 -0.10189644324E+02  0.15216189752E+02  0.51100000000E-03 0.  1.
        -12    1    3    3    0    0 -0.45239094677E+01 -0.23508316566E+01 -0.10493936280E+02  0.11666827547E+02  0.00000000000E+00 0.  1.
</event>
<event>
 7    1  0.1538805E-008  0.4614231E+02  0.7816164E-02  0.1320468E+00
        -11   -1    0    0    0    0  0.00000000000E+00  0.00000000000E+00  0.45593999997E+02  0.45594000000E+02  0.51100000000E-03 0.  1.
         11   -1    0    0    0    0 -0.00000000000E+00 -0.00000000000E+00 -0.45593999997E+02  0.45594000000E+02  0.51100000000E-03 0. -1.
    9900012    2    1    2    0    0 -0.23249127703E+02 -0.29602945910E+02 -0.24743835581E+02  0.46142314915E+02  0.99999740484E+01 0.  0.
        -12    1    1    2    0    0  0.23249127703E+02  0.29602945910E+02  0.24743835581E+02  0.45045685085E+02  0.00000000000E+00 0.  1.
         11    1    3    3    0    0 -0.17264971432E+02 -0.18426710415E+02 -0.12543957989E+02  0.28195279349E+02  0.51100000000E-03 0. -1.
        -11    1    3    3    0    0 -0.23572494424E+01 -0.78383721528E+01 -0.83495027996E+01  0.11692343657E+02  0.51100000000E-03 0.  1.
         12    1    3    3    0    0 -0.36269068280E+01 -0.33378633419E+01 -0.38503747927E+01  0.62546919086E+01  0.00000000000E+00 0. -1.
</event>
<event>
 7    1  0.1538805E-008  0.4614232E+02  0.7816164E-02  0.1320468E+00
        -11   -1    0    0    0    0  0.00000000000E+00  0.00000000000E+00  0.45593999997E+02  0.45594000000E+02  0.51100000000E-03 0.  1.
         11   -1    0    0    0    0 -0.00000000000E+00 -0.00000000000E+00 -0.45593999997E+02  0.45594000000E+02  0.51100000000E-03 0. -1.
    9900012    2    1    2    0    0  0.29768865595E+01  0.53123649385E+00 -0.44944069611E+02  0.46142318087E+02  0.10000002976E+02 0.  0.
        -12    1    1    2    0    0 -0.29768865595E+01 -0.53123649385E+00  0.44944069611E+02  0.45045681913E+02  0.00000000000E+00 0.  1.
         11    1    3    3    0    0 -0.28963030219E+00  0.21436281011E+01 -0.19835239874E+02  0.19952838602E+02  0.51100000000E-03 0. -1.
        -11    1    3    3    0    0  0.27741688049E+01  0.29417292899E+00 -0.34292939821E+01  0.44207021781E+01  0.51100000000E-03 0.  1.
         12    1    3    3    0    0  0.49234805679E+00 -0.19065645363E+01 -0.21679535755E+02  0.21768777308E+02  0.00000000000E+00 0. -1.
</event>
<event>
 7    1  0.1538805E-008  0.4614232E+02  0.7816164E-02  0.1320468E+00
        -11   -1    0    0    0    0  0.00000000000E+00  0.00000000000E+00  0.45593999997E+02  0.45594000000E+02  0.51100000000E-03 0. -1.
         11   -1    0    0    0    0 -0.00000000000E+00 -0.00000000000E+00 -0.45593999997E+02  0.45594000000E+02  0.51100000000E-03 0.  1.
    9900012    2    1    2    0    0 -0.15666764838E+02  0.92553343236E+01  0.41206853811E+02  0.46142317245E+02  0.99999952897E+01 0.  0.
        -12    1    1    2    0    0  0.15666764838E+02 -0.92553343236E+01 -0.41206853811E+02  0.45045682755E+02  0.00000000000E+00 0.  1.
         11    1    3    3    0    0 -0.33115411969E+00  0.33289109335E-01  0.10469964427E+02  0.10475253056E+02  0.51100000000E-03 0. -1.
        -11    1    3    3    0    0 -0.85607410956E+00  0.50164305780E+00  0.74751386248E+00  0.12422905756E+01  0.51100000000E-03 0.  1.
         12    1    3    3    0    0 -0.14479536609E+02  0.87204021565E+01  0.29989375521E+02  0.34424773613E+02  0.00000000000E+00 0. -1.
</event>
<event>
 7    1  0.1538805E-008  0.4614231E+02  0.7816164E-02  0.1320468E+00
        -11   -1    0    0    0    0  0.00000000000E+00  0.00000000000E+00  0.45593999997E+02  0.45594000000E+02  0.51100000000E-03 0. -1.
         11   -1    0    0    0    0 -0.00000000000E+00 -0.00000000000E+00 -0.45593999997E+02  0.45594000000E+02  0.51100000000E-03 0.  1.
    9900012    2    1    2    0    0  0.23645611217E+02 -0.38339951956E+02  0.21697823666E+00  0.46142312911E+02  0.99999557702E+01 0.  0.
        -12    1    1    2    0    0 -0.23645611217E+02  0.38339951956E+02 -0.21697823666E+00  0.45045687089E+02  0.00000000000E+00 0.  1.
         11    1    3    3    0    0  0.22533782393E+01 -0.10300330127E+02  0.19706617745E+01  0.10726510258E+02  0.51100000000E-03 0. -1.
        -11    1    3    3    0    0  0.17340562760E+02 -0.21900680422E+02 -0.40308368156E+00  0.27937383494E+02  0.51100000000E-03 0.  1.
         12    1    3    3    0    0  0.40516702173E+01 -0.61389414067E+01 -0.13505998563E+01  0.74784191589E+01  0.00000000000E+00 0. -1.
</event>
<event>
 7    1  0.1538805E-008  0.4614232E+02  0.7816164E-02  0.1320468E+00
        -11   -1    0    0    0    0  0.00000000000E+00  0.00000000000E+00  0.45593999997E+02  0.45594000000E+02  0.51100000000E-03 0. -1.
         11   -1    0    0    0    0 -0.00000000000E+00 -0.00000000000E+00 -0.45593999997E+02  0.45594000000E+02  0.51100000000E-03 0.  1.
    9900012    2    1    2    0    0  0.90694295305E+01  0.40111863911E+02  0.18381986413E+02  0.46142316490E+02  0.99999884047E+01 0.  0.
        -12    1    1    2    0    0 -0.90694295305E+01 -0.40111863911E+02 -0.18381986413E+02  0.45045683510E+02  0.00000000000E+00 0.  1.
         11    1    3    3    0    0  0.41941537300E+01  0.27324873693E+02  0.11780993147E+02  0.30050481654E+02  0.51100000000E-03 0. -1.
        -11    1    3    3    0    0  0.49370584575E+01  0.11967160588E+02  0.42882787848E+01  0.13637331629E+02  0.51100000000E-03 0.  1.
         12    1    3    3    0    0 -0.61782656894E-01  0.81982962974E+00  0.23127144814E+01  0.24545032066E+01  0.00000000000E+00 0. -1.
</event>
<event>
 7    1  0.1538805E-008  0.4614232E+02  0.7816164E-02  0.1320468E+00
        -11   -1    0    0    0    0  0.00000000000E+00  0.00000000000E+00  0.45593999997E+02  0.45594000000E+02  0.51100000000E-03 0. -1.
         11   -1    0    0    0    0 -0.00000000000E+00 -0.00000000000E+00 -0.45593999997E+02  0.45594000000E+02  0.51100000000E-03 0.  1.
    9900012    2    1    2    0    0  0.42116081738E+02  0.15029126522E+02  0.54290415227E+01  0.46142317890E+02  0.10000001172E+02 0.  0.
        -12    1    1    2    0    0 -0.42116081738E+02 -0.15029126522E+02 -0.54290415227E+01  0.45045682110E+02  0.00000000000E+00 0.  1.
         11    1    3    3    0    0  0.34598352457E+02  0.15776341283E+02  0.57149661313E+01  0.38452565261E+02  0.51100000000E-03 0. -1.
        -11    1    3    3    0    0  0.60341700870E+01 -0.17703228138E+00 -0.61061316695E+00  0.60675693459E+01  0.51100000000E-03 0.  1.
         12    1    3    3    0    0  0.14835591940E+01 -0.57018248028E+00  0.32468855832E+00  0.16221832827E+01  0.00000000000E+00 0. -1.
</event>
<event>
 7    1  0.1538805E-008  0.4614232E+02  0.7816164E-02  0.1320468E+00
        -11   -1    0    0    0    0  0.00000000000E+00  0.00000000000E+00  0.45593999997E+02  0.45594000000E+02  0.51100000000E-03 0.  1.
         11   -1    0    0    0    0 -0.00000000000E+00 -0.00000000000E+00 -0.45593999997E+02  0.45594000000E+02  0.51100000000E-03 0. -1.
    9900012    2    1    2    0    0  0.72806967109E+01  0.36443347736E+02 -0.25455594508E+02  0.46142318403E+02  0.10000005850E+02 0.  0.
        -12    1    1    2    0    0 -0.72806967109E+01 -0.36443347736E+02  0.25455594508E+02  0.45045681597E+02  0.00000000000E+00 0.  1.
         11    1    3    3    0    0  0.17184715234E+01  0.25933435230E+02 -0.18850020339E+02  0.32106377470E+02  0.51100000000E-03 0. -1.
        -11    1    3    3    0    0  0.42416309077E+01  0.65659674805E+01 -0.59537394348E+01  0.98260050494E+01  0.51100000000E-03 0.  1.
         12    1    3    3    0    0  0.13205942798E+01  0.39439450262E+01 -0.65183473338E+00  0.42099358833E+01  0.00000000000E+00 0. -1.
</event>
<event>
 7    1  0.1538805E-008  0.4614232E+02  0.7816164E-02  0.1320468E+00
        -11   -1    0    0    0    0  0.00000000000E+00  0.00000000000E+00  0.45593999997E+02  0.45594000000E+02  0.51100000000E-03 0.  1.
         11   -1    0    0    0    0 -0.00000000000E+00 -0.00000000000E+00 -0.45593999997E+02  0.45594000000E+02  0.51100000000E-03 0. -1.
    9900012    2    1    2    0    0  0.23387654220E+02  0.36351147364E+02 -0.12677743730E+02  0.46142317958E+02  0.10000001796E+02 0.  0.
        -12    1    1    2    0    0 -0.23387654220E+02 -0.36351147364E+02  0.12677743730E+02  0.45045682042E+02  0.00000000000E+00 0.  1.
         11    1    3    3    0    0  0.12864817014E+02  0.23997348164E+02 -0.44269465727E+01  0.27585758861E+02  0.51100000000E-03 0. -1.
        -11    1    3    3    0    0  0.26854398307E+01  0.56400649366E+01 -0.38475781571E+01  0.73366053123E+01  0.51100000000E-03 0.  1.
         12    1    3    3    0    0  0.78373973754E+01  0.67137342624E+01 -0.44032190000E+01  0.11219953785E+02  0.00000000000E+00 0. -1.
</event>
<event>
 7    1  0.1538805E-008  0.4614232E+02  0.7816164E-02  0.1320468E+00
        -11   -1    0    0    0    0  0.00000000000E+00  0.00000000000E+00  0.45593999997E+02  0.45594000000E+02  0.51100000000E-03 0. -1.
         11   -1    0    0    0    0 -0.00000000000E+00 -0.00000000000E+00 -0.45593999997E+02  0.45594000000E+02  0.51100000000E-03 0.  1.
    9900012    2    1    2    0    0  0.44798341981E+02 -0.45749626206E+01 -0.11365623394E+01  0.46142317619E+02  0.99999987039E+01 0.  0.
        -12    1    1    2    0    0 -0.44798341981E+02  0.45749626206E+01  0.11365623394E+01  0.45045682381E+02  0.00000000000E+00 0.  1.
         11    1    3    3    0    0  0.18769393821E+02 -0.50378951533E+01  0.15111080039E+01  0.19492408256E+02  0.51100000000E-03 0. -1.
        -11    1    3    3    0    0  0.14453059584E+02  0.18076667071E+01  0.51459425937E+00  0.14574752066E+02  0.51100000000E-03 0.  1.
         12    1    3    3    0    0  0.11575888576E+02 -0.13447341744E+01 -0.31622646026E+01  0.12075157297E+02  0.00000000000E+00 0. -1.
</event>
<event>
 7    1  0.1538805E-008  0.4614233E+02  0.7816164E-02  0.1320468E+00
        -11   -1    0    0    0    0  0.00000000000E+00  0.00000000000E+00  0.45593999997E+02  0.45594000000E+02  0.51100000000E-03 0.  1.
         11   -1    0    0    0    0 -0.00000000000E+00 -0.00000000000E+00 -0.45593999997E+02  0.45594000000E+02  0.51100000000E-03 0. -1.
    9900012    2    1    2    0    0  0.32172959131E+02 -0.29366578477E+02 -0.11472463021E+02  0.46142327195E+02  0.10000086028E+02 0.  0.
        -12    1    1    2    0    0 -0.32172959131E+02  0.29366578477E+02  0.11472463021E+02  0.45045672805E+02  0.00000000000E+00 0.  1.
         11    1    3    3    0    0 -0.56623998210E-01 -0.21297298514E+01 -0.48957081067E+00  0.21860090020E+01  0.51100000000E-03 0. -1.
        -11    1    3    3    0    0  0.16252313330E+02 -0.15923011120E+02 -0.81846177527E+01  0.24179907769E+02  0.51100000000E-03 0.  1.
         12    1    3    3    0    0  0.15977269799E+02 -0.11313837505E+02 -0.27982744577E+01  0.19776410424E+02  0.00000000000E+00 0. -1.
</event>
<event>
 7    1  0.1538805E-008  0.4614232E+02  0.7816164E-02  0.1320468E+00
        -11   -1    0    0    0    0  0.00000000000E+00  0.00000000000E+00  0.45593999997E+02  0.45594000000E+02  0.51100000000E-03 0. -1.
         11   -1    0    0    0    0 -0.00000000000E+00 -0.00000000000E+00 -0.45593999997E+02  0.45594000000E+02  0.51100000000E-03 0.  1.
    9900012    2    1    2    0    0 -0.25057298906E+02 -0.35497210891E+02 -0.11882476881E+02  0.46142318006E+02  0.10000002230E+02 0.  0.
        -12    1    1    2    0    0  0.25057298906E+02  0.35497210891E+02  0.11882476881E+02  0.45045681994E+02  0.00000000000E+00 0.  1.
         11    1    3    3    0    0 -0.17905179150E+02 -0.21631533638E+02 -0.75108626589E+01  0.29067709681E+02  0.51100000000E-03 0. -1.
        -11    1    3    3    0    0 -0.57592879194E+01 -0.10401553501E+02 -0.81398531187E+00  0.11917394217E+02  0.51100000000E-03 0.  1.
        -12    1    3    3    0    0 -0.13928318366E+01 -0.34641237517E+01 -0.35576289103E+01  0.51572141080E+01  0.00000000000E+00 0.  1.
</event>
<event>
 7    1  0.1538805E-008  0.4614232E+02  0.7816164E-02  0.1320468E+00
        -11   -1    0    0    0    0  0.00000000000E+00  0.00000000000E+00  0.45593999997E+02  0.45594000000E+02  0.51100000000E-03 0. -1.
         11   -1    0    0    0    0 -0.00000000000E+00 -0.00000000000E+00 -0.45593999997E+02  0.45594000000E+02  0.51100000000E-03 0.  1.
    9900012    2    1    2    0    0 -0.34926665959E+02  0.26472035953E+02  0.10415028328E+02  0.46142317659E+02  0.99999990644E+01 0.  0.
        -12    1    1    2    0    0  0.34926665959E+02 -0.26472035953E+02 -0.10415028328E+02  0.45045682341E+02  0.00000000000E+00 0.  1.
         11    1    3    3    0    0 -0.88225538930E+01  0.10404524469E+02  0.43762047527E+01  0.14326295925E+02  0.51100000000E-03 0. -1.
        -11    1    3    3    0    0 -0.82318691773E+01  0.50236082661E+01  0.47952567386E+01  0.10770088097E+02  0.51100000000E-03 0.  1.
        -12    1    3    3    0    0 -0.17872242889E+02  0.11043903218E+02  0.12435668363E+01  0.21045933637E+02  0.00000000000E+00 0.  1.
</event>
<event>
 7    1  0.1538805E-008  0.4614232E+02  0.7816164E-02  0.1320468E+00
        -11   -1    0    0    0    0  0.00000000000E+00  0.00000000000E+00  0.45593999997E+02  0.45594000000E+02  0.51100000000E-03 0.  1.
         11   -1    0    0    0    0 -0.00000000000E+00 -0.00000000000E+00 -0.45593999997E+02  0.45594000000E+02  0.51100000000E-03 0. -1.
    9900012    2    1    2    0    0  0.19009482018E+02  0.36135760122E+02 -0.19025245977E+02  0.46142317070E+02  0.99999936942E+01 0.  0.
        -12    1    1    2    0    0 -0.19009482018E+02 -0.36135760122E+02  0.19025245977E+02  0.45045682930E+02  0.00000000000E+00 0.  1.
         11    1    3    3    0    0  0.66788233142E+01  0.97093698111E+01 -0.46444985117E+01  0.12666882398E+02  0.51100000000E-03 0. -1.
        -11    1    3    3    0    0 -0.34748659639E-01  0.79342017357E+01 -0.29503032327E+01  0.84650489708E+01  0.51100000000E-03 0.  1.
        -12    1    3    3    0    0  0.12365407364E+02  0.18492188575E+02 -0.11430444232E+02  0.25010385701E+02  0.00000000000E+00 0.  1.
</event>
<event>
 7    1  0.1538805E-008  0.4614232E+02  0.7816164E-02  0.1320468E+00
        -11   -1    0    0    0    0  0.00000000000E+00  0.00000000000E+00  0.45593999997E+02  0.45594000000E+02  0.51100000000E-03 0. -1.
         11   -1    0    0    0    0 -0.00000000000E+00 -0.00000000000E+00 -0.45593999997E+02  0.45594000000E+02  0.51100000000E-03 0.  1.
    9900012    2    1    2    0    0 -0.16501816945E+02  0.10761885483E+02  0.40509076319E+02  0.46142318677E+02  0.10000008353E+02 0.  0.
        -12    1    1    2    0    0  0.16501816945E+02 -0.10761885483E+02 -0.40509076319E+02  0.45045681323E+02  0.00000000000E+00 0.  1.
         11    1    3    3    0    0 -0.78929172152E+01  0.81787502266E+01  0.14312477559E+02  0.18276682182E+02  0.51100000000E-03 0. -1.
        -11    1    3    3    0    0 -0.33831376962E+01  0.95800873133E+00  0.61369974772E+01  0.70729159261E+01  0.51100000000E-03 0.  1.
         12    1    3    3    0    0 -0.52257620339E+01  0.16251265251E+01  0.20059601282E+02  0.20792720569E+02  0.00000000000E+00 0. -1.
</event>
<event>
 7    1  0.1538805E-008  0.4614232E+02  0.7816164E-02  0.1320468E+00
        -11   -1    0    0    0    0  0.00000000000E+00  0.00000000000E+00  0.45593999997E+02  0.45594000000E+02  0.51100000000E-03 0. -1.
         11   -1    0    0    0    0 -0.00000000000E+00 -0.00000000000E+00 -0.45593999997E+02  0.45594000000E+02  0.51100000000E-03 0.  1.
    9900012    2    1    2    0    0  0.27437434073E+02 -0.23822407138E+02  0.26623178516E+02  0.46142317580E+02  0.99999983503E+01 0.  0.
        -12    1    1    2    0    0 -0.27437434073E+02  0.23822407138E+02 -0.26623178516E+02  0.45045682420E+02  0.00000000000E+00 0.  1.
         11    1    3    3    0    0  0.56609019500E+01 -0.39355708436E+01  0.16328707172E+01  0.70852519921E+01  0.51100000000E-03 0. -1.
        -11    1    3    3    0    0  0.49846181186E+01 -0.40718183026E+01  0.86812773398E+01  0.10806974534E+02  0.51100000000E-03 0.  1.
        -12    1    3    3    0    0  0.16791914005E+02 -0.15815017992E+02  0.16309030459E+02  0.28250091054E+02  0.00000000000E+00 0.  1.
</event>
<event>
 7    1  0.1538805E-008  0.4614232E+02  0.7816164E-02  0.1320468E+00
        -11   -1    0    0    0    0  0.00000000000E+00  0.00000000000E+00  0.45593999997E+02  0.45594000000E+02  0.51100000000E-03 0.  1.
         11   -1    0    0    0    0 -0.00000000000E+00 -0.00000000000E+00 -0.45593999997E+02  0.45594000000E+02  0.51100000000E-03 0. -1.
    9900012    2    1    2    0    0 -0.10690487324E+01 -0.11194928602E+02 -0.43619309227E+02  0.46142318419E+02  0.10000006004E+02 0.  0.
        -12    1    1    2    0    0  0.10690487324E+01  0.11194928602E+02  0.43619309227E+02  0.45045681581E+02  0.00000000000E+00 0.  1.
         11    1    3    3    0    0  0.16995447552E+01 -0.79032946968E+01 -0.22586987977E+02  0.23990050971E+02  0.51100000000E-03 0. -1.
        -11    1    3    3    0    0 -0.43391090188E+01 -0.15525207457E+01 -0.14230130967E+02  0.14957767726E+02  0.51100000000E-03 0.  1.
        -12    1    3    3    0    0  0.15705155311E+01 -0.17391131598E+01 -0.68021902829E+01  0.71944997228E+01  0.00000000000E+00 0.  1.
</event>
<event>
 7    1  0.1538805E-008  0.4614232E+02  0.7816164E-02  0.1320468E+00
        -11   -1    0    0    0    0  0.00000000000E+00  0.00000000000E+00  0.45593999997E+02  0.45594000000E+02  0.51100000000E-03 0.  1.
         11   -1    0    0    0    0 -0.00000000000E+00 -0.00000000000E+00 -0.45593999997E+02  0.45594000000E+02  0.51100000000E-03 0. -1.
    9900012    2    1    2    0    0  0.34785446783E+02 -0.24514360613E+02 -0.14769299398E+02  0.46142318865E+02  0.10000010068E+02 0.  0.
        -12    1    1    2    0    0 -0.34785446783E+02  0.24514360613E+02  0.14769299398E+02  0.45045681135E+02  0.00000000000E+00 0.  1.
         11    1    3    3    0    0  0.91077361932E+01 -0.87585915075E+01 -0.18854052425E+01  0.12775701036E+02  0.51100000000E-03 0. -1.
        -11    1    3    3    0    0  0.40038920536E+01 -0.76082138630E-01 -0.21228634696E+01  0.45324926520E+01  0.51100000000E-03 0.  1.
        -12    1    3    3    0    0  0.21673818537E+02 -0.15679686967E+02 -0.10761030686E+02  0.28834125178E+02  0.00000000000E+00 0.  1.
</event>
<event>
 7    1  0.1538805E-008  0.4614232E+02  0.7816164E-02  0.1320468E+00
        -11   -1    0    0    0    0  0.00000000000E+00  0.00000000000E+00  0.45593999997E+02  0.45594000000E+02  0.51100000000E-03 0.  1.
         11   -1    0    0    0    0 -0.00000000000E+00 -0.00000000000E+00 -0.45593999997E+02  0.45594000000E+02  0.51100000000E-03 0. -1.
    9900012    2    1    2    0    0 -0.43074117898E+01 -0.31573577158E+02 -0.31838168132E+02  0.46142317400E+02  0.99999967084E+01 0.  0.
        -12    1    1    2    0    0  0.43074117898E+01  0.31573577158E+02  0.31838168132E+02  0.45045682600E+02  0.00000000000E+00 0.  1.
         11    1    3    3    0    0 -0.10442845365E+01 -0.98685794473E+01 -0.14789291271E+02  0.17810180433E+02  0.51100000000E-03 0. -1.
        -11    1    3    3    0    0  0.63047012884E-02 -0.11790518004E+02 -0.11665753649E+02  0.16586324579E+02  0.51100000000E-03 0.  1.
        -12    1    3    3    0    0 -0.32694319546E+01 -0.99144797064E+01 -0.53831232122E+01  0.11745812389E+02  0.00000000000E+00 0.  1.
</event>
<event>
 7    1  0.1538805E-008  0.4614232E+02  0.7816164E-02  0.1320468E+00
        -11   -1    0    0    0    0  0.00000000000E+00  0.00000000000E+00  0.45593999997E+02  0.45594000000E+02  0.51100000000E-03 0.  1.
         11   -1    0    0    0    0 -0.00000000000E+00 -0.00000000000E+00 -0.45593999997E+02  0.45594000000E+02  0.51100000000E-03 0. -1.
    9900012    2    1    2    0    0  0.19908487783E+02 -0.12076914414E+02 -0.38560522098E+02  0.46142316388E+02  0.99999874816E+01 0.  0.
        -12    1    1    2    0    0 -0.19908487783E+02  0.12076914414E+02  0.38560522098E+02  0.45045683612E+02  0.00000000000E+00 0.  1.
         11    1    3    3    0    0  0.77434684833E+01 -0.53460044111E+01 -0.82485954456E+01  0.12513208797E+02  0.51100000000E-03 0.  1.
        -11    1    3    3    0    0  0.12498953739E+02 -0.66283948380E+01 -0.28935480387E+02  0.32209028054E+02  0.51100000000E-03 0. -1.
        -12    1    3    3    0    0 -0.33393443980E+00 -0.10251516457E+00 -0.13764462654E+01  0.14200795367E+01  0.00000000000E+00 0.  1.
</event>
<event>
 7    1  0.1538805E-008  0.4614232E+02  0.7816164E-02  0.1320468E+00
        -11   -1    0    0    0    0  0.00000000000E+00  0.00000000000E+00  0.45593999997E+02  0.45594000000E+02  0.51100000000E-03 0.  1.
         11   -1    0    0    0    0 -0.00000000000E+00 -0.00000000000E+00 -0.45593999997E+02  0.45594000000E+02  0.51100000000E-03 0. -1.
    9900012    2    1    2    0    0 -0.22813361780E+02 -0.24703296336E+01 -0.38762887818E+02  0.46142317897E+02  0.10000001235E+02 0.  0.
        -12    1    1    2    0    0  0.22813361780E+02  0.24703296336E+01  0.38762887818E+02  0.45045682103E+02  0.00000000000E+00 0.  1.
         11    1    3    3    0    0 -0.16354089935E+02 -0.29700247608E+01 -0.26299011710E+02  0.31111337513E+02  0.51100000000E-03 0. -1.
        -11    1    3    3    0    0  0.83549010483E-01 -0.58568858844E+00 -0.50458667372E+01  0.50804313744E+01  0.51100000000E-03 0.  1.
         12    1    3    3    0    0 -0.65428208557E+01  0.10853837156E+01 -0.74180093704E+01  0.99505490089E+01  0.00000000000E+00 0. -1.
</event>
<event>
 7    1  0.1538805E-008  0.4614232E+02  0.7816164E-02  0.1320468E+00
        -11   -1    0    0    0    0  0.00000000000E+00  0.00000000000E+00  0.45593999997E+02  0.45594000000E+02  0.51100000000E-03 0.  1.
         11   -1    0    0    0    0 -0.00000000000E+00 -0.00000000000E+00 -0.45593999997E+02  0.45594000000E+02  0.51100000000E-03 0. -1.
    9900012    2    1    2    0    0  0.18943299574E+02  0.19368474575E+02 -0.35987874501E+02  0.46142317441E+02  0.99999970800E+01 0.  0.
        -12    1    1    2    0    0 -0.18943299574E+02 -0.19368474575E+02  0.35987874501E+02  0.45045682559E+02  0.00000000000E+00 0.  1.
         11    1    3    3    0    0  0.73761536817E+01  0.34220187046E+01 -0.13459907328E+02  0.15725360431E+02  0.51100000000E-03 0. -1.
        -11    1    3    3    0    0  0.86453779987E+01  0.14731084123E+02 -0.20385610786E+02  0.26595498257E+02  0.51100000000E-03 0.  1.
         12    1    3    3    0    0  0.29217678934E+01  0.12153717470E+01 -0.21423563878E+01  0.38214587527E+01  0.00000000000E+00 0. -1.
</event>
<event>
 7    1  0.1538805E-008  0.4614232E+02  0.7816164E-02  0.1320468E+00
        -11   -1    0    0    0    0  0.00000000000E+00  0.00000000000E+00  0.45593999997E+02  0.45594000000E+02  0.51100000000E-03 0.  1.
         11   -1    0    0    0    0 -0.00000000000E+00 -0.00000000000E+00 -0.45593999997E+02  0.45594000000E+02  0.51100000000E-03 0. -1.
    9900012    2    1    2    0    0  0.16186853078E+02 -0.20986776536E+02 -0.36423268910E+02  0.46142317409E+02  0.99999967926E+01 0.  0.
        -12    1    1    2    0    0 -0.16186853078E+02  0.20986776536E+02  0.36423268910E+02  0.45045682591E+02  0.00000000000E+00 0.  1.
         11    1    3    3    0    0  0.16275558466E+02 -0.15643595110E+02 -0.30165413036E+02  0.37677155084E+02  0.51100000000E-03 0. -1.
        -11    1    3    3    0    0 -0.84549001368E+00 -0.33701545503E+01 -0.46754340754E+01  0.58251591490E+01  0.51100000000E-03 0.  1.
        -12    1    3    3    0    0  0.75678462576E+00 -0.19730268753E+01 -0.15824217994E+01  0.26400031765E+01  0.00000000000E+00 0.  1.
</event>
<event>
 7    1  0.1538805E-008  0.4614232E+02  0.7816164E-02  0.1320468E+00
        -11   -1    0    0    0    0  0.00000000000E+00  0.00000000000E+00  0.45593999997E+02  0.45594000000E+02  0.51100000000E-03 0.  1.
         11   -1    0    0    0    0 -0.00000000000E+00 -0.00000000000E+00 -0.45593999997E+02  0.45594000000E+02  0.51100000000E-03 0. -1.
    9900012    2    1    2    0    0 -0.39263016791E+01 -0.79317597690E+01 -0.44167689658E+02  0.46142317992E+02  0.10000002103E+02 0.  0.
        -12    1    1    2    0    0  0.39263016791E+01  0.79317597690E+01  0.44167689658E+02  0.45045682008E+02  0.00000000000E+00 0.  1.
         11    1    3    3    0    0  0.29595528810E+00 -0.71252277733E+01 -0.29751216238E+02  0.30593975358E+02  0.51100000000E-03 0. -1.
        -11    1    3    3    0    0 -0.32146050441E+01  0.49267817527E+00 -0.48359777893E+01  0.58277867852E+01  0.51100000000E-03 0.  1.
        -12    1    3    3    0    0 -0.10076519231E+01 -0.12992101710E+01 -0.95804956306E+01  0.97205558480E+01  0.00000000000E+00 0.  1.
</event>
<event>
 7    1  0.1538805E-008  0.4614232E+02  0.7816164E-02  0.1320468E+00
        -11   -1    0    0    0    0  0.00000000000E+00  0.00000000000E+00  0.45593999997E+02  0.45594000000E+02  0.51100000000E-03 0.  1.
         11   -1    0    0    0    0 -0.00000000000E+00 -0.00000000000E+00 -0.45593999997E+02  0.45594000000E+02  0.51100000000E-03 0. -1.
    9900012    2    1    2    0    0 -0.10487323371E+02 -0.12676789472E+02 -0.41933622196E+02  0.46142316374E+02  0.99999873542E+01 0.  0.
        -12    1    1    2    0    0  0.10487323371E+02  0.12676789472E+02  0.41933622196E+02  0.45045683626E+02  0.00000000000E+00 0.  1.
         11    1    3    3    0    0  0.31005079017E+00  0.13287324422E+00 -0.25961707483E+01  0.26179934314E+01  0.51100000000E-03 0. -1.
        -11    1    3    3    0    0 -0.12019637332E+02 -0.12034391003E+02 -0.37563022118E+02  0.41234438026E+02  0.51100000000E-03 0.  1.
        -12    1    3    3    0    0  0.12222631703E+01 -0.77527171332E+00 -0.17744293297E+01  0.22898849170E+01  0.00000000000E+00 0.  1.
</event>
<event>
 7    1  0.1538805E-008  0.4614232E+02  0.7816164E-02  0.1320468E+00
        -11   -1    0    0    0    0  0.00000000000E+00  0.00000000000E+00  0.45593999997E+02  0.45594000000E+02  0.51100000000E-03 0. -1.
         11   -1    0    0    0    0 -0.00000000000E+00 -0.00000000000E+00 -0.45593999997E+02  0.45594000000E+02  0.51100000000E-03 0.  1.
    9900012    2    1    2    0    0 -0.20300958001E+02 -0.30190756976E+02  0.26561302869E+02  0.46142317492E+02  0.99999975471E+01 0.  0.
        -12    1    1    2    0    0  0.20300958001E+02  0.30190756976E+02 -0.26561302869E+02  0.45045682508E+02  0.00000000000E+00 0.  1.
         11    1    3    3    0    0 -0.12851443979E+02 -0.12869536897E+02  0.12303133933E+02  0.21957952936E+02  0.51100000000E-03 0. -1.
        -11    1    3    3    0    0 -0.19725741669E+01 -0.10736688037E+02  0.70991836512E+01  0.13021748256E+02  0.51100000000E-03 0.  1.
        -12    1    3    3    0    0 -0.54769398550E+01 -0.65845320415E+01  0.71589852841E+01  0.11162616301E+02  0.00000000000E+00 0.  1.
</event>
<event>
 7    1  0.1593578E-008  0.4614232E+02  0.7816164E-02  0.1320468E+00
        -11   -1    0    0    0    0  0.00000000000E+00  0.00000000000E+00  0.45593999997E+02  0.45594000000E+02  0.51100000000E-03 0. -1.
         11   -1    0    0    0    0 -0.00000000000E+00 -0.00000000000E+00 -0.45593999997E+02  0.45594000000E+02  0.51100000000E-03 0.  1.
    9900012    2    1    2    0    0 -0.25998901357E+02 -0.27110556867E+02  0.24863394195E+02  0.46142317230E+02  0.99999951532E+01 0.  0.
        -12    1    1    2    0    0  0.25998901357E+02  0.27110556867E+02 -0.24863394195E+02  0.45045682770E+02  0.00000000000E+00 0.  1.
         11    1    3    3    0    0 -0.12037648429E+02 -0.12574139902E+02  0.16317899677E+02  0.23859753228E+02  0.51100000000E-03 0. -1.
        -11    1    3    3    0    0 -0.97111382119E+01 -0.84567598821E+01  0.36132530381E+01  0.13374550118E+02  0.51100000000E-03 0.  1.
        -12    1    3    3    0    0 -0.42501147161E+01 -0.60796570829E+01  0.49322414792E+01  0.89080138838E+01  0.00000000000E+00 0.  1.
</event>
<event>
 7    1  0.1538805E-008  0.4614232E+02  0.7816164E-02  0.1320468E+00
        -11   -1    0    0    0    0  0.00000000000E+00  0.00000000000E+00  0.45593999997E+02  0.45594000000E+02  0.51100000000E-03 0.  1.
         11   -1    0    0    0    0 -0.00000000000E+00 -0.00000000000E+00 -0.45593999997E+02  0.45594000000E+02  0.51100000000E-03 0. -1.
    9900012    2    1    2    0    0 -0.21825332271E+02 -0.66434162324E+01 -0.38841128726E+02  0.46142318868E+02  0.10000010092E+02 0.  0.
        -12    1    1    2    0    0  0.21825332271E+02  0.66434162324E+01  0.38841128726E+02  0.45045681132E+02  0.00000000000E+00 0.  1.
         11    1    3    3    0    0 -0.29463942369E+00 -0.10199483343E+01  0.19925366256E+00  0.10801894638E+01  0.51100000000E-03 0.  1.
        -11    1    3    3    0    0 -0.12361128648E+02 -0.18175077306E+01 -0.23649533903E+02  0.26746986557E+02  0.51100000000E-03 0. -1.
         12    1    3    3    0    0 -0.91695641990E+01 -0.38059601675E+01 -0.15390848486E+02  0.18315142847E+02  0.00000000000E+00 0. -1.
</event>
<event>
 7    1  0.1538805E-008  0.4614231E+02  0.7816164E-02  0.1320468E+00
        -11   -1    0    0    0    0  0.00000000000E+00  0.00000000000E+00  0.45593999997E+02  0.45594000000E+02  0.51100000000E-03 0.  1.
         11   -1    0    0    0    0 -0.00000000000E+00 -0.00000000000E+00 -0.45593999997E+02  0.45594000000E+02  0.51100000000E-03 0. -1.
    9900012    2    1    2    0    0 -0.69761768481E+01  0.39859979599E+02 -0.19789614175E+02  0.46142313789E+02  0.99999637771E+01 0.  0.
        -12    1    1    2    0    0  0.69761768481E+01 -0.39859979599E+02  0.19789614175E+02  0.45045686211E+02  0.00000000000E+00 0.  1.
         11    1    3    3    0    0 -0.33220701588E+01  0.17769426770E+02 -0.58357727886E+01  0.18995918566E+02  0.51100000000E-03 0. -1.
        -11    1    3    3    0    0 -0.10168261371E+00  0.22433098896E+00  0.59447131948E+00  0.64347506350E+00  0.51100000000E-03 0.  1.
         12    1    3    3    0    0 -0.35524240756E+01  0.21866221840E+02 -0.14548312706E+02  0.26502920159E+02  0.00000000000E+00 0. -1.
</event>
<event>
 7    1  0.1538805E-008  0.4614232E+02  0.7816164E-02  0.1320468E+00
        -11   -1    0    0    0    0  0.00000000000E+00  0.00000000000E+00  0.45593999997E+02  0.45594000000E+02  0.51100000000E-03 0.  1.
         11   -1    0    0    0    0 -0.00000000000E+00 -0.00000000000E+00 -0.45593999997E+02  0.45594000000E+02  0.51100000000E-03 0. -1.
    9900012    2    1    2    0    0 -0.84505296964E+01 -0.20483592866E+02 -0.39218930132E+02  0.46142317526E+02  0.99999978564E+01 0.  0.
        -12    1    1    2    0    0  0.84505296964E+01  0.20483592866E+02  0.39218930132E+02  0.45045682474E+02  0.00000000000E+00 0.  1.
         11    1    3    3    0    0 -0.48047592825E+01 -0.81195024915E+01 -0.15195982478E+02  0.17886584811E+02  0.51100000000E-03 0. -1.
        -11    1    3    3    0    0  0.14669927491E+00 -0.35226329969E+01 -0.16311888280E+01  0.38847446714E+01  0.51100000000E-03 0.  1.
         12    1    3    3    0    0 -0.37924696889E+01 -0.88414573779E+01 -0.22391758826E+02  0.24370988043E+02  0.00000000000E+00 0. -1.
</event>
<event>
 7    1  0.1538805E-008  0.4614232E+02  0.7816164E-02  0.1320468E+00
        -11   -1    0    0    0    0  0.00000000000E+00  0.00000000000E+00  0.45593999997E+02  0.45594000000E+02  0.51100000000E-03 0.  1.
         11   -1    0    0    0    0 -0.00000000000E+00 -0.00000000000E+00 -0.45593999997E+02  0.45594000000E+02  0.51100000000E-03 0. -1.
    9900012    2    1    2    0    0 -0.13018794725E+02 -0.14849491254E+02 -0.40486010968E+02  0.46142317735E+02  0.99999997644E+01 0.  0.
        -12    1    1    2    0    0  0.13018794725E+02  0.14849491254E+02  0.40486010968E+02  0.45045682265E+02  0.00000000000E+00 0.  1.
         11    1    3    3    0    0 -0.16466599564E+01 -0.18464712311E+01 -0.55826467821E+00  0.25362580175E+01  0.51100000000E-03 0. -1.
        -11    1    3    3    0    0 -0.28844298469E+00  0.70683043345E-01 -0.15013292237E+01  0.15304199251E+01  0.51100000000E-03 0.  1.
         12    1    3    3    0    0 -0.11083691783E+02 -0.13073703066E+02 -0.38426417066E+02  0.42075639793E+02  0.00000000000E+00 0. -1.
</event>
<event>
 7    1  0.1538805E-008  0.4614232E+02  0.7816164E-02  0.1320468E+00
        -11   -1    0    0    0    0  0.00000000000E+00  0.00000000000E+00  0.45593999997E+02  0.45594000000E+02  0.51100000000E-03 0.  1.
         11   -1    0    0    0    0 -0.00000000000E+00 -0.00000000000E+00 -0.45593999997E+02  0.45594000000E+02  0.51100000000E-03 0. -1.
    9900012    2    1    2    0    0 -0.18448027922E+02 -0.12596579098E+02 -0.39116618932E+02  0.46142318566E+02  0.10000007341E+02 0.  0.
        -12    1    1    2    0    0  0.18448027922E+02  0.12596579098E+02  0.39116618932E+02  0.45045681434E+02  0.00000000000E+00 0.  1.
         11    1    3    3    0    0 -0.13684090735E+02 -0.13010501844E+02 -0.26483337415E+02  0.32525292595E+02  0.51100000000E-03 0. -1.
        -11    1    3    3    0    0 -0.25904027174E+01  0.68516049500E+00 -0.49630597901E+01  0.56401767600E+01  0.51100000000E-03 0.  1.
         12    1    3    3    0    0 -0.21735344699E+01 -0.27123774869E+00 -0.76702217260E+01  0.79768492109E+01  0.00000000000E+00 0. -1.
</event>
<event>
 7    1  0.1538805E-008  0.4614232E+02  0.7816164E-02  0.1320468E+00
        -11   -1    0    0    0    0  0.00000000000E+00  0.00000000000E+00  0.45593999997E+02  0.45594000000E+02  0.51100000000E-03 0.  1.
         11   -1    0    0    0    0 -0.00000000000E+00 -0.00000000000E+00 -0.45593999997E+02  0.45594000000E+02  0.51100000000E-03 0. -1.
    9900012    2    1    2    0    0  0.17996236040E+02 -0.30479848861E+02 -0.27860864767E+02  0.46142317812E+02  0.10000000464E+02 0.  0.
        -12    1    1    2    0    0 -0.17996236040E+02  0.30479848861E+02  0.27860864767E+02  0.45045682188E+02  0.00000000000E+00 0.  1.
         11    1    3    3    0    0  0.51836719897E+01 -0.15143909404E+02 -0.11883683531E+02  0.19935656043E+02  0.51100000000E-03 0. -1.
        -11    1    3    3    0    0  0.75040247602E+01 -0.11245442196E+02 -0.77061007901E+01  0.15561309310E+02  0.51100000000E-03 0.  1.
         12    1    3    3    0    0  0.53085392899E+01 -0.40904972609E+01 -0.82710804465E+01  0.10645352459E+02  0.00000000000E+00 0. -1.
</event>
<event>
 7    1  0.1538805E-008  0.4614232E+02  0.7816164E-02  0.1320468E+00
        -11   -1    0    0    0    0  0.00000000000E+00  0.00000000000E+00  0.45593999997E+02  0.45594000000E+02  0.51100000000E-03 0.  1.
         11   -1    0    0    0    0 -0.00000000000E+00 -0.00000000000E+00 -0.45593999997E+02  0.45594000000E+02  0.51100000000E-03 0. -1.
    9900012    2    1    2    0    0  0.15867904912E+02 -0.20123012096E+02 -0.37045747831E+02  0.46142318137E+02  0.10000003431E+02 0.  0.
        -12    1    1    2    0    0 -0.15867904912E+02  0.20123012096E+02  0.37045747831E+02  0.45045681863E+02  0.00000000000E+00 0.  1.
         11    1    3    3    0    0  0.11660503381E+02 -0.13453841644E+02 -0.31107952654E+02  0.35842403835E+02  0.51100000000E-03 0. -1.
        -11    1    3    3    0    0  0.41151863129E+01 -0.67033185057E+01 -0.49206792710E+01  0.92780559456E+01  0.51100000000E-03 0.  1.
        -12    1    3    3    0    0  0.92215219016E-01  0.34148053718E-01 -0.10171159059E+01  0.10218583572E+01  0.00000000000E+00 0.  1.
</event>
<event>
 7    1  0.1538805E-008  0.4614232E+02  0.7816164E-02  0.1320468E+00
        -11   -1    0    0    0    0  0.00000000000E+00  0.00000000000E+00  0.45593999997E+02  0.45594000000E+02  0.51100000000E-03 0. -1.
         11   -1    0    0    0    0 -0.00000000000E+00 -0.00000000000E+00 -0.45593999997E+02  0.45594000000E+02  0.51100000000E-03 0.  1.
    9900012    2    1    2    0    0 -0.43942624475E+02 -0.43647808871E+01  0.88942681779E+01  0.46142316917E+02  0.99999923055E+01 0.  0.
        -12    1    1    2    0    0  0.43942624475E+02  0.43647808871E+01 -0.88942681779E+01  0.45045683083E+02  0.00000000000E+00 0.  1.
         11    1    3    3    0    0 -0.23224986530E+02  0.42225490229E+00  0.25237124414E+01  0.23365517825E+02  0.51100000000E-03 0. -1.
        -11    1    3    3    0    0 -0.36918192320E+01 -0.24757018349E+00  0.31605614510E+01  0.48662068579E+01  0.51100000000E-03 0.  1.
         12    1    3    3    0    0 -0.17025818714E+02 -0.45394656059E+01  0.32099942855E+01  0.17910592234E+02  0.00000000000E+00 0. -1.
</event>
<event>
 7    1  0.1538805E-008  0.4614232E+02  0.7816164E-02  0.1320468E+00
        -11   -1    0    0    0    0  0.00000000000E+00  0.00000000000E+00  0.45593999997E+02  0.45594000000E+02  0.51100000000E-03 0. -1.
         11   -1    0    0    0    0 -0.00000000000E+00 -0.00000000000E+00 -0.45593999997E+02  0.45594000000E+02  0.51100000000E-03 0.  1.
    9900012    2    1    2    0    0  0.44112803453E+02 -0.65765554567E+01  0.63184660083E+01  0.46142317378E+02  0.99999965089E+01 0.  0.
        -12    1    1    2    0    0 -0.44112803453E+02  0.65765554567E+01 -0.63184660083E+01  0.45045682622E+02  0.00000000000E+00 0.  1.
         11    1    3    3    0    0  0.39847269280E+01 -0.32282131568E+01  0.20312379961E-01  0.51283351812E+01  0.51100000000E-03 0.  1.
        -11    1    3    3    0    0  0.33099822180E+02 -0.17969759494E+01  0.66456364636E+01  0.33808162257E+02  0.51100000000E-03 0. -1.
        -12    1    3    3    0    0  0.70282543452E+01 -0.15513663505E+01 -0.34748283532E+00  0.72058199405E+01  0.00000000000E+00 0.  1.
</event>
<event>
 7    1  0.1538805E-008  0.4614232E+02  0.7816164E-02  0.1320468E+00
        -11   -1    0    0    0    0  0.00000000000E+00  0.00000000000E+00  0.45593999997E+02  0.45594000000E+02  0.51100000000E-03 0.  1.
         11   -1    0    0    0    0 -0.00000000000E+00 -0.00000000000E+00 -0.45593999997E+02  0.45594000000E+02  0.51100000000E-03 0. -1.
    9900012    2    1    2    0    0  0.38789630908E+02 -0.27137442868E+01 -0.22740131896E+02  0.46142317936E+02  0.10000001592E+02 0.  0.
        -12    1    1    2    0    0 -0.38789630908E+02  0.27137442868E+01  0.22740131896E+02  0.45045682064E+02  0.00000000000E+00 0.  1.
         11    1    3    3    0    0  0.64482881917E+01 -0.33278549061E+01 -0.32200534250E+01  0.79387519926E+01  0.51100000000E-03 0. -1.
        -11    1    3    3    0    0  0.10584710272E+02 -0.11331047208E+01 -0.91566540305E+01  0.14041521682E+02  0.51100000000E-03 0.  1.
         12    1    3    3    0    0  0.21756632444E+02  0.17472153400E+01 -0.10363424440E+02  0.24162044261E+02  0.00000000000E+00 0. -1.
</event>
<event>
 7    1  0.1538805E-008  0.4614232E+02  0.7816164E-02  0.1320468E+00
        -11   -1    0    0    0    0  0.00000000000E+00  0.00000000000E+00  0.45593999997E+02  0.45594000000E+02  0.51100000000E-03 0.  1.
         11   -1    0    0    0    0 -0.00000000000E+00 -0.00000000000E+00 -0.45593999997E+02  0.45594000000E+02  0.51100000000E-03 0. -1.
    9900012    2    1    2    0    0 -0.70054158463E+01  0.38790015860E+02 -0.21803033410E+02  0.46142318215E+02  0.10000004140E+02 0.  0.
        -12    1    1    2    0    0  0.70054158463E+01 -0.38790015860E+02  0.21803033410E+02  0.45045681785E+02  0.00000000000E+00 0.  1.
         11    1    3    3    0    0 -0.42307376084E+01  0.23766631896E+02 -0.89364874124E+01  0.25741265313E+02  0.51100000000E-03 0. -1.
        -11    1    3    3    0    0 -0.19041101102E+01  0.41252374088E+01 -0.58626638971E+01  0.74171454901E+01  0.51100000000E-03 0.  1.
        -12    1    3    3    0    0 -0.87056812777E+00  0.10898146556E+02 -0.70038821001E+01  0.12983907412E+02  0.00000000000E+00 0.  1.
</event>
<event>
 7    1  0.1538805E-008  0.4614232E+02  0.7816164E-02  0.1320468E+00
        -11   -1    0    0    0    0  0.00000000000E+00  0.00000000000E+00  0.45593999997E+02  0.45594000000E+02  0.51100000000E-03 0.  1.
         11   -1    0    0    0    0 -0.00000000000E+00 -0.00000000000E+00 -0.45593999997E+02  0.45594000000E+02  0.51100000000E-03 0. -1.
    9900012    2    1    2    0    0 -0.87460154480E+01  0.20200647882E+02 -0.39300821232E+02  0.46142317514E+02  0.99999977492E+01 0.  0.
        -12    1    1    2    0    0  0.87460154480E+01 -0.20200647882E+02  0.39300821232E+02  0.45045682486E+02  0.00000000000E+00 0.  1.
         11    1    3    3    0    0 -0.84455684673E+01  0.16568405567E+02 -0.27943185406E+02  0.33565775735E+02  0.51100000000E-03 0. -1.
        -11    1    3    3    0    0 -0.31963866770E+00  0.35769216872E+00  0.23222666370E+00  0.53295595494E+00  0.51100000000E-03 0.  1.
         12    1    3    3    0    0  0.19191687042E-01  0.32745501463E+01 -0.11589862490E+02  0.12043585824E+02  0.00000000000E+00 0. -1.
</event>
<event>
 7    1  0.1538805E-008  0.4614232E+02  0.7816164E-02  0.1320468E+00
        -11   -1    0    0    0    0  0.00000000000E+00  0.00000000000E+00  0.45593999997E+02  0.45594000000E+02  0.51100000000E-03 0.  1.
         11   -1    0    0    0    0 -0.00000000000E+00 -0.00000000000E+00 -0.45593999997E+02  0.45594000000E+02  0.51100000000E-03 0. -1.
    9900012    2    1    2    0    0  0.31966379420E+02 -0.24537702756E+01 -0.31642426996E+02  0.46142316656E+02  0.99999899183E+01 0.  0.
        -12    1    1    2    0    0 -0.31966379420E+02  0.24537702756E+01  0.31642426996E+02  0.45045683344E+02  0.00000000000E+00 0.  1.
         11    1    3    3    0    0  0.25001959654E+02 -0.21039952970E+00 -0.25435654299E+02  0.35666717880E+02  0.51100000000E-03 0. -1.
        -11    1    3    3    0    0  0.37353106481E+01  0.85851183267E+00 -0.19617338402E+01  0.43055763988E+01  0.51100000000E-03 0.  1.
         12    1    3    3    0    0  0.32291091176E+01 -0.31018825785E+01 -0.42450388573E+01  0.61700223763E+01  0.00000000000E+00 0. -1.
</event>
<event>
 7    1  0.1538805E-008  0.4614232E+02  0.7816164E-02  0.1320468E+00
        -11   -1    0    0    0    0  0.00000000000E+00  0.00000000000E+00  0.45593999997E+02  0.45594000000E+02  0.51100000000E-03 0. -1.
         11   -1    0    0    0    0 -0.00000000000E+00 -0.00000000000E+00 -0.45593999997E+02  0.45594000000E+02  0.51100000000E-03 0.  1.
    9900012    2    1    2    0    0  0.36048394467E+02  0.53416116222E+01  0.26478178811E+02  0.46142317504E+02  0.99999976598E+01 0.  0.
        -12    1    1    2    0    0 -0.36048394467E+02 -0.53416116222E+01 -0.26478178811E+02  0.45045682496E+02  0.00000000000E+00 0.  1.
         11    1    3    3    0    0  0.90279811374E+01 -0.26654063634E+01  0.58921870698E+01  0.11105255658E+02  0.51100000000E-03 0. -1.
        -11    1    3    3    0    0  0.11361230248E+02  0.47413001346E+01  0.99314339733E+01  0.15817422696E+02  0.51100000000E-03 0.  1.
         12    1    3    3    0    0  0.15659183082E+02  0.32657178511E+01  0.10654557768E+02  0.19219639151E+02  0.00000000000E+00 0. -1.
</event>
<event>
 7    1  0.1538805E-008  0.4614232E+02  0.7816164E-02  0.1320468E+00
        -11   -1    0    0    0    0  0.00000000000E+00  0.00000000000E+00  0.45593999997E+02  0.45594000000E+02  0.51100000000E-03 0.  1.
         11   -1    0    0    0    0 -0.00000000000E+00 -0.00000000000E+00 -0.45593999997E+02  0.45594000000E+02  0.51100000000E-03 0. -1.
    9900012    2    1    2    0    0  0.10403166007E+02 -0.29244943750E+01 -0.43730252146E+02  0.46142317820E+02  0.10000000537E+02 0.  0.
        -12    1    1    2    0    0 -0.10403166007E+02  0.29244943750E+01  0.43730252146E+02  0.45045682180E+02  0.00000000000E+00 0.  1.
         11    1    3    3    0    0  0.53033278364E+00  0.71964864394E+00 -0.50921375914E+00  0.10288080218E+01  0.51100000000E-03 0.  1.
        -11    1    3    3    0    0  0.20671276865E+01 -0.24898002868E+01 -0.25634268338E+02  0.25837721181E+02  0.51100000000E-03 0. -1.
        -12    1    3    3    0    0  0.78057055364E+01 -0.11543427322E+01 -0.17586770049E+02  0.19275788617E+02  0.00000000000E+00 0.  1.
</event>
<event>
 7    1  0.1538805E-008  0.4614232E+02  0.7816164E-02  0.1320468E+00
        -11   -1    0    0    0    0  0.00000000000E+00  0.00000000000E+00  0.45593999997E+02  0.45594000000E+02  0.51100000000E-03 0.  1.
         11   -1    0    0    0    0 -0.00000000000E+00 -0.00000000000E+00 -0.45593999997E+02  0.45594000000E+02  0.51100000000E-03 0. -1.
    9900012    2    1    2    0    0  0.42855251138E+02 -0.93057955305E+01 -0.10292842477E+02  0.46142323328E+02  0.10000050767E+02 0.  0.
        -12    1    1    2    0    0 -0.42855251138E+02  0.93057955305E+01  0.10292842477E+02  0.45045676672E+02  0.00000000000E+00 0.  1.
         11    1    3    3    0    0  0.15211942935E+02 -0.52869033722E+01 -0.32943636289E+01  0.16437986102E+02  0.51100000000E-03 0. -1.
        -11    1    3    3    0    0  0.14942793903E+02 -0.30066895682E+01 -0.74288821732E+01  0.16956283861E+02  0.51100000000E-03 0.  1.
        -12    1    3    3    0    0  0.12700514300E+02 -0.10122025901E+01  0.43040332470E+00  0.12748053365E+02  0.00000000000E+00 0.  1.
</event>
<event>
 7    1  0.1538805E-008  0.4614232E+02  0.7816164E-02  0.1320468E+00
        -11   -1    0    0    0    0  0.00000000000E+00  0.00000000000E+00  0.45593999997E+02  0.45594000000E+02  0.51100000000E-03 0.  1.
         11   -1    0    0    0    0 -0.00000000000E+00 -0.00000000000E+00 -0.45593999997E+02  0.45594000000E+02  0.51100000000E-03 0. -1.
    9900012    2    1    2    0    0 -0.23024242740E+02 -0.22977768949E+02 -0.31161191298E+02  0.46142318046E+02  0.10000002595E+02 0.  0.
        -12    1    1    2    0    0  0.23024242740E+02  0.22977768949E+02  0.31161191298E+02  0.45045681954E+02  0.00000000000E+00 0.  1.
         11    1    3    3    0    0 -0.17993379454E+02 -0.17507467709E+02 -0.26403982067E+02  0.36434096654E+02  0.51100000000E-03 0. -1.
        -11    1    3    3    0    0 -0.29242134806E+01 -0.54827408648E+01 -0.42885294931E+01  0.75500302877E+01  0.51100000000E-03 0.  1.
        -12    1    3    3    0    0 -0.21066498048E+01  0.12439624361E-01 -0.46867973826E+00  0.21581911040E+01  0.00000000000E+00 0.  1.
</event>
<event>
 7    1  0.1538805E-008  0.4614232E+02  0.7816164E-02  0.1320468E+00
        -11   -1    0    0    0    0  0.00000000000E+00  0.00000000000E+00  0.45593999997E+02  0.45594000000E+02  0.51100000000E-03 0.  1.
         11   -1    0    0    0    0 -0.00000000000E+00 -0.00000000000E+00 -0.45593999997E+02  0.45594000000E+02  0.51100000000E-03 0. -1.
    9900012    2    1    2    0    0  0.89575198867E+01  0.28600130665E+02 -0.33628981741E+02  0.46142322632E+02  0.10000044421E+02 0.  0.
        -12    1    1    2    0    0 -0.89575198867E+01 -0.28600130665E+02  0.33628981741E+02  0.45045677368E+02  0.00000000000E+00 0.  1.
         11    1    3    3    0    0  0.17556759419E+01  0.28044699394E+00 -0.42048435527E+01  0.45652774388E+01  0.51100000000E-03 0. -1.
        -11    1    3    3    0    0  0.33742864139E+01  0.96659871044E+01 -0.87287484612E+01  0.13453927511E+02  0.51100000000E-03 0.  1.
         12    1    3    3    0    0  0.38275575310E+01  0.18653696567E+02 -0.20695389727E+02  0.28123117683E+02  0.00000000000E+00 0. -1.
</event>
<event>
 7    1  0.1538805E-008  0.4614232E+02  0.7816164E-02  0.1320468E+00
        -11   -1    0    0    0    0  0.00000000000E+00  0.00000000000E+00  0.45593999997E+02  0.45594000000E+02  0.51100000000E-03 0.  1.
         11   -1    0    0    0    0 -0.00000000000E+00 -0.00000000000E+00 -0.45593999997E+02  0.45594000000E+02  0.51100000000E-03 0. -1.
    9900012    2    1    2    0    0  0.10243765190E+02  0.12796357231E+02 -0.41957504500E+02  0.46142315772E+02  0.99999818631E+01 0.  0.
        -12    1    1    2    0    0 -0.10243765190E+02 -0.12796357231E+02  0.41957504500E+02  0.45045684228E+02  0.00000000000E+00 0.  1.
         11    1    3    3    0    0  0.15169577848E+01  0.29059198804E+01 -0.27303994912E+01  0.42662176357E+01  0.51100000000E-03 0. -1.
        -11    1    3    3    0    0 -0.29865260155E+00  0.83471767828E+00 -0.35430304463E+00  0.95471351064E+00  0.51100000000E-03 0.  1.
         12    1    3    3    0    0  0.90254600067E+01  0.90557196727E+01 -0.38872801965E+02  0.40921384626E+02  0.00000000000E+00 0. -1.
</event>
<event>
 7    1  0.1538805E-008  0.4614232E+02  0.7816164E-02  0.1320468E+00
        -11   -1    0    0    0    0  0.00000000000E+00  0.00000000000E+00  0.45593999997E+02  0.45594000000E+02  0.51100000000E-03 0.  1.
         11   -1    0    0    0    0 -0.00000000000E+00 -0.00000000000E+00 -0.45593999997E+02  0.45594000000E+02  0.51100000000E-03 0. -1.
    9900012    2    1    2    0    0 -0.17657023325E+01 -0.40155516281E+02  0.20335434931E+02  0.46142322002E+02  0.10000038669E+02 0.  0.
        -12    1    1    2    0    0  0.17657023325E+01  0.40155516281E+02 -0.20335434931E+02  0.45045677998E+02  0.00000000000E+00 0.  1.
         11    1    3    3    0    0 -0.41995188333E+01 -0.19424540682E+02  0.12548047024E+02  0.23503238574E+02  0.51100000000E-03 0. -1.
        -11    1    3    3    0    0 -0.63597409133E+00 -0.40763237056E+01  0.34292169478E+00  0.41398639528E+01  0.51100000000E-03 0.  1.
         12    1    3    3    0    0  0.30697905921E+01 -0.16654651894E+02  0.74444662126E+01  0.18499219474E+02  0.00000000000E+00 0. -1.
</event>
<event>
 7    1  0.1538805E-008  0.4614232E+02  0.7816164E-02  0.1320468E+00
        -11   -1    0    0    0    0  0.00000000000E+00  0.00000000000E+00  0.45593999997E+02  0.45594000000E+02  0.51100000000E-03 0.  1.
         11   -1    0    0    0    0 -0.00000000000E+00 -0.00000000000E+00 -0.45593999997E+02  0.45594000000E+02  0.51100000000E-03 0. -1.
    9900012    2    1    2    0    0 -0.32372460124E+01  0.42057344920E+02  0.15805493720E+02  0.46142315909E+02  0.99999831105E+01 0.  0.
        -12    1    1    2    0    0  0.32372460124E+01 -0.42057344920E+02 -0.15805493720E+02  0.45045684091E+02  0.00000000000E+00 0.  1.
         11    1    3    3    0    0  0.14299453458E+01  0.16873760987E+02  0.38558349522E+01  0.17367671605E+02  0.51100000000E-03 0. -1.
        -11    1    3    3    0    0 -0.51287275456E+01  0.14530123541E+02  0.83130068249E+01  0.17508124374E+02  0.51100000000E-03 0.  1.
        -12    1    3    3    0    0  0.46153618739E+00  0.10653460392E+02  0.36366519432E+01  0.11266519930E+02  0.00000000000E+00 0.  1.
</event>
<event>
 7    1  0.1538805E-008  0.4614232E+02  0.7816164E-02  0.1320468E+00
        -11   -1    0    0    0    0  0.00000000000E+00  0.00000000000E+00  0.45593999997E+02  0.45594000000E+02  0.51100000000E-03 0.  1.
         11   -1    0    0    0    0 -0.00000000000E+00 -0.00000000000E+00 -0.45593999997E+02  0.45594000000E+02  0.51100000000E-03 0. -1.
    9900012    2    1    2    0    0 -0.40114012773E+02  0.48160456045E+01 -0.19919469627E+02  0.46142316675E+02  0.99999900924E+01 0.  0.
        -12    1    1    2    0    0  0.40114012773E+02 -0.48160456045E+01  0.19919469627E+02  0.45045683325E+02  0.00000000000E+00 0.  1.
         11    1    3    3    0    0 -0.21803200611E+02 -0.31611968909E-01 -0.80039475395E+01  0.23225928026E+02  0.51100000000E-03 0. -1.
        -11    1    3    3    0    0 -0.55906769040E+00 -0.12108109948E+00 -0.18013487902E+01  0.18899933968E+01  0.51100000000E-03 0.  1.
        -12    1    3    3    0    0 -0.17751744472E+02  0.49687386729E+01 -0.10114173297E+02  0.21026395252E+02  0.00000000000E+00 0.  1.
</event>
<event>
 7    1  0.1538805E-008  0.4614232E+02  0.7816164E-02  0.1320468E+00
        -11   -1    0    0    0    0  0.00000000000E+00  0.00000000000E+00  0.45593999997E+02  0.45594000000E+02  0.51100000000E-03 0.  1.
         11   -1    0    0    0    0 -0.00000000000E+00 -0.00000000000E+00 -0.45593999997E+02  0.45594000000E+02  0.51100000000E-03 0. -1.
    9900012    2    1    2    0    0  0.18625853289E+02  0.25568745384E+02 -0.32069146174E+02  0.46142319990E+02  0.10000020322E+02 0.  0.
        -12    1    1    2    0    0 -0.18625853289E+02 -0.25568745384E+02  0.32069146174E+02  0.45045680010E+02  0.00000000000E+00 0.  1.
         11    1    3    3    0    0  0.40469336525E+01  0.24718739700E+01 -0.76205338448E+01  0.89755428389E+01  0.51100000000E-03 0. -1.
        -11    1    3    3    0    0  0.23815928978E+01  0.63992852068E+01 -0.32814022741E+01  0.75756476314E+01  0.51100000000E-03 0.  1.
         12    1    3    3    0    0  0.12197326738E+02  0.16697586208E+02 -0.21167210055E+02  0.29591129519E+02  0.00000000000E+00 0. -1.
</event>
<event>
 7    1  0.1538805E-008  0.4614232E+02  0.7816164E-02  0.1320468E+00
        -11   -1    0    0    0    0  0.00000000000E+00  0.00000000000E+00  0.45593999997E+02  0.45594000000E+02  0.51100000000E-03 0.  1.
         11   -1    0    0    0    0 -0.00000000000E+00 -0.00000000000E+00 -0.45593999997E+02  0.45594000000E+02  0.51100000000E-03 0. -1.
    9900012    2    1    2    0    0 -0.74642110176E+01  0.43884251178E+02 -0.68972109055E+01  0.46142318011E+02  0.10000002281E+02 0.  0.
        -12    1    1    2    0    0  0.74642110176E+01 -0.43884251178E+02  0.68972109055E+01  0.45045681989E+02  0.00000000000E+00 0.  1.
         11    1    3    3    0    0 -0.20907471856E+01  0.75593484965E+01 -0.62179389556E+00  0.78677570753E+01  0.51100000000E-03 0. -1.
        -11    1    3    3    0    0 -0.65059328781E+01  0.28244445231E+02 -0.77053018746E+01  0.29990790691E+02  0.51100000000E-03 0.  1.
        -12    1    3    3    0    0  0.11324690462E+01  0.80804574500E+01  0.14298848646E+01  0.82837702447E+01  0.00000000000E+00 0.  1.
</event>
<event>
 7    1  0.1538805E-008  0.4614231E+02  0.7816164E-02  0.1320468E+00
        -11   -1    0    0    0    0  0.00000000000E+00  0.00000000000E+00  0.45593999997E+02  0.45594000000E+02  0.51100000000E-03 0.  1.
         11   -1    0    0    0    0 -0.00000000000E+00 -0.00000000000E+00 -0.45593999997E+02  0.45594000000E+02  0.51100000000E-03 0. -1.
    9900012    2    1    2    0    0  0.28282201141E+02 -0.32379612557E+02  0.13445883095E+02  0.46142312272E+02  0.99999499426E+01 0.  0.
        -12    1    1    2    0    0 -0.28282201141E+02  0.32379612557E+02 -0.13445883095E+02  0.45045687728E+02  0.00000000000E+00 0.  1.
         11    1    3    3    0    0  0.21030555940E+02 -0.19707641001E+02  0.61485371757E+01  0.29469983147E+02  0.51100000000E-03 0. -1.
        -11    1    3    3    0    0  0.14554236948E+01 -0.28967458701E+01  0.32984006175E+01  0.46248072027E+01  0.51100000000E-03 0.  1.
        -12    1    3    3    0    0  0.57962215063E+01 -0.97752256852E+01  0.39989453018E+01  0.12047521922E+02  0.00000000000E+00 0.  1.
</event>
<event>
 7    1  0.1538805E-008  0.4614232E+02  0.7816164E-02  0.1320468E+00
        -11   -1    0    0    0    0  0.00000000000E+00  0.00000000000E+00  0.45593999997E+02  0.45594000000E+02  0.51100000000E-03 0. -1.
         11   -1    0    0    0    0 -0.00000000000E+00 -0.00000000000E+00 -0.45593999997E+02  0.45594000000E+02  0.51100000000E-03 0.  1.
    9900012    2    1    2    0    0  0.27611013619E+02 -0.24954772333E+02  0.25377250075E+02  0.46142317004E+02  0.99999930930E+01 0.  0.
        -12    1    1    2    0    0 -0.27611013619E+02  0.24954772333E+02 -0.25377250075E+02  0.45045682996E+02  0.00000000000E+00 0.  1.
         11    1    3    3    0    0  0.55373759711E+01 -0.84108582797E+01  0.65915092577E+01  0.12035491855E+02  0.51100000000E-03 0.  1.
        -11    1    3    3    0    0  0.16551320496E+02 -0.15611816905E+02  0.13812118249E+02  0.26616717454E+02  0.51100000000E-03 0. -1.
         12    1    3    3    0    0  0.55223171525E+01 -0.93209714763E+00  0.49736225676E+01  0.74901076942E+01  0.00000000000E+00 0. -1.
</event>
<event>
 7    1  0.1538805E-008  0.4614232E+02  0.7816164E-02  0.1320468E+00
        -11   -1    0    0    0    0  0.00000000000E+00  0.00000000000E+00  0.45593999997E+02  0.45594000000E+02  0.51100000000E-03 0. -1.
         11   -1    0    0    0    0 -0.00000000000E+00 -0.00000000000E+00 -0.45593999997E+02  0.45594000000E+02  0.51100000000E-03 0.  1.
    9900012    2    1    2    0    0  0.30607352170E+02  0.16336073122E+02  0.28730405173E+02  0.46142317928E+02  0.10000001522E+02 0.  0.
        -12    1    1    2    0    0 -0.30607352170E+02 -0.16336073122E+02 -0.28730405173E+02  0.45045682072E+02  0.00000000000E+00 0.  1.
         11    1    3    3    0    0  0.14169077486E+02  0.64888939532E+01  0.12065703708E+02  0.19709127524E+02  0.51100000000E-03 0. -1.
        -11    1    3    3    0    0  0.56533835868E+01  0.73937486907E+01  0.60339441845E+01  0.11092193127E+02  0.51100000000E-03 0.  1.
        -12    1    3    3    0    0  0.10784891097E+02  0.24534304786E+01  0.10630757280E+02  0.15340997277E+02  0.00000000000E+00 0.  1.
</event>
<event>
 7    1  0.1538805E-008  0.4614231E+02  0.7816164E-02  0.1320468E+00
        -11   -1    0    0    0    0  0.00000000000E+00  0.00000000000E+00  0.45593999997E+02  0.45594000000E+02  0.51100000000E-03 0.  1.
         11   -1    0    0    0    0 -0.00000000000E+00 -0.00000000000E+00 -0.45593999997E+02  0.45594000000E+02  0.51100000000E-03 0. -1.
    9900012    2    1    2    0    0  0.13375122147E+02 -0.29773362892E+02 -0.31044592353E+02  0.46142314916E+02  0.99999740563E+01 0.  0.
        -12    1    1    2    0    0 -0.13375122147E+02  0.29773362892E+02  0.31044592353E+02  0.45045685084E+02  0.00000000000E+00 0.  1.
         11    1    3    3    0    0  0.10609062176E+02 -0.25489465646E+02 -0.23394970265E+02  0.36188253524E+02  0.51100000000E-03 0. -1.
        -11    1    3    3    0    0  0.60176605087E+00 -0.10436359079E+01  0.17070130591E+00  0.12167322981E+01  0.51100000000E-03 0.  1.
         12    1    3    3    0    0  0.21642939198E+01 -0.32402613381E+01 -0.78203233938E+01  0.87373290938E+01  0.00000000000E+00 0. -1.
</event>
<event>
 7    1  0.1538805E-008  0.4614232E+02  0.7816164E-02  0.1320468E+00
        -11   -1    0    0    0    0  0.00000000000E+00  0.00000000000E+00  0.45593999997E+02  0.45594000000E+02  0.51100000000E-03 0. -1.
         11   -1    0    0    0    0 -0.00000000000E+00 -0.00000000000E+00 -0.45593999997E+02  0.45594000000E+02  0.51100000000E-03 0.  1.
    9900012    2    1    2    0    0  0.15012246465E+02 -0.32962061669E+02  0.26781491515E+02  0.46142319395E+02  0.10000014900E+02 0.  0.
        -12    1    1    2    0    0 -0.15012246465E+02  0.32962061669E+02 -0.26781491515E+02  0.45045680605E+02  0.00000000000E+00 0.  1.
         11    1    3    3    0    0  0.53685319202E+01 -0.97544548768E+01  0.59832818256E+01  0.12640023204E+02  0.51100000000E-03 0. -1.
        -11    1    3    3    0    0  0.36484466636E+01 -0.17843587459E+02  0.14057585586E+02  0.23006966102E+02  0.51100000000E-03 0.  1.
        -12    1    3    3    0    0  0.59952678815E+01 -0.53640193324E+01  0.67406241037E+01  0.10495330089E+02  0.00000000000E+00 0.  1.
</event>
<event>
 7    1  0.1538805E-008  0.4614232E+02  0.7816164E-02  0.1320468E+00
        -11   -1    0    0    0    0  0.00000000000E+00  0.00000000000E+00  0.45593999997E+02  0.45594000000E+02  0.51100000000E-03 0.  1.
         11   -1    0    0    0    0 -0.00000000000E+00 -0.00000000000E+00 -0.45593999997E+02  0.45594000000E+02  0.51100000000E-03 0. -1.
    9900012    2    1    2    0    0 -0.39688103751E+02  0.29705892265E+01 -0.21098422969E+02  0.46142318393E+02  0.10000005759E+02 0.  0.
        -12    1    1    2    0    0  0.39688103751E+02 -0.29705892265E+01  0.21098422969E+02  0.45045681607E+02  0.00000000000E+00 0.  1.
         11    1    3    3    0    0 -0.26542150206E+02  0.42265864243E-01 -0.13895922844E+02  0.29959709543E+02  0.51100000000E-03 0. -1.
        -11    1    3    3    0    0  0.29443764139E+00 -0.50802446683E+00 -0.51977352840E+00  0.78418567030E+00  0.51100000000E-03 0.  1.
        -12    1    3    3    0    0 -0.13440391186E+02  0.34363478291E+01 -0.66827265969E+01  0.15398423179E+02  0.00000000000E+00 0.  1.
</event>
<event>
 7    1  0.1538805E-008  0.4614232E+02  0.7816164E-02  0.1320468E+00
        -11   -1    0    0    0    0  0.00000000000E+00  0.00000000000E+00  0.45593999997E+02  0.45594000000E+02  0.51100000000E-03 0.  1.
         11   -1    0    0    0    0 -0.00000000000E+00 -0.00000000000E+00 -0.45593999997E+02  0.45594000000E+02  0.51100000000E-03 0. -1.
    9900012    2    1    2    0    0  0.28044989635E+01  0.60792163422E+01 -0.44545386129E+02  0.46142317508E+02  0.99999976927E+01 0.  0.
        -12    1    1    2    0    0 -0.28044989635E+01 -0.60792163422E+01  0.44545386129E+02  0.45045682492E+02  0.00000000000E+00 0.  1.
         11    1    3    3    0    0 -0.11926065447E+01  0.41080734432E+01 -0.18258772665E+02  0.18753169260E+02  0.51100000000E-03 0. -1.
        -11    1    3    3    0    0  0.29736357537E+00  0.19079913046E+01 -0.18507896147E+01  0.26747482822E+01  0.51100000000E-03 0.  1.
         12    1    3    3    0    0  0.36997419328E+01  0.63151594382E-01 -0.24435823849E+02  0.24714399966E+02  0.00000000000E+00 0. -1.
</event>
<event>
 7    1  0.1538805E-008  0.4614232E+02  0.7816164E-02  0.1320468E+00
        -11   -1    0    0    0    0  0.00000000000E+00  0.00000000000E+00  0.45593999997E+02  0.45594000000E+02  0.51100000000E-03 0.  1.
         11   -1    0    0    0    0 -0.00000000000E+00 -0.00000000000E+00 -0.45593999997E+02  0.45594000000E+02  0.51100000000E-03 0. -1.
    9900012    2    1    2    0    0 -0.32042165378E+02  0.26780846753E+02  0.16887843701E+02  0.46142318966E+02  0.10000010991E+02 0.  0.
        -12    1    1    2    0    0  0.32042165378E+02 -0.26780846753E+02 -0.16887843701E+02  0.45045681034E+02  0.00000000000E+00 0.  1.
         11    1    3    3    0    0 -0.65108415432E+01  0.54670851816E+01  0.70498797293E+01  0.11044495572E+02  0.51100000000E-03 0. -1.
        -11    1    3    3    0    0 -0.24375544620E+02  0.20869754635E+02  0.10407888852E+02  0.33734818581E+02  0.51100000000E-03 0.  1.
        -12    1    3    3    0    0 -0.11557792149E+01  0.44400693613E+00 -0.56992488026E+00  0.13630048137E+01  0.00000000000E+00 0.  1.
</event>
<event>
 7    1  0.1538805E-008  0.4614232E+02  0.7816164E-02  0.1320468E+00
        -11   -1    0    0    0    0  0.00000000000E+00  0.00000000000E+00  0.45593999997E+02  0.45594000000E+02  0.51100000000E-03 0.  1.
         11   -1    0    0    0    0 -0.00000000000E+00 -0.00000000000E+00 -0.45593999997E+02  0.45594000000E+02  0.51100000000E-03 0. -1.
    9900012    2    1    2    0    0  0.21795392784E+02  0.19017641286E+02 -0.34531196652E+02  0.46142319087E+02  0.10000012089E+02 0.  0.
        -12    1    1    2    0    0 -0.21795392784E+02 -0.19017641286E+02  0.34531196652E+02  0.45045680913E+02  0.00000000000E+00 0.  1.
         11    1    3    3    0    0  0.83855382174E+01  0.51910786790E+01 -0.10740417565E+02  0.14581533485E+02  0.51100000000E-03 0. -1.
        -11    1    3    3    0    0  0.33592794475E+01  0.28681437422E+01 -0.11329611403E+02  0.12160226220E+02  0.51100000000E-03 0.  1.
         12    1    3    3    0    0  0.10050575119E+02  0.10958418865E+02 -0.12461167685E+02  0.19400559382E+02  0.00000000000E+00 0. -1.
</event>
<event>
 7    1  0.1538805E-008  0.4614232E+02  0.7816164E-02  0.1320468E+00
        -11   -1    0    0    0    0  0.00000000000E+00  0.00000000000E+00  0.45593999997E+02  0.45594000000E+02  0.51100000000E-03 0. -1.
         11   -1    0    0    0    0 -0.00000000000E+00 -0.00000000000E+00 -0.45593999997E+02  0.45594000000E+02  0.51100000000E-03 0.  1.
    9900012    2    1    2    0    0  0.29783174845E+02 -0.75451387187E+01  0.32941567553E+02  0.46142317688E+02  0.99999993290E+01 0.  0.
        -12    1    1    2    0    0 -0.29783174845E+02  0.75451387187E+01 -0.32941567553E+02  0.45045682312E+02  0.00000000000E+00 0.  1.
         11    1    3    3    0    0  0.98532435635E+01 -0.35348847032E+01  0.56323164468E+01  0.11887169865E+02  0.51100000000E-03 0. -1.
        -11    1    3    3    0    0  0.17772329341E+02 -0.42173966130E+01  0.25810212819E+02  0.31619759810E+02  0.51100000000E-03 0.  1.
        -12    1    3    3    0    0  0.21576019407E+01  0.20714259749E+00  0.14990382870E+01  0.26353880124E+01  0.00000000000E+00 0.  1.
</event>
<event>
 7    1  0.1941654E-008  0.4614232E+02  0.7816164E-02  0.1320468E+00
        -11   -1    0    0    0    0  0.00000000000E+00  0.00000000000E+00  0.45593999997E+02  0.45594000000E+02  0.51100000000E-03 0. -1.
         11   -1    0    0    0    0 -0.00000000000E+00 -0.00000000000E+00 -0.45593999997E+02  0.45594000000E+02  0.51100000000E-03 0.  1.
    9900012    2    1    2    0    0 -0.24279862758E+02 -0.21371629233E+02  0.31350521195E+02  0.46142318178E+02  0.10000003800E+02 0.  0.
        -12    1    1    2    0    0  0.24279862758E+02  0.21371629233E+02 -0.31350521195E+02  0.45045681822E+02  0.00000000000E+00 0.  1.
         11    1    3    3    0    0 -0.24999796459E+02 -0.21214544529E+02  0.29398994025E+02  0.44038024167E+02  0.51100000000E-03 0. -1.
        -11    1    3    3    0    0  0.30856473414E+00 -0.16667283688E+00  0.11648824341E+01  0.12165292336E+01  0.51100000000E-03 0.  1.
         12    1    3    3    0    0  0.41136896714E+00  0.95881326961E-02  0.78664473603E+00  0.88776477749E+00  0.00000000000E+00 0. -1.
</event>
<event>
 7    1  0.1538805E-008  0.4614232E+02  0.7816164E-02  0.1320468E+00
        -11   -1    0    0    0    0  0.00000000000E+00  0.00000000000E+00  0.45593999997E+02  0.45594000000E+02  0.51100000000E-03 0. -1.
         11   -1    0    0    0    0 -0.00000000000E+00 -0.00000000000E+00 -0.45593999997E+02  0.45594000000E+02  0.51100000000E-03 0.  1.
    9900012    2    1    2    0    0  0.72391094552E+01 -0.42623879645E+02  0.12645697064E+02  0.46142317899E+02  0.10000001258E+02 0.  0.
        -12    1    1    2    0    0 -0.72391094552E+01  0.42623879645E+02 -0.12645697064E+02  0.45045682101E+02  0.00000000000E+00 0.  1.
         11    1    3    3    0    0  0.19219898498E+01 -0.76871495036E+01  0.91403406908E+00  0.79763256587E+01  0.51100000000E-03 0. -1.
        -11    1    3    3    0    0 -0.13526139495E+01 -0.84783435707E+01  0.54399365749E+01  0.10163896123E+02  0.51100000000E-03 0.  1.
        -12    1    3    3    0    0  0.66697335550E+01 -0.26458386571E+02  0.62917264201E+01  0.28002096117E+02  0.00000000000E+00 0.  1.
</event>
<event>
 7    1  0.1538805E-008  0.4614232E+02  0.7816164E-02  0.1320468E+00
        -11   -1    0    0    0    0  0.00000000000E+00  0.00000000000E+00  0.45593999997E+02  0.45594000000E+02  0.51100000000E-03 0.  1.
         11   -1    0    0    0    0 -0.00000000000E+00 -0.00000000000E+00 -0.45593999997E+02  0.45594000000E+02  0.51100000000E-03 0. -1.
    9900012    2    1    2    0    0  0.25470199157E+02  0.15576758914E+02 -0.33730506762E+02  0.46142317079E+02  0.99999937807E+01 0.  0.
        -12    1    1    2    0    0 -0.25470199157E+02 -0.15576758914E+02  0.33730506762E+02  0.45045682921E+02  0.00000000000E+00 0.  1.
         11    1    3    3    0    0  0.32433951378E+01  0.60101823736E+01 -0.57737924243E+01  0.89430746057E+01  0.51100000000E-03 0. -1.
        -11    1    3    3    0    0  0.15403376876E+02  0.46123170822E+01 -0.17477964784E+02  0.23749036639E+02  0.51100000000E-03 0.  1.
         12    1    3    3    0    0  0.68234271440E+01  0.49542594581E+01 -0.10478749554E+02  0.13450205834E+02  0.00000000000E+00 0. -1.
</event>
<event>
 7    1  0.1538805E-008  0.4614232E+02  0.7816164E-02  0.1320468E+00
        -11   -1    0    0    0    0  0.00000000000E+00  0.00000000000E+00  0.45593999997E+02  0.45594000000E+02  0.51100000000E-03 0.  1.
         11   -1    0    0    0    0 -0.00000000000E+00 -0.00000000000E+00 -0.45593999997E+02  0.45594000000E+02  0.51100000000E-03 0. -1.
    9900012    2    1    2    0    0 -0.10513486709E+02  0.19653754633E+01 -0.43757484736E+02  0.46142316812E+02  0.99999913427E+01 0.  0.
        -12    1    1    2    0    0  0.10513486709E+02 -0.19653754633E+01  0.43757484736E+02  0.45045683188E+02  0.00000000000E+00 0.  1.
         11    1    3    3    0    0 -0.87259903374E+01 -0.19921350285E+01 -0.34971539408E+02  0.36098754524E+02  0.51100000000E-03 0. -1.
        -11    1    3    3    0    0 -0.68852451121E+00  0.36572675796E+01 -0.65195435473E+01  0.75069381560E+01  0.51100000000E-03 0.  1.
         12    1    3    3    0    0 -0.10989718601E+01  0.30024291220E+00 -0.22664017803E+01  0.25366241317E+01  0.00000000000E+00 0. -1.
</event>
<event>
 7    1  0.1538805E-008  0.4614232E+02  0.7816164E-02  0.1320468E+00
        -11   -1    0    0    0    0  0.00000000000E+00  0.00000000000E+00  0.45593999997E+02  0.45594000000E+02  0.51100000000E-03 0. -1.
         11   -1    0    0    0    0 -0.00000000000E+00 -0.00000000000E+00 -0.45593999997E+02  0.45594000000E+02  0.51100000000E-03 0.  1.
    9900012    2    1    2    0    0 -0.22970400470E+01 -0.41623155421E+02  0.17068977696E+02  0.46142318078E+02  0.10000002890E+02 0.  0.
        -12    1    1    2    0    0  0.22970400470E+01  0.41623155421E+02 -0.17068977696E+02  0.45045681922E+02  0.00000000000E+00 0.  1.
         11    1    3    3    0    0 -0.54254576681E+01 -0.25265332033E+02  0.76604921619E+01  0.26952842783E+02  0.51100000000E-03 0. -1.
        -11    1    3    3    0    0  0.13636954642E+01 -0.99062364521E+01  0.50127377548E+01  0.11185737616E+02  0.51100000000E-03 0.  1.
         12    1    3    3    0    0  0.17647221569E+01 -0.64515869358E+01  0.43957477798E+01  0.80037376785E+01  0.00000000000E+00 0. -1.
</event>
<event>
 7    1  0.1538805E-008  0.4614232E+02  0.7816164E-02  0.1320468E+00
        -11   -1    0    0    0    0  0.00000000000E+00  0.00000000000E+00  0.45593999997E+02  0.45594000000E+02  0.51100000000E-03 0. -1.
         11   -1    0    0    0    0 -0.00000000000E+00 -0.00000000000E+00 -0.45593999997E+02  0.45594000000E+02  0.51100000000E-03 0.  1.
    9900012    2    1    2    0    0 -0.37404376323E+02 -0.18164214239E+02  0.17323035549E+02  0.46142316438E+02  0.99999879306E+01 0.  0.
        -12    1    1    2    0    0  0.37404376323E+02  0.18164214239E+02 -0.17323035549E+02  0.45045683562E+02  0.00000000000E+00 0.  1.
         11    1    3    3    0    0 -0.29498516481E+02 -0.14231527709E+02  0.12952930024E+02  0.35220409593E+02  0.51100000000E-03 0. -1.
        -11    1    3    3    0    0 -0.13402114042E+01 -0.31175920136E+01  0.14827960588E+01  0.37032730097E+01  0.51100000000E-03 0.  1.
        -12    1    3    3    0    0 -0.65656484377E+01 -0.81509451633E+00  0.28873094666E+01  0.72186338344E+01  0.00000000000E+00 0.  1.
</event>
<event>
 7    1  0.1538805E-008  0.4614232E+02  0.7816164E-02  0.1320468E+00
        -11   -1    0    0    0    0  0.00000000000E+00  0.00000000000E+00  0.45593999997E+02  0.45594000000E+02  0.51100000000E-03 0.  1.
         11   -1    0    0    0    0 -0.00000000000E+00 -0.00000000000E+00 -0.45593999997E+02  0.45594000000E+02  0.51100000000E-03 0. -1.
    9900012    2    1    2    0    0 -0.26127732653E+02 -0.15246365144E+02 -0.33376688962E+02  0.46142318412E+02  0.10000005932E+02 0.  0.
        -12    1    1    2    0    0  0.26127732653E+02  0.15246365144E+02  0.33376688962E+02  0.45045681588E+02  0.00000000000E+00 0.  1.
         11    1    3    3    0    0 -0.58349152500E+01 -0.83354826629E+01 -0.11761807593E+02  0.15552061771E+02  0.51100000000E-03 0. -1.
        -11    1    3    3    0    0 -0.19791180089E+02 -0.66584932184E+01 -0.21578357687E+02  0.30027518412E+02  0.51100000000E-03 0.  1.
         12    1    3    3    0    0 -0.50163731389E+00 -0.25238926301E+00 -0.36523681533E-01  0.56273822874E+00  0.00000000000E+00 0. -1.
</event>
<event>
 7    1  0.1538805E-008  0.4614232E+02  0.7816164E-02  0.1320468E+00
        -11   -1    0    0    0    0  0.00000000000E+00  0.00000000000E+00  0.45593999997E+02  0.45594000000E+02  0.51100000000E-03 0.  1.
         11   -1    0    0    0    0 -0.00000000000E+00 -0.00000000000E+00 -0.45593999997E+02  0.45594000000E+02  0.51100000000E-03 0. -1.
    9900012    2    1    2    0    0 -0.29372626821E+02  0.10896298324E+02 -0.32367157340E+02  0.46142318766E+02  0.10000009166E+02 0.  0.
        -12    1    1    2    0    0  0.29372626821E+02 -0.10896298324E+02  0.32367157340E+02  0.45045681234E+02  0.00000000000E+00 0.  1.
         11    1    3    3    0    0 -0.24388846528E+02  0.65027939498E+01 -0.22086041537E+02  0.33539460269E+02  0.51100000000E-03 0. -1.
        -11    1    3    3    0    0 -0.30752804031E+01  0.44149676197E+01 -0.75819439028E+01  0.92970512662E+01  0.51100000000E-03 0.  1.
        -12    1    3    3    0    0 -0.19084998905E+01 -0.21463245033E-01 -0.26991718997E+01  0.33058072308E+01  0.00000000000E+00 0.  1.
</event>
<event>
 7    1  0.1538805E-008  0.4614232E+02  0.7816164E-02  0.1320468E+00
        -11   -1    0    0    0    0  0.00000000000E+00  0.00000000000E+00  0.45593999997E+02  0.45594000000E+02  0.51100000000E-03 0.  1.
         11   -1    0    0    0    0 -0.00000000000E+00 -0.00000000000E+00 -0.45593999997E+02  0.45594000000E+02  0.51100000000E-03 0. -1.
    9900012    2    1    2    0    0 -0.56322602831E+01  0.39467116138E+02 -0.20969928415E+02  0.46142317522E+02  0.99999978213E+01 0.  0.
        -12    1    1    2    0    0  0.56322602831E+01 -0.39467116138E+02  0.20969928415E+02  0.45045682478E+02  0.00000000000E+00 0.  1.
         11    1    3    3    0    0 -0.26136883625E+01  0.24250260130E+01 -0.29424081717E+01  0.46227572000E+01  0.51100000000E-03 0.  1.
        -11    1    3    3    0    0  0.30382835703E+00  0.12977736475E+02 -0.46631471332E+01  0.13793436741E+02  0.51100000000E-03 0. -1.
        -12    1    3    3    0    0 -0.33224002777E+01  0.24064353651E+02 -0.13364373110E+02  0.27726123582E+02  0.00000000000E+00 0.  1.
</event>
<event>
 7    1  0.1538805E-008  0.4614232E+02  0.7816164E-02  0.1320468E+00
        -11   -1    0    0    0    0  0.00000000000E+00  0.00000000000E+00  0.45593999997E+02  0.45594000000E+02  0.51100000000E-03 0. -1.
         11   -1    0    0    0    0 -0.00000000000E+00 -0.00000000000E+00 -0.45593999997E+02  0.45594000000E+02  0.51100000000E-03 0.  1.
    9900012    2    1    2    0    0  0.95618037533E+01 -0.25397824417E+02  0.35953245552E+02  0.46142318277E+02  0.10000004707E+02 0.  0.
        -12    1    1    2    0    0 -0.95618037533E+01  0.25397824417E+02 -0.35953245552E+02  0.45045681723E+02  0.00000000000E+00 0.  1.
         11    1    3    3    0    0 -0.76495270257E-02 -0.11189655465E+01  0.51106230195E+01  0.52316928731E+01  0.51100000000E-03 0. -1.
        -11    1    3    3    0    0  0.73554126340E+01 -0.15435156906E+02  0.24199276218E+02  0.29630240186E+02  0.51100000000E-03 0.  1.
         12    1    3    3    0    0  0.22140406463E+01 -0.88437019646E+01  0.66433463141E+01  0.11280385218E+02  0.00000000000E+00 0. -1.
</event>
<event>
 7    1  0.1538805E-008  0.4614232E+02  0.7816164E-02  0.1320468E+00
        -11   -1    0    0    0    0  0.00000000000E+00  0.00000000000E+00  0.45593999997E+02  0.45594000000E+02  0.51100000000E-03 0. -1.
         11   -1    0    0    0    0 -0.00000000000E+00 -0.00000000000E+00 -0.45593999997E+02  0.45594000000E+02  0.51100000000E-03 0.  1.
    9900012    2    1    2    0    0  0.42784243628E+02 -0.83458252422E+01 -0.11356462572E+02  0.46142317145E+02  0.99999943775E+01 0.  0.
        -12    1    1    2    0    0 -0.42784243628E+02  0.83458252422E+01  0.11356462572E+02  0.45045682855E+02  0.00000000000E+00 0.  1.
         11    1    3    3    0    0  0.37170304792E+02 -0.96093783027E+01 -0.10757517594E+02  0.39870990642E+02  0.51100000000E-03 0.  1.
        -11    1    3    3    0    0  0.17100156815E+01 -0.59380724163E-01  0.83906679719E+00  0.19057053951E+01  0.51100000000E-03 0. -1.
        -12    1    3    3    0    0  0.39039231542E+01  0.13229337847E+01 -0.14380117749E+01  0.43656211079E+01  0.00000000000E+00 0.  1.
</event>
<event>
 7    1  0.1538805E-008  0.4614232E+02  0.7816164E-02  0.1320468E+00
        -11   -1    0    0    0    0  0.00000000000E+00  0.00000000000E+00  0.45593999997E+02  0.45594000000E+02  0.51100000000E-03 0.  1.
         11   -1    0    0    0    0 -0.00000000000E+00 -0.00000000000E+00 -0.45593999997E+02  0.45594000000E+02  0.51100000000E-03 0. -1.
    9900012    2    1    2    0    0 -0.26929128390E+02  0.27522393516E+02 -0.23376344696E+02  0.46142316610E+02  0.99999895059E+01 0.  0.
        -12    1    1    2    0    0  0.26929128390E+02 -0.27522393516E+02  0.23376344696E+02  0.45045683390E+02  0.00000000000E+00 0.  1.
         11    1    3    3    0    0 -0.36468983583E+00  0.29698797042E+01 -0.16987332671E+01  0.34407672266E+01  0.51100000000E-03 0. -1.
        -11    1    3    3    0    0 -0.56182704577E+01  0.28394424918E+01 -0.17113554464E+01  0.65235062907E+01  0.51100000000E-03 0.  1.
         12    1    3    3    0    0 -0.20946168097E+02  0.21713071320E+02 -0.19966255982E+02  0.36178043093E+02  0.00000000000E+00 0. -1.
</event>
<event>
 7    1  0.1538805E-008  0.4614232E+02  0.7816164E-02  0.1320468E+00
        -11   -1    0    0    0    0  0.00000000000E+00  0.00000000000E+00  0.45593999997E+02  0.45594000000E+02  0.51100000000E-03 0.  1.
         11   -1    0    0    0    0 -0.00000000000E+00 -0.00000000000E+00 -0.45593999997E+02  0.45594000000E+02  0.51100000000E-03 0. -1.
    9900012    2    1    2    0    0 -0.13301578927E+02  0.85838526697E+01 -0.42172254004E+02  0.46142317228E+02  0.99999951359E+01 0.  0.
        -12    1    1    2    0    0  0.13301578927E+02 -0.85838526697E+01  0.42172254004E+02  0.45045682772E+02  0.00000000000E+00 0.  1.
         11    1    3    3    0    0 -0.25063454336E+01  0.12059277679E+01 -0.39156963044E+01  0.48029893840E+01  0.51100000000E-03 0. -1.
        -11    1    3    3    0    0 -0.70514500920E+01  0.15388214620E+01 -0.28293754910E+02  0.29199785736E+02  0.51100000000E-03 0.  1.
        -12    1    3    3    0    0 -0.37437834018E+01  0.58391034398E+01 -0.99628027903E+01  0.12139542107E+02  0.00000000000E+00 0.  1.
</event>
<event>
 7    1  0.1538805E-008  0.4614232E+02  0.7816164E-02  0.1320468E+00
        -11   -1    0    0    0    0  0.00000000000E+00  0.00000000000E+00  0.45593999997E+02  0.45594000000E+02  0.51100000000E-03 0. -1.
         11   -1    0    0    0    0 -0.00000000000E+00 -0.00000000000E+00 -0.45593999997E+02  0.45594000000E+02  0.51100000000E-03 0.  1.
    9900012    2    1    2    0    0  0.28281402979E+02  0.43556390333E+00  0.35058322201E+02  0.46142318454E+02  0.10000006321E+02 0.  0.
        -12    1    1    2    0    0 -0.28281402979E+02 -0.43556390333E+00 -0.35058322201E+02  0.45045681546E+02  0.00000000000E+00 0.  1.
         11    1    3    3    0    0  0.20378334492E+02  0.38766836991E-01  0.18865546283E+02  0.27770251283E+02  0.51100000000E-03 0. -1.
        -11    1    3    3    0    0  0.54613551099E+01  0.19009345706E+01  0.11507944435E+02  0.12879159028E+02  0.51100000000E-03 0.  1.
         12    1    3    3    0    0  0.24417133777E+01 -0.15041375043E+01  0.46848314830E+01  0.54929081436E+01  0.00000000000E+00 0. -1.
</event>
<event>
 7    1  0.1538805E-008  0.4614232E+02  0.7816164E-02  0.1320468E+00
        -11   -1    0    0    0    0  0.00000000000E+00  0.00000000000E+00  0.45593999997E+02  0.45594000000E+02  0.51100000000E-03 0.  1.
         11   -1    0    0    0    0 -0.00000000000E+00 -0.00000000000E+00 -0.45593999997E+02  0.45594000000E+02  0.51100000000E-03 0. -1.
    9900012    2    1    2    0    0 -0.66071764637E+01 -0.17727321810E+01 -0.44523209162E+02  0.46142317473E+02  0.99999973734E+01 0.  0.
        -12    1    1    2    0    0  0.66071764637E+01  0.17727321810E+01  0.44523209162E+02  0.45045682527E+02  0.00000000000E+00 0.  1.
         11    1    3    3    0    0 -0.38405048968E+01  0.48571576163E+00 -0.39451248947E+02  0.39640716964E+02  0.51100000000E-03 0. -1.
        -11    1    3    3    0    0 -0.21146158777E+01 -0.47443499866E+00 -0.26289979309E+01  0.34070983637E+01  0.51100000000E-03 0.  1.
         12    1    3    3    0    0 -0.65205568912E+00 -0.17840129440E+01 -0.24429622846E+01  0.30945021457E+01  0.00000000000E+00 0. -1.
</event>
<event>
 7    1  0.1538805E-008  0.4614232E+02  0.7816164E-02  0.1320468E+00
        -11   -1    0    0    0    0  0.00000000000E+00  0.00000000000E+00  0.45593999997E+02  0.45594000000E+02  0.51100000000E-03 0.  1.
         11   -1    0    0    0    0 -0.00000000000E+00 -0.00000000000E+00 -0.45593999997E+02  0.45594000000E+02  0.51100000000E-03 0. -1.
    9900012    2    1    2    0    0  0.13573634886E+02 -0.17649775864E+02 -0.39158081283E+02  0.46142317833E+02  0.10000000659E+02 0.  0.
        -12    1    1    2    0    0 -0.13573634886E+02  0.17649775864E+02  0.39158081283E+02  0.45045682167E+02  0.00000000000E+00 0.  1.
         11    1    3    3    0    0  0.20384820226E+01 -0.79130154441E+01 -0.18601601962E+02  0.20317254200E+02  0.51100000000E-03 0. -1.
        -11    1    3    3    0    0  0.86224596753E+01 -0.91979559890E+01 -0.15686530562E+02  0.20125020412E+02  0.51100000000E-03 0.  1.
        -12    1    3    3    0    0  0.29126931882E+01 -0.53880443055E+00 -0.48699487588E+01  0.57000432223E+01  0.00000000000E+00 0.  1.
</event>
<event>
 7    1  0.1538805E-008  0.4614232E+02  0.7816164E-02  0.1320468E+00
        -11   -1    0    0    0    0  0.00000000000E+00  0.00000000000E+00  0.45593999997E+02  0.45594000000E+02  0.51100000000E-03 0.  1.
         11   -1    0    0    0    0 -0.00000000000E+00 -0.00000000000E+00 -0.45593999997E+02  0.45594000000E+02  0.51100000000E-03 0. -1.
    9900012    2    1    2    0    0 -0.69049923716E+01  0.24727667689E+02 -0.37013200247E+02  0.46142318059E+02  0.10000002720E+02 0.  0.
        -12    1    1    2    0    0  0.69049923716E+01 -0.24727667689E+02  0.37013200247E+02  0.45045681941E+02  0.00000000000E+00 0.  1.
         11    1    3    3    0    0 -0.68274556386E+01  0.22046625671E+02 -0.29753413069E+02  0.37655457022E+02  0.51100000000E-03 0. -1.
        -11    1    3    3    0    0 -0.10980154086E+01  0.48441485133E+00 -0.51076890226E+01  0.52467878743E+01  0.51100000000E-03 0.  1.
         12    1    3    3    0    0  0.10204786756E+01  0.21966271667E+01 -0.21520981546E+01  0.32400731634E+01  0.00000000000E+00 0. -1.
</event>
<event>
 7    1  0.1538805E-008  0.4614232E+02  0.7816164E-02  0.1320468E+00
        -11   -1    0    0    0    0  0.00000000000E+00  0.00000000000E+00  0.45593999997E+02  0.45594000000E+02  0.51100000000E-03 0.  1.
         11   -1    0    0    0    0 -0.00000000000E+00 -0.00000000000E+00 -0.45593999997E+02  0.45594000000E+02  0.51100000000E-03 0. -1.
    9900012    2    1    2    0    0  0.64819062057E+01  0.24779041405E+02 -0.37055330598E+02  0.46142317335E+02  0.99999961172E+01 0.  0.
        -12    1    1    2    0    0 -0.64819062057E+01 -0.24779041405E+02  0.37055330598E+02  0.45045682665E+02  0.00000000000E+00 0.  1.
         11    1    3    3    0    0  0.59146968188E+01  0.19460932034E+02 -0.29436981191E+02  0.35780544657E+02  0.51100000000E-03 0. -1.
        -11    1    3    3    0    0  0.22521704663E+01  0.11725343165E+01 -0.25045770923E+01  0.35665130317E+01  0.51100000000E-03 0.  1.
         12    1    3    3    0    0 -0.16849610795E+01  0.41455750552E+01 -0.51137723147E+01  0.67952596466E+01  0.00000000000E+00 0. -1.
</event>
<event>
 7    1  0.1538805E-008  0.4614232E+02  0.7816164E-02  0.1320468E+00
        -11   -1    0    0    0    0  0.00000000000E+00  0.00000000000E+00  0.45593999997E+02  0.45594000000E+02  0.51100000000E-03 0.  1.
         11   -1    0    0    0    0 -0.00000000000E+00 -0.00000000000E+00 -0.45593999997E+02  0.45594000000E+02  0.51100000000E-03 0. -1.
    9900012    2    1    2    0    0  0.20640495249E+02  0.28903616229E+02 -0.27706759996E+02  0.46142316248E+02  0.99999862019E+01 0.  0.
        -12    1    1    2    0    0 -0.20640495249E+02 -0.28903616229E+02  0.27706759996E+02  0.45045683752E+02  0.00000000000E+00 0.  1.
         11    1    3    3    0    0  0.12184484229E+02  0.15564456472E+02 -0.14294968248E+02  0.24393853297E+02  0.51100000000E-03 0. -1.
        -11    1    3    3    0    0  0.77091239878E+01  0.11599972913E+02 -0.81059033470E+01  0.16115074731E+02  0.51100000000E-03 0.  1.
        -12    1    3    3    0    0  0.74688703207E+00  0.17391868434E+01 -0.53058884016E+01  0.56333882207E+01  0.00000000000E+00 0.  1.
</event>
<event>
 7    1  0.1538805E-008  0.4614232E+02  0.7816164E-02  0.1320468E+00
        -11   -1    0    0    0    0  0.00000000000E+00  0.00000000000E+00  0.45593999997E+02  0.45594000000E+02  0.51100000000E-03 0.  1.
         11   -1    0    0    0    0 -0.00000000000E+00 -0.00000000000E+00 -0.45593999997E+02  0.45594000000E+02  0.51100000000E-03 0. -1.
    9900012    2    1    2    0    0 -0.68073335919E+01  0.94229313727E+01 -0.43519905250E+02  0.46142316752E+02  0.99999907980E+01 0.  0.
        -12    1    1    2    0    0  0.68073335919E+01 -0.94229313727E+01  0.43519905250E+02  0.45045683248E+02  0.00000000000E+00 0.  1.
         11    1    3    3    0    0 -0.11550514120E+00  0.52465608474E+01 -0.24534043457E+02  0.25089022117E+02  0.51100000000E-03 0. -1.
        -11    1    3    3    0    0 -0.43659822287E+01  0.24282589434E+01 -0.63123733619E+01  0.80501118029E+01  0.51100000000E-03 0.  1.
         12    1    3    3    0    0 -0.23258462220E+01  0.17481115818E+01 -0.12673488431E+02  0.13003182832E+02  0.00000000000E+00 0. -1.
</event>
<event>
 7    1  0.1538805E-008  0.4614231E+02  0.7816164E-02  0.1320468E+00
        -11   -1    0    0    0    0  0.00000000000E+00  0.00000000000E+00  0.45593999997E+02  0.45594000000E+02  0.51100000000E-03 0.  1.
         11   -1    0    0    0    0 -0.00000000000E+00 -0.00000000000E+00 -0.45593999997E+02  0.45594000000E+02  0.51100000000E-03 0. -1.
    9900012    2    1    2    0    0 -0.31101650876E+02  0.10019593981E+02 -0.31006599756E+02  0.46142310093E+02  0.99999300732E+01 0.  0.
        -12    1    1    2    0    0  0.31101650876E+02 -0.10019593981E+02  0.31006599756E+02  0.45045689907E+02  0.00000000000E+00 0.  1.
         11    1    3    3    0    0 -0.89953707669E+01  0.23857843284E+01 -0.83190440340E+01  0.12482594121E+02  0.51100000000E-03 0. -1.
        -11    1    3    3    0    0 -0.18491650800E+02  0.35781701048E+01 -0.20399767369E+02  0.27764995220E+02  0.51100000000E-03 0.  1.
        -12    1    3    3    0    0 -0.36146293100E+01  0.40556395477E+01 -0.22877883532E+01  0.58947207516E+01  0.00000000000E+00 0.  1.
</event>
<event>
 7    1  0.1538805E-008  0.4614232E+02  0.7816164E-02  0.1320468E+00
        -11   -1    0    0    0    0  0.00000000000E+00  0.00000000000E+00  0.45593999997E+02  0.45594000000E+02  0.51100000000E-03 0. -1.
         11   -1    0    0    0    0 -0.00000000000E+00 -0.00000000000E+00 -0.45593999997E+02  0.45594000000E+02  0.51100000000E-03 0.  1.
    9900012    2    1    2    0    0  0.32304525209E+02 -0.14404658243E+02  0.27893313962E+02  0.46142317723E+02  0.99999996510E+01 0.  0.
        -12    1    1    2    0    0 -0.32304525209E+02  0.14404658243E+02 -0.27893313962E+02  0.45045682277E+02  0.00000000000E+00 0.  1.
         11    1    3    3    0    0  0.49016341988E+01 -0.23744174534E+01  0.75125036946E+01  0.92790941414E+01  0.51100000000E-03 0. -1.
        -11    1    3    3    0    0  0.65447726019E+01 -0.40669162473E+01  0.20443595465E+01  0.79720300043E+01  0.51100000000E-03 0.  1.
        -12    1    3    3    0    0  0.20858118408E+02 -0.79633245420E+01  0.18336450721E+02  0.28891193577E+02  0.00000000000E+00 0.  1.
</event>
<event>
 7    1  0.1538805E-008  0.4614232E+02  0.7816164E-02  0.1320468E+00
        -11   -1    0    0    0    0  0.00000000000E+00  0.00000000000E+00  0.45593999997E+02  0.45594000000E+02  0.51100000000E-03 0.  1.
         11   -1    0    0    0    0 -0.00000000000E+00 -0.00000000000E+00 -0.45593999997E+02  0.45594000000E+02  0.51100000000E-03 0. -1.
    9900012    2    1    2    0    0 -0.37201441417E+02  0.12449587805E+02 -0.22139876460E+02  0.46142316414E+02  0.99999877194E+01 0.  0.
        -12    1    1    2    0    0  0.37201441417E+02 -0.12449587805E+02  0.22139876460E+02  0.45045683586E+02  0.00000000000E+00 0.  1.
         11    1    3    3    0    0 -0.12511797537E+02  0.18801146528E+01 -0.96554785393E+01  0.15915658164E+02  0.51100000000E-03 0. -1.
        -11    1    3    3    0    0 -0.74554266720E+01  0.57763839488E+01 -0.61051929018E+01  0.11234917846E+02  0.51100000000E-03 0.  1.
         12    1    3    3    0    0 -0.17234217208E+02  0.47930892034E+01 -0.63792050188E+01  0.18991740404E+02  0.00000000000E+00 0. -1.
</event>
<event>
 7    1  0.1538805E-008  0.4614232E+02  0.7816164E-02  0.1320468E+00
        -11   -1    0    0    0    0  0.00000000000E+00  0.00000000000E+00  0.45593999997E+02  0.45594000000E+02  0.51100000000E-03 0.  1.
         11   -1    0    0    0    0 -0.00000000000E+00 -0.00000000000E+00 -0.45593999997E+02  0.45594000000E+02  0.51100000000E-03 0. -1.
    9900012    2    1    2    0    0  0.20645808954E+02  0.92554133955E+01 -0.38951267389E+02  0.46142319456E+02  0.10000015455E+02 0.  0.
        -12    1    1    2    0    0 -0.20645808954E+02 -0.92554133955E+01  0.38951267389E+02  0.45045680544E+02  0.00000000000E+00 0.  1.
         11    1    3    3    0    0  0.15434308719E+02  0.88086882745E+01 -0.28526973674E+02  0.33609509101E+02  0.51100000000E-03 0. -1.
        -11    1    3    3    0    0 -0.29630770994E+00  0.52468887208E+00  0.14005593299E+00  0.61863769440E+00  0.51100000000E-03 0.  1.
         12    1    3    3    0    0  0.55078079451E+01 -0.77963751038E-01 -0.10564349648E+02  0.11914172661E+02  0.00000000000E+00 0. -1.
</event>
<event>
 7    1  0.1538805E-008  0.4614232E+02  0.7816164E-02  0.1320468E+00
        -11   -1    0    0    0    0  0.00000000000E+00  0.00000000000E+00  0.45593999997E+02  0.45594000000E+02  0.51100000000E-03 0.  1.
         11   -1    0    0    0    0 -0.00000000000E+00 -0.00000000000E+00 -0.45593999997E+02  0.45594000000E+02  0.51100000000E-03 0. -1.
    9900012    2    1    2    0    0 -0.86381237609E+01  0.10804171947E+02 -0.42869176048E+02  0.46142316870E+02  0.99999918745E+01 0.  0.
        -12    1    1    2    0    0  0.86381237609E+01 -0.10804171947E+02  0.42869176048E+02  0.45045683130E+02  0.00000000000E+00 0.  1.
         11    1    3    3    0    0 -0.36852358693E+00 -0.47217254024E+00 -0.84006298677E+01  0.84219557691E+01  0.51100000000E-03 0. -1.
        -11    1    3    3    0    0 -0.18231048742E+01  0.77419433503E+01 -0.17053243634E+02  0.18816867883E+02  0.51100000000E-03 0.  1.
         12    1    3    3    0    0 -0.64464952998E+01  0.35344011373E+01 -0.17415302546E+02  0.18903493218E+02  0.00000000000E+00 0. -1.
</event>
<event>
 7    1  0.1538805E-008  0.4614232E+02  0.7816164E-02  0.1320468E+00
        -11   -1    0    0    0    0  0.00000000000E+00  0.00000000000E+00  0.45593999997E+02  0.45594000000E+02  0.51100000000E-03 0.  1.
         11   -1    0    0    0    0 -0.00000000000E+00 -0.00000000000E+00 -0.45593999997E+02  0.45594000000E+02  0.51100000000E-03 0. -1.
    9900012    2    1    2    0    0  0.30272805437E+02 -0.14044148456E+02 -0.30256117747E+02  0.46142317454E+02  0.99999971989E+01 0.  0.
        -12    1    1    2    0    0 -0.30272805437E+02  0.14044148456E+02  0.30256117747E+02  0.45045682546E+02  0.00000000000E+00 0.  1.
         11    1    3    3    0    0  0.13582001693E+02 -0.92870448429E+01 -0.10410031357E+02  0.19470200949E+02  0.51100000000E-03 0. -1.
        -11    1    3    3    0    0  0.63044138615E+01 -0.35940397514E-01 -0.57062636092E+01  0.85034328649E+01  0.51100000000E-03 0.  1.
         12    1    3    3    0    0  0.10386389883E+02 -0.47211632160E+01 -0.14139822781E+02  0.18168683640E+02  0.00000000000E+00 0. -1.
</event>
<event>
 7    1  0.1538805E-008  0.4614232E+02  0.7816164E-02  0.1320468E+00
        -11   -1    0    0    0    0  0.00000000000E+00  0.00000000000E+00  0.45593999997E+02  0.45594000000E+02  0.51100000000E-03 0.  1.
         11   -1    0    0    0    0 -0.00000000000E+00 -0.00000000000E+00 -0.45593999997E+02  0.45594000000E+02  0.51100000000E-03 0. -1.
    9900012    2    1    2    0    0  0.17160285322E+02  0.62449048454E+01 -0.41178140660E+02  0.46142317664E+02  0.99999991144E+01 0.  0.
        -12    1    1    2    0    0 -0.17160285322E+02 -0.62449048454E+01  0.41178140660E+02  0.45045682336E+02  0.00000000000E+00 0.  1.
         11    1    3    3    0    0  0.10464267059E+02  0.24814513975E+01 -0.22626429280E+02  0.25052221226E+02  0.51100000000E-03 0. -1.
        -11    1    3    3    0    0  0.38022745400E+01  0.13020706134E+01 -0.16040084898E+02  0.16535930677E+02  0.51100000000E-03 0.  1.
         12    1    3    3    0    0  0.28937437228E+01  0.24613828344E+01 -0.25116264822E+01  0.45541657608E+01  0.00000000000E+00 0. -1.
</event>
<event>
 7    1  0.1538805E-008  0.4614232E+02  0.7816164E-02  0.1320468E+00
        -11   -1    0    0    0    0  0.00000000000E+00  0.00000000000E+00  0.45593999997E+02  0.45594000000E+02  0.51100000000E-03 0.  1.
         11   -1    0    0    0    0 -0.00000000000E+00 -0.00000000000E+00 -0.45593999997E+02  0.45594000000E+02  0.51100000000E-03 0. -1.
    9900012    2    1    2    0    0 -0.25290774305E+01  0.99101532194E+01 -0.43869192492E+02  0.46142318527E+02  0.10000006987E+02 0.  0.
        -12    1    1    2    0    0  0.25290774305E+01 -0.99101532194E+01  0.43869192492E+02  0.45045681473E+02  0.00000000000E+00 0.  1.
         11    1    3    3    0    0 -0.43181821493E+00  0.49654029072E+01 -0.60398449484E+01  0.78307994651E+01  0.51100000000E-03 0. -1.
        -11    1    3    3    0    0 -0.30637610876E+00  0.32792725914E+01 -0.27503804388E+02  0.27700302365E+02  0.51100000000E-03 0.  1.
         12    1    3    3    0    0 -0.17908831068E+01  0.16654777208E+01 -0.10325543155E+02  0.10611216697E+02  0.00000000000E+00 0. -1.
</event>
<event>
 7    1  0.1538805E-008  0.4614232E+02  0.7816164E-02  0.1320468E+00
        -11   -1    0    0    0    0  0.00000000000E+00  0.00000000000E+00  0.45593999997E+02  0.45594000000E+02  0.51100000000E-03 0. -1.
         11   -1    0    0    0    0 -0.00000000000E+00 -0.00000000000E+00 -0.45593999997E+02  0.45594000000E+02  0.51100000000E-03 0.  1.
    9900012    2    1    2    0    0 -0.45022279332E+02 -0.13640415617E+01 -0.49743177653E+00  0.46142315590E+02  0.99999801978E+01 0.  0.
        -12    1    1    2    0    0  0.45022279332E+02  0.13640415617E+01  0.49743177653E+00  0.45045684410E+02  0.00000000000E+00 0.  1.
         11    1    3    3    0    0 -0.14036658510E+02 -0.92756782299E+00  0.14332487996E+01  0.14140097828E+02  0.51100000000E-03 0. -1.
        -11    1    3    3    0    0 -0.17781796150E+02 -0.25963806651E-01 -0.49365783666E+01  0.18454342434E+02  0.51100000000E-03 0.  1.
        -12    1    3    3    0    0 -0.13203824672E+02 -0.41050993202E+00  0.30058977905E+01  0.13547875328E+02  0.00000000000E+00 0.  1.
</event>
<event>
 7    1  0.1538805E-008  0.4614232E+02  0.7816164E-02  0.1320468E+00
        -11   -1    0    0    0    0  0.00000000000E+00  0.00000000000E+00  0.45593999997E+02  0.45594000000E+02  0.51100000000E-03 0. -1.
         11   -1    0    0    0    0 -0.00000000000E+00 -0.00000000000E+00 -0.45593999997E+02  0.45594000000E+02  0.51100000000E-03 0.  1.
    9900012    2    1    2    0    0 -0.16713484388E+02  0.40140230734E+02  0.11770079746E+02  0.46142318065E+02  0.10000002771E+02 0.  0.
        -12    1    1    2    0    0  0.16713484388E+02 -0.40140230734E+02 -0.11770079746E+02  0.45045681935E+02  0.00000000000E+00 0.  1.
         11    1    3    3    0    0 -0.67195512258E+01  0.22126628951E+02  0.10563255876E+02  0.25422872622E+02  0.51100000000E-03 0. -1.
        -11    1    3    3    0    0 -0.76731647181E+01  0.12522208641E+02  0.30004345417E+00  0.14689220278E+02  0.51100000000E-03 0.  1.
        -12    1    3    3    0    0 -0.23207684446E+01  0.54913931422E+01  0.90678041524E+00  0.60302251647E+01  0.00000000000E+00 0.  1.
</event>
<event>
 7    1  0.1538805E-008  0.4614232E+02  0.7816164E-02  0.1320468E+00
        -11   -1    0    0    0    0  0.00000000000E+00  0.00000000000E+00  0.45593999997E+02  0.45594000000E+02  0.51100000000E-03 0.  1.
         11   -1    0    0    0    0 -0.00000000000E+00 -0.00000000000E+00 -0.45593999997E+02  0.45594000000E+02  0.51100000000E-03 0. -1.
    9900012    2    1    2    0    0  0.10296807926E+02 -0.29800210896E+02 -0.32171985536E+02  0.46142317895E+02  0.10000001225E+02 0.  0.
        -12    1    1    2    0    0 -0.10296807926E+02  0.29800210896E+02  0.32171985536E+02  0.45045682105E+02  0.00000000000E+00 0.  1.
         11    1    3    3    0    0  0.99175496477E-01 -0.59491046123E+00 -0.26995754023E+01  0.27661275910E+01  0.51100000000E-03 0.  1.
        -11    1    3    3    0    0  0.19313935080E+00 -0.11071329693E+02 -0.92183453632E+01  0.14407967777E+02  0.51100000000E-03 0. -1.
         12    1    3    3    0    0  0.10004493079E+02 -0.18133970742E+02 -0.20254064771E+02  0.28968222527E+02  0.00000000000E+00 0. -1.
</event>
<event>
 7    1  0.1538805E-008  0.4614232E+02  0.7816164E-02  0.1320468E+00
        -11   -1    0    0    0    0  0.00000000000E+00  0.00000000000E+00  0.45593999997E+02  0.45594000000E+02  0.51100000000E-03 0.  1.
         11   -1    0    0    0    0 -0.00000000000E+00 -0.00000000000E+00 -0.45593999997E+02  0.45594000000E+02  0.51100000000E-03 0. -1.
    9900012    2    1    2    0    0 -0.35410576839E+02 -0.13591450791E+02 -0.24299734048E+02  0.46142316949E+02  0.99999925964E+01 0.  0.
        -12    1    1    2    0    0  0.35410576839E+02  0.13591450791E+02  0.24299734048E+02  0.45045683051E+02  0.00000000000E+00 0.  1.
         11    1    3    3    0    0 -0.81156153955E+01 -0.48771360872E+01 -0.66734456047E+01  0.11583805340E+02  0.51100000000E-03 0. -1.
        -11    1    3    3    0    0 -0.30045317056E+01 -0.27785350509E+01 -0.23308830139E+00  0.40989996605E+01  0.51100000000E-03 0.  1.
        -12    1    3    3    0    0 -0.24290429738E+02 -0.59357796528E+01 -0.17393200142E+02  0.30459511948E+02  0.00000000000E+00 0.  1.
</event>
<event>
 7    1  0.1538805E-008  0.4614232E+02  0.7816164E-02  0.1320468E+00
        -11   -1    0    0    0    0  0.00000000000E+00  0.00000000000E+00  0.45593999997E+02  0.45594000000E+02  0.51100000000E-03 0.  1.
         11   -1    0    0    0    0 -0.00000000000E+00 -0.00000000000E+00 -0.45593999997E+02  0.45594000000E+02  0.51100000000E-03 0. -1.
    9900012    2    1    2    0    0  0.44019083115E+02 -0.61409363516E+01  0.73295596730E+01  0.46142320712E+02  0.10000026908E+02 0.  0.
        -12    1    1    2    0    0 -0.44019083115E+02  0.61409363516E+01 -0.73295596730E+01  0.45045679288E+02  0.00000000000E+00 0.  1.
         11    1    3    3    0    0  0.31888548768E+02 -0.37234483549E+01  0.79610805424E+01  0.33077521277E+02  0.51100000000E-03 0. -1.
        -11    1    3    3    0    0  0.56609694419E-01 -0.20501205610E+00 -0.75996468417E+00  0.78916486424E+00  0.51100000000E-03 0.  1.
         12    1    3    3    0    0  0.12073924652E+02 -0.22124759406E+01  0.12844381477E+00  0.12275634570E+02  0.00000000000E+00 0. -1.
</event>
<event>
 7    1  0.1538805E-008  0.4614232E+02  0.7816164E-02  0.1320468E+00
        -11   -1    0    0    0    0  0.00000000000E+00  0.00000000000E+00  0.45593999997E+02  0.45594000000E+02  0.51100000000E-03 0. -1.
         11   -1    0    0    0    0 -0.00000000000E+00 -0.00000000000E+00 -0.45593999997E+02  0.45594000000E+02  0.51100000000E-03 0.  1.
    9900012    2    1    2    0    0 -0.27405242877E+02  0.79855154525E+01  0.34846772185E+02  0.46142319565E+02  0.10000016445E+02 0.  0.
        -12    1    1    2    0    0  0.27405242877E+02 -0.79855154525E+01 -0.34846772185E+02  0.45045680435E+02  0.00000000000E+00 0.  1.
         11    1    3    3    0    0 -0.66455306407E+01  0.12740536824E+01  0.43726408126E+01  0.80564432735E+01  0.51100000000E-03 0. -1.
        -11    1    3    3    0    0 -0.13943389801E+02  0.10493062533E+01  0.18728442931E+02  0.23372499602E+02  0.51100000000E-03 0.  1.
        -12    1    3    3    0    0 -0.68163224350E+01  0.56621555168E+01  0.11745688442E+02  0.14713376690E+02  0.00000000000E+00 0.  1.
</event>
<event>
 7    1  0.1538805E-008  0.4614232E+02  0.7816164E-02  0.1320468E+00
        -11   -1    0    0    0    0  0.00000000000E+00  0.00000000000E+00  0.45593999997E+02  0.45594000000E+02  0.51100000000E-03 0.  1.
         11   -1    0    0    0    0 -0.00000000000E+00 -0.00000000000E+00 -0.45593999997E+02  0.45594000000E+02  0.51100000000E-03 0. -1.
    9900012    2    1    2    0    0  0.16395518327E+02 -0.11443004202E+02 -0.40365310002E+02  0.46142316323E+02  0.99999868872E+01 0.  0.
        -12    1    1    2    0    0 -0.16395518327E+02  0.11443004202E+02  0.40365310002E+02  0.45045683677E+02  0.00000000000E+00 0.  1.
         11    1    3    3    0    0  0.12843991705E+02 -0.48071028381E+01 -0.24256122453E+02  0.27864598281E+02  0.51100000000E-03 0. -1.
        -11    1    3    3    0    0  0.14974540323E+01 -0.59786881222E+01 -0.13823074742E+02  0.15134876142E+02  0.51100000000E-03 0.  1.
        -12    1    3    3    0    0  0.20540725896E+01 -0.65721324192E+00 -0.22861128064E+01  0.31428419006E+01  0.00000000000E+00 0.  1.
</event>
<event>
 7    1  0.1538805E-008  0.4614232E+02  0.7816164E-02  0.1320468E+00
        -11   -1    0    0    0    0  0.00000000000E+00  0.00000000000E+00  0.45593999997E+02  0.45594000000E+02  0.51100000000E-03 0.  1.
         11   -1    0    0    0    0 -0.00000000000E+00 -0.00000000000E+00 -0.45593999997E+02  0.45594000000E+02  0.51100000000E-03 0. -1.
    9900012    2    1    2    0    0  0.27484288496E+02 -0.19846933258E+02 -0.29661871728E+02  0.46142317540E+02  0.99999979820E+01 0.  0.
        -12    1    1    2    0    0 -0.27484288496E+02  0.19846933258E+02  0.29661871728E+02  0.45045682460E+02  0.00000000000E+00 0.  1.
         11    1    3    3    0    0  0.73138204994E+01 -0.70865684477E+01 -0.11820115532E+02  0.15602132999E+02  0.51100000000E-03 0.  1.
        -11    1    3    3    0    0  0.19671876107E+02 -0.11842416081E+02 -0.14784691528E+02  0.27309570337E+02  0.51100000000E-03 0. -1.
         12    1    3    3    0    0  0.49859188972E+00 -0.91794872925E+00 -0.30570646689E+01  0.32306142035E+01  0.00000000000E+00 0. -1.
</event>
<event>
 7    1  0.1538805E-008  0.4614232E+02  0.7816164E-02  0.1320468E+00
        -11   -1    0    0    0    0  0.00000000000E+00  0.00000000000E+00  0.45593999997E+02  0.45594000000E+02  0.51100000000E-03 0.  1.
         11   -1    0    0    0    0 -0.00000000000E+00 -0.00000000000E+00 -0.45593999997E+02  0.45594000000E+02  0.51100000000E-03 0. -1.
    9900012    2    1    2    0    0 -0.31640874828E+02  0.32061934458E+02  0.29329864679E-01  0.46142318062E+02  0.10000002740E+02 0.  0.
        -12    1    1    2    0    0  0.31640874828E+02 -0.32061934458E+02 -0.29329864679E-01  0.45045681938E+02  0.00000000000E+00 0.  1.
         11    1    3    3    0    0 -0.14519930489E+02  0.17853053535E+02  0.43256972722E+01  0.23415199318E+02  0.51100000000E-03 0. -1.
        -11    1    3    3    0    0 -0.14616233357E+01  0.10023278918E+01 -0.80649801740E+00  0.19471628826E+01  0.51100000000E-03 0.  1.
         12    1    3    3    0    0 -0.15659321003E+02  0.13206553031E+02 -0.34898693901E+01  0.20779955861E+02  0.00000000000E+00 0. -1.
</event>
<event>
 7    1  0.1538805E-008  0.4614232E+02  0.7816164E-02  0.1320468E+00
        -11   -1    0    0    0    0  0.00000000000E+00  0.00000000000E+00  0.45593999997E+02  0.45594000000E+02  0.51100000000E-03 0.  1.
         11   -1    0    0    0    0 -0.00000000000E+00 -0.00000000000E+00 -0.45593999997E+02  0.45594000000E+02  0.51100000000E-03 0. -1.
    9900012    2    1    2    0    0 -0.36583144121E+02  0.23836707493E+02 -0.11072421793E+02  0.46142316719E+02  0.99999904945E+01 0.  0.
        -12    1    1    2    0    0  0.36583144121E+02 -0.23836707493E+02  0.11072421793E+02  0.45045683281E+02  0.00000000000E+00 0.  1.
         11    1    3    3    0    0 -0.11321665590E+02  0.56281991357E+01 -0.16237437102E+01  0.12747285246E+02  0.51100000000E-03 0.  1.
        -11    1    3    3    0    0 -0.17432660771E+02  0.93152186030E+01 -0.32752200471E+01  0.20034920159E+02  0.51100000000E-03 0. -1.
        -12    1    3    3    0    0 -0.78288177601E+01  0.88932897546E+01 -0.61734580361E+01  0.13360111313E+02  0.00000000000E+00 0.  1.
</event>
<event>
 7    1  0.1538805E-008  0.4614232E+02  0.7816164E-02  0.1320468E+00
        -11   -1    0    0    0    0  0.00000000000E+00  0.00000000000E+00  0.45593999997E+02  0.45594000000E+02  0.51100000000E-03 0.  1.
         11   -1    0    0    0    0 -0.00000000000E+00 -0.00000000000E+00 -0.45593999997E+02  0.45594000000E+02  0.51100000000E-03 0. -1.
    9900012    2    1    2    0    0 -0.10205605738E+02 -0.30405003308E+02 -0.31630600200E+02  0.46142317813E+02  0.10000000472E+02 0.  0.
        -12    1    1    2    0    0  0.10205605738E+02  0.30405003308E+02  0.31630600200E+02  0.45045682187E+02  0.00000000000E+00 0.  1.
         11    1    3    3    0    0 -0.53839960402E+01 -0.21983502824E+02 -0.23780693554E+02  0.32829608525E+02  0.51100000000E-03 0. -1.
        -11    1    3    3    0    0 -0.90929445751E+00 -0.61477516014E+01 -0.42255433070E+01  0.75151102896E+01  0.51100000000E-03 0.  1.
        -12    1    3    3    0    0 -0.39123152403E+01 -0.22737488828E+01 -0.36243633397E+01  0.57975989978E+01  0.00000000000E+00 0.  1.
</event>
<event>
 7    1  0.1538805E-008  0.4614232E+02  0.7816164E-02  0.1320468E+00
        -11   -1    0    0    0    0  0.00000000000E+00  0.00000000000E+00  0.45593999997E+02  0.45594000000E+02  0.51100000000E-03 0. -1.
         11   -1    0    0    0    0 -0.00000000000E+00 -0.00000000000E+00 -0.45593999997E+02  0.45594000000E+02  0.51100000000E-03 0.  1.
    9900012    2    1    2    0    0  0.14847743900E+02 -0.29778835537E+02  0.30362458126E+02  0.46142318650E+02  0.10000008104E+02 0.  0.
        -12    1    1    2    0    0 -0.14847743900E+02  0.29778835537E+02 -0.30362458126E+02  0.45045681350E+02  0.00000000000E+00 0.  1.
         11    1    3    3    0    0  0.15055229282E+01 -0.53436126706E+01  0.11043818783E+01  0.56604288932E+01  0.51100000000E-03 0.  1.
        -11    1    3    3    0    0  0.94544835684E+01 -0.14537603667E+02  0.17883535620E+02  0.24910841544E+02  0.51100000000E-03 0. -1.
         12    1    3    3    0    0  0.38877374030E+01 -0.98976191995E+01  0.11374540628E+02  0.15571048212E+02  0.00000000000E+00 0. -1.
</event>
<event>
 7    1  0.1538805E-008  0.4614232E+02  0.7816164E-02  0.1320468E+00
        -11   -1    0    0    0    0  0.00000000000E+00  0.00000000000E+00  0.45593999997E+02  0.45594000000E+02  0.51100000000E-03 0.  1.
         11   -1    0    0    0    0 -0.00000000000E+00 -0.00000000000E+00 -0.45593999997E+02  0.45594000000E+02  0.51100000000E-03 0. -1.
    9900012    2    1    2    0    0  0.33638678301E+02 -0.77676496868E+00 -0.29949108826E+02  0.46142321393E+02  0.10000033120E+02 0.  0.
        -12    1    1    2    0    0 -0.33638678301E+02  0.77676496868E+00  0.29949108826E+02  0.45045678607E+02  0.00000000000E+00 0.  1.
         11    1    3    3    0    0  0.37916496023E+01 -0.14947095816E+01 -0.15429282622E+01  0.43579113487E+01  0.51100000000E-03 0. -1.
        -11    1    3    3    0    0  0.47528050172E+01  0.78788611009E+00 -0.16270498823E+01  0.50849986858E+01  0.51100000000E-03 0.  1.
         12    1    3    3    0    0  0.25094223682E+02 -0.69941497182E-01 -0.26779130682E+02  0.36699411359E+02  0.00000000000E+00 0. -1.
</event>
<event>
 7    1  0.1538805E-008  0.4614232E+02  0.7816164E-02  0.1320468E+00
        -11   -1    0    0    0    0  0.00000000000E+00  0.00000000000E+00  0.45593999997E+02  0.45594000000E+02  0.51100000000E-03 0.  1.
         11   -1    0    0    0    0 -0.00000000000E+00 -0.00000000000E+00 -0.45593999997E+02  0.45594000000E+02  0.51100000000E-03 0. -1.
    9900012    2    1    2    0    0 -0.43726835708E+01 -0.24890089437E+02 -0.37289095429E+02  0.46142317058E+02  0.99999935857E+01 0.  0.
        -12    1    1    2    0    0  0.43726835708E+01  0.24890089437E+02  0.37289095429E+02  0.45045682942E+02  0.00000000000E+00 0.  1.
         11    1    3    3    0    0 -0.54628095298E+01 -0.12048886442E+02 -0.14083059719E+02  0.19322280501E+02  0.51100000000E-03 0. -1.
        -11    1    3    3    0    0  0.38995355609E+00 -0.10630027321E+02 -0.21336276439E+02  0.23840852274E+02  0.51100000000E-03 0.  1.
         12    1    3    3    0    0  0.70017240283E+00 -0.22111756745E+01 -0.18697592715E+01  0.29791842827E+01  0.00000000000E+00 0. -1.
</event>
<event>
 7    1  0.1538805E-008  0.4614232E+02  0.7816164E-02  0.1320468E+00
        -11   -1    0    0    0    0  0.00000000000E+00  0.00000000000E+00  0.45593999997E+02  0.45594000000E+02  0.51100000000E-03 0. -1.
         11   -1    0    0    0    0 -0.00000000000E+00 -0.00000000000E+00 -0.45593999997E+02  0.45594000000E+02  0.51100000000E-03 0.  1.
    9900012    2    1    2    0    0  0.53761298696E+01  0.44476123129E+02  0.46994967236E+01  0.46142316850E+02  0.99999916927E+01 0.  0.
        -12    1    1    2    0    0 -0.53761298696E+01 -0.44476123129E+02 -0.46994967236E+01  0.45045683150E+02  0.00000000000E+00 0.  1.
         11    1    3    3    0    0  0.17137140908E+01  0.38884131881E+01  0.30046962199E+01  0.52043032907E+01  0.51100000000E-03 0. -1.
        -11    1    3    3    0    0  0.27269664634E+01  0.27873240291E+02  0.27751911913E+01  0.28143481605E+02  0.51100000000E-03 0.  1.
         12    1    3    3    0    0  0.93544931531E+00  0.12714469650E+02 -0.10803906877E+01  0.12794531954E+02  0.00000000000E+00 0. -1.
</event>
<event>
 7    1  0.1538805E-008  0.4614232E+02  0.7816164E-02  0.1320468E+00
        -11   -1    0    0    0    0  0.00000000000E+00  0.00000000000E+00  0.45593999997E+02  0.45594000000E+02  0.51100000000E-03 0. -1.
         11   -1    0    0    0    0 -0.00000000000E+00 -0.00000000000E+00 -0.45593999997E+02  0.45594000000E+02  0.51100000000E-03 0.  1.
    9900012    2    1    2    0    0 -0.36729019679E+02  0.23710518533E+02  0.10858356769E+02  0.46142317772E+02  0.10000000098E+02 0.  0.
        -12    1    1    2    0    0  0.36729019679E+02 -0.23710518533E+02 -0.10858356769E+02  0.45045682228E+02  0.00000000000E+00 0.  1.
         11    1    3    3    0    0 -0.26524524479E+02  0.16972703084E+02  0.90049893709E+01  0.32752295838E+02  0.51100000000E-03 0. -1.
        -11    1    3    3    0    0 -0.65193055366E+01  0.12307311654E+01  0.88072132271E+00  0.66926612189E+01  0.51100000000E-03 0.  1.
         12    1    3    3    0    0 -0.36851896634E+01  0.55070842836E+01  0.97264607494E+00  0.66973607152E+01  0.00000000000E+00 0. -1.
</event>
<event>
 7    1  0.1538805E-008  0.4614232E+02  0.7816164E-02  0.1320468E+00
        -11   -1    0    0    0    0  0.00000000000E+00  0.00000000000E+00  0.45593999997E+02  0.45594000000E+02  0.51100000000E-03 0.  1.
         11   -1    0    0    0    0 -0.00000000000E+00 -0.00000000000E+00 -0.45593999997E+02  0.45594000000E+02  0.51100000000E-03 0. -1.
    9900012    2    1    2    0    0 -0.24301143482E+02  0.17250471477E+01 -0.37889207902E+02  0.46142318324E+02  0.10000005133E+02 0.  0.
        -12    1    1    2    0    0  0.24301143482E+02 -0.17250471477E+01  0.37889207902E+02  0.45045681676E+02  0.00000000000E+00 0.  1.
         11    1    3    3    0    0 -0.81239150507E+01 -0.22167644403E+01 -0.10291087474E+02  0.13297312585E+02  0.51100000000E-03 0. -1.
        -11    1    3    3    0    0 -0.27963845456E+01  0.15562153973E+01 -0.10647425306E+02  0.11117969185E+02  0.51100000000E-03 0.  1.
         12    1    3    3    0    0 -0.13380843885E+02  0.23855961907E+01 -0.16950695123E+02  0.21727036554E+02  0.00000000000E+00 0. -1.
</event>
<event>
 7    1  0.1538805E-008  0.4614232E+02  0.7816164E-02  0.1320468E+00
        -11   -1    0    0    0    0  0.00000000000E+00  0.00000000000E+00  0.45593999997E+02  0.45594000000E+02  0.51100000000E-03 0. -1.
         11   -1    0    0    0    0 -0.00000000000E+00 -0.00000000000E+00 -0.45593999997E+02  0.45594000000E+02  0.51100000000E-03 0.  1.
    9900012    2    1    2    0    0 -0.22316397876E+02  0.39127554940E+02 -0.35557475895E+00  0.46142316487E+02  0.99999883801E+01 0.  0.
        -12    1    1    2    0    0  0.22316397876E+02 -0.39127554940E+02  0.35557475895E+00  0.45045683513E+02  0.00000000000E+00 0.  1.
         11    1    3    3    0    0 -0.73164312578E+01  0.18655008281E+02  0.35936750321E+01  0.20358143354E+02  0.51100000000E-03 0. -1.
        -11    1    3    3    0    0 -0.89448858111E+01  0.10652806039E+02 -0.15030186964E+01  0.13991151637E+02  0.51100000000E-03 0.  1.
         12    1    3    3    0    0 -0.60550808069E+01  0.98197406204E+01 -0.24462310947E+01  0.11793021496E+02  0.00000000000E+00 0. -1.
</event>
<event>
 7    1  0.1538805E-008  0.4614232E+02  0.7816164E-02  0.1320468E+00
        -11   -1    0    0    0    0  0.00000000000E+00  0.00000000000E+00  0.45593999997E+02  0.45594000000E+02  0.51100000000E-03 0. -1.
         11   -1    0    0    0    0 -0.00000000000E+00 -0.00000000000E+00 -0.45593999997E+02  0.45594000000E+02  0.51100000000E-03 0.  1.
    9900012    2    1    2    0    0 -0.28574636925E+02  0.34806396860E+02  0.10575309738E+01  0.46142317526E+02  0.99999978534E+01 0.  0.
        -12    1    1    2    0    0  0.28574636925E+02 -0.34806396860E+02 -0.10575309738E+01  0.45045682474E+02  0.00000000000E+00 0.  1.
         11    1    3    3    0    0 -0.13566169762E+02  0.16462801988E+02  0.83934749887E+00  0.21348754432E+02  0.51100000000E-03 0. -1.
        -11    1    3    3    0    0 -0.82688452717E+01  0.51178461162E+01 -0.15405559582E+01  0.98457840682E+01  0.51100000000E-03 0.  1.
        -12    1    3    3    0    0 -0.67396218913E+01  0.13225748757E+02  0.17587394331E+01  0.14947779026E+02  0.00000000000E+00 0.  1.
</event>
<event>
 7    1  0.1538805E-008  0.4614232E+02  0.7816164E-02  0.1320468E+00
        -11   -1    0    0    0    0  0.00000000000E+00  0.00000000000E+00  0.45593999997E+02  0.45594000000E+02  0.51100000000E-03 0.  1.
         11   -1    0    0    0    0 -0.00000000000E+00 -0.00000000000E+00 -0.45593999997E+02  0.45594000000E+02  0.51100000000E-03 0. -1.
    9900012    2    1    2    0    0  0.29026573161E+02  0.16939622835E+02 -0.29993677406E+02  0.46142318124E+02  0.10000003311E+02 0.  0.
        -12    1    1    2    0    0 -0.29026573161E+02 -0.16939622835E+02  0.29993677406E+02  0.45045681876E+02  0.00000000000E+00 0.  1.
         11    1    3    3    0    0  0.10645646346E+02  0.57262650312E+01 -0.52714866238E+01  0.13187436021E+02  0.51100000000E-03 0. -1.
        -11    1    3    3    0    0  0.66842962858E+01  0.42855302474E+01 -0.11624900350E+02  0.14077780178E+02  0.51100000000E-03 0.  1.
         12    1    3    3    0    0  0.11696630530E+02  0.69278275565E+01 -0.13097290432E+02  0.18877101925E+02  0.00000000000E+00 0. -1.
</event>
<event>
 7    1  0.1538805E-008  0.4614232E+02  0.7816164E-02  0.1320468E+00
        -11   -1    0    0    0    0  0.00000000000E+00  0.00000000000E+00  0.45593999997E+02  0.45594000000E+02  0.51100000000E-03 0.  1.
         11   -1    0    0    0    0 -0.00000000000E+00 -0.00000000000E+00 -0.45593999997E+02  0.45594000000E+02  0.51100000000E-03 0. -1.
    9900012    2    1    2    0    0 -0.31325886563E+02 -0.30355250179E+02 -0.11241045165E+02  0.46142317868E+02  0.10000000970E+02 0.  0.
        -12    1    1    2    0    0  0.31325886563E+02  0.30355250179E+02  0.11241045165E+02  0.45045682132E+02  0.00000000000E+00 0.  1.
         11    1    3    3    0    0 -0.29073597113E+02 -0.28933388965E+02 -0.10895094980E+02  0.42439582243E+02  0.51100000000E-03 0. -1.
        -11    1    3    3    0    0  0.41591867595E+00  0.25942552198E-01  0.39902780982E+00  0.57696171030E+00  0.51100000000E-03 0.  1.
         12    1    3    3    0    0 -0.26682081265E+01 -0.14478037658E+01 -0.74497799485E+00  0.31257739143E+01  0.00000000000E+00 0. -1.
</event>
<event>
 7    1  0.1538805E-008  0.4614232E+02  0.7816164E-02  0.1320468E+00
        -11   -1    0    0    0    0  0.00000000000E+00  0.00000000000E+00  0.45593999997E+02  0.45594000000E+02  0.51100000000E-03 0. -1.
         11   -1    0    0    0    0 -0.00000000000E+00 -0.00000000000E+00 -0.45593999997E+02  0.45594000000E+02  0.51100000000E-03 0.  1.
    9900012    2    1    2    0    0  0.82506332663E+01 -0.35460465074E+02  0.26525385110E+02  0.46142316657E+02  0.99999899354E+01 0.  0.
        -12    1    1    2    0    0 -0.82506332663E+01  0.35460465074E+02 -0.26525385110E+02  0.45045683343E+02  0.00000000000E+00 0.  1.
         11    1    3    3    0    0  0.25833990333E+01 -0.16229229081E+02  0.94352731469E+01  0.18949570094E+02  0.51100000000E-03 0. -1.
        -11    1    3    3    0    0 -0.13565838424E+01 -0.34638341785E+01  0.44405186255E+01  0.57928121722E+01  0.51100000000E-03 0.  1.
        -12    1    3    3    0    0  0.70238180755E+01 -0.15767401815E+02  0.12649593338E+02  0.21399934391E+02  0.00000000000E+00 0.  1.
</event>
<event>
 7    1  0.1538805E-008  0.4614232E+02  0.7816164E-02  0.1320468E+00
        -11   -1    0    0    0    0  0.00000000000E+00  0.00000000000E+00  0.45593999997E+02  0.45594000000E+02  0.51100000000E-03 0. -1.
         11   -1    0    0    0    0 -0.00000000000E+00 -0.00000000000E+00 -0.45593999997E+02  0.45594000000E+02  0.51100000000E-03 0.  1.
    9900012    2    1    2    0    0 -0.13940814512E+02 -0.41882100284E+02  0.89809162301E+01  0.46142317746E+02  0.99999998580E+01 0.  0.
        -12    1    1    2    0    0  0.13940814512E+02  0.41882100284E+02 -0.89809162301E+01  0.45045682254E+02  0.00000000000E+00 0.  1.
         11    1    3    3    0    0 -0.69863219553E+01 -0.19400059924E+02  0.47328966627E+01  0.21155881702E+02  0.51100000000E-03 0. -1.
        -11    1    3    3    0    0 -0.45562895485E+00 -0.30662193449E+00  0.16425272628E+01  0.17319095893E+01  0.51100000000E-03 0.  1.
        -12    1    3    3    0    0 -0.64988636023E+01 -0.22175418426E+02  0.26054923046E+01  0.23254526454E+02  0.00000000000E+00 0.  1.
</event>
<event>
 7    1  0.1538805E-008  0.4614232E+02  0.7816164E-02  0.1320468E+00
        -11   -1    0    0    0    0  0.00000000000E+00  0.00000000000E+00  0.45593999997E+02  0.45594000000E+02  0.51100000000E-03 0. -1.
         11   -1    0    0    0    0 -0.00000000000E+00 -0.00000000000E+00 -0.45593999997E+02  0.45594000000E+02  0.51100000000E-03 0.  1.
    9900012    2    1    2    0    0  0.40733732442E+02 -0.17922902886E+02  0.69746722169E+01  0.46142318087E+02  0.10000002968E+02 0.  0.
        -12    1    1    2    0    0 -0.40733732442E+02  0.17922902886E+02 -0.69746722169E+01  0.45045681913E+02  0.00000000000E+00 0.  1.
         11    1    3    3    0    0  0.11156584602E+02 -0.78414845192E+01  0.51088400641E+01  0.14562228762E+02  0.51100000000E-03 0. -1.
        -11    1    3    3    0    0  0.27207914997E+02 -0.79696071079E+01  0.16689646066E+01  0.28400188715E+02  0.51100000000E-03 0.  1.
        -12    1    3    3    0    0  0.23692328433E+01 -0.21118112589E+01  0.19686754621E+00  0.31799006100E+01  0.00000000000E+00 0.  1.
</event>
<event>
 7    1  0.1538805E-008  0.4614232E+02  0.7816164E-02  0.1320468E+00
        -11   -1    0    0    0    0  0.00000000000E+00  0.00000000000E+00  0.45593999997E+02  0.45594000000E+02  0.51100000000E-03 0.  1.
         11   -1    0    0    0    0 -0.00000000000E+00 -0.00000000000E+00 -0.45593999997E+02  0.45594000000E+02  0.51100000000E-03 0. -1.
    9900012    2    1    2    0    0 -0.15495380954E+02  0.14033977893E+02 -0.39900552366E+02  0.46142318237E+02  0.10000004335E+02 0.  0.
        -12    1    1    2    0    0  0.15495380954E+02 -0.14033977893E+02  0.39900552366E+02  0.45045681763E+02  0.00000000000E+00 0.  1.
         11    1    3    3    0    0 -0.84438995325E+01  0.69354944956E+01 -0.17196524954E+02  0.20374518252E+02  0.51100000000E-03 0. -1.
        -11    1    3    3    0    0 -0.30106016548E+01 -0.96918066255E+00 -0.57911434814E+01  0.65985132086E+01  0.51100000000E-03 0.  1.
        -12    1    3    3    0    0 -0.40408797665E+01  0.80676640597E+01 -0.16912883931E+02  0.19169286776E+02  0.00000000000E+00 0.  1.
</event>
<event>
 7    1  0.1538805E-008  0.4614232E+02  0.7816164E-02  0.1320468E+00
        -11   -1    0    0    0    0  0.00000000000E+00  0.00000000000E+00  0.45593999997E+02  0.45594000000E+02  0.51100000000E-03 0. -1.
         11   -1    0    0    0    0 -0.00000000000E+00 -0.00000000000E+00 -0.45593999997E+02  0.45594000000E+02  0.51100000000E-03 0.  1.
    9900012    2    1    2    0    0  0.18343860799E+02  0.11711258127E+02  0.39439355310E+02  0.46142317152E+02  0.99999944471E+01 0.  0.
        -12    1    1    2    0    0 -0.18343860799E+02 -0.11711258127E+02 -0.39439355310E+02  0.45045682848E+02  0.00000000000E+00 0.  1.
         11    1    3    3    0    0 -0.98191999568E+00  0.14621908858E+01  0.31513589669E+01  0.36101568753E+01  0.51100000000E-03 0. -1.
        -11    1    3    3    0    0  0.87278282994E+01  0.38411445562E+01  0.19088968749E+02  0.21338184236E+02  0.51100000000E-03 0.  1.
         12    1    3    3    0    0  0.10597952495E+02  0.64079226850E+01  0.17199027594E+02  0.21193976041E+02  0.00000000000E+00 0. -1.
</event>
<event>
 7    1  0.1538805E-008  0.4614232E+02  0.7816164E-02  0.1320468E+00
        -11   -1    0    0    0    0  0.00000000000E+00  0.00000000000E+00  0.45593999997E+02  0.45594000000E+02  0.51100000000E-03 0.  1.
         11   -1    0    0    0    0 -0.00000000000E+00 -0.00000000000E+00 -0.45593999997E+02  0.45594000000E+02  0.51100000000E-03 0. -1.
    9900012    2    1    2    0    0  0.40588382219E+01 -0.41128338780E+02 -0.17919235265E+02  0.46142318620E+02  0.10000007831E+02 0.  0.
        -12    1    1    2    0    0 -0.40588382219E+01  0.41128338780E+02  0.17919235265E+02  0.45045681380E+02  0.00000000000E+00 0.  1.
         11    1    3    3    0    0  0.10772567116E+01 -0.15229914589E+02 -0.95412179349E+01  0.18004044556E+02  0.51100000000E-03 0. -1.
        -11    1    3    3    0    0 -0.12466903284E+01 -0.71098625728E+01 -0.44607980233E+01  0.84854641502E+01  0.51100000000E-03 0.  1.
        -12    1    3    3    0    0  0.42282718387E+01 -0.18788561618E+02 -0.39172193065E+01  0.19652809914E+02  0.00000000000E+00 0.  1.
</event>
<event>
 7    1  0.1538805E-008  0.4614232E+02  0.7816164E-02  0.1320468E+00
        -11   -1    0    0    0    0  0.00000000000E+00  0.00000000000E+00  0.45593999997E+02  0.45594000000E+02  0.51100000000E-03 0.  1.
         11   -1    0    0    0    0 -0.00000000000E+00 -0.00000000000E+00 -0.45593999997E+02  0.45594000000E+02  0.51100000000E-03 0. -1.
    9900012    2    1    2    0    0  0.80192123375E+01  0.42779224896E+02 -0.11607914094E+02  0.46142317423E+02  0.99999969133E+01 0.  0.
        -12    1    1    2    0    0 -0.80192123375E+01 -0.42779224896E+02  0.11607914094E+02  0.45045682577E+02  0.00000000000E+00 0.  1.
         11    1    3    3    0    0  0.29605543129E+01  0.16773831981E+02 -0.62178603065E+01  0.18132515220E+02  0.51100000000E-03 0. -1.
        -11    1    3    3    0    0 -0.12462789965E+01  0.83702302902E+01 -0.35989433254E+01  0.91959969426E+01  0.51100000000E-03 0.  1.
        -12    1    3    3    0    0  0.63049370211E+01  0.17635162625E+02 -0.17911104619E+01  0.18813805260E+02  0.00000000000E+00 0.  1.
</event>
<event>
 7    1  0.1538805E-008  0.4614232E+02  0.7816164E-02  0.1320468E+00
        -11   -1    0    0    0    0  0.00000000000E+00  0.00000000000E+00  0.45593999997E+02  0.45594000000E+02  0.51100000000E-03 0.  1.
         11   -1    0    0    0    0 -0.00000000000E+00 -0.00000000000E+00 -0.45593999997E+02  0.45594000000E+02  0.51100000000E-03 0. -1.
    9900012    2    1    2    0    0  0.69170968692E+01  0.17684367200E+02 -0.40847650805E+02  0.46142315982E+02  0.99999837735E+01 0.  0.
        -12    1    1    2    0    0 -0.69170968692E+01 -0.17684367200E+02  0.40847650805E+02  0.45045684018E+02  0.00000000000E+00 0.  1.
         11    1    3    3    0    0  0.36593989340E+01  0.34388272459E+01 -0.15622043629E+02  0.16409295561E+02  0.51100000000E-03 0. -1.
        -11    1    3    3    0    0  0.25040589991E+01  0.15543045498E+01 -0.36636144453E+01  0.47019405749E+01  0.51100000000E-03 0.  1.
         12    1    3    3    0    0  0.75363893609E+00  0.12691235404E+02 -0.21561992731E+02  0.25031079846E+02  0.00000000000E+00 0. -1.
</event>
<event>
 7    1  0.1538805E-008  0.4614232E+02  0.7816164E-02  0.1320468E+00
        -11   -1    0    0    0    0  0.00000000000E+00  0.00000000000E+00  0.45593999997E+02  0.45594000000E+02  0.51100000000E-03 0. -1.
         11   -1    0    0    0    0 -0.00000000000E+00 -0.00000000000E+00 -0.45593999997E+02  0.45594000000E+02  0.51100000000E-03 0.  1.
    9900012    2    1    2    0    0 -0.10932435276E+02 -0.36307395266E+02 -0.24318066799E+02  0.46142318021E+02  0.10000002374E+02 0.  0.
        -12    1    1    2    0    0  0.10932435276E+02  0.36307395266E+02  0.24318066799E+02  0.45045681979E+02  0.00000000000E+00 0.  1.
         11    1    3    3    0    0 -0.83631336604E+01 -0.24286657396E+02 -0.20112219499E+02  0.32623382803E+02  0.51100000000E-03 0. -1.
        -11    1    3    3    0    0  0.64289511289E+00 -0.43397839283E+01 -0.53369772727E+00  0.44194877753E+01  0.51100000000E-03 0.  1.
         12    1    3    3    0    0 -0.32121967290E+01 -0.76809539418E+01 -0.36721495725E+01  0.90994474428E+01  0.00000000000E+00 0. -1.
</event>
<event>
 7    1  0.1538805E-008  0.4614232E+02  0.7816164E-02  0.1320468E+00
        -11   -1    0    0    0    0  0.00000000000E+00  0.00000000000E+00  0.45593999997E+02  0.45594000000E+02  0.51100000000E-03 0.  1.
         11   -1    0    0    0    0 -0.00000000000E+00 -0.00000000000E+00 -0.45593999997E+02  0.45594000000E+02  0.51100000000E-03 0. -1.
    9900012    2    1    2    0    0 -0.16604456736E+02 -0.11749442921E+02 -0.40191492193E+02  0.46142318330E+02  0.10000005185E+02 0.  0.
        -12    1    1    2    0    0  0.16604456736E+02  0.11749442921E+02  0.40191492193E+02  0.45045681670E+02  0.00000000000E+00 0.  1.
         11    1    3    3    0    0 -0.50205324775E+01 -0.12573078686E+01 -0.12806646580E+02  0.13812920268E+02  0.51100000000E-03 0. -1.
        -11    1    3    3    0    0 -0.10209082419E+02 -0.72589093859E+01 -0.25332602718E+02  0.28260535913E+02  0.51100000000E-03 0.  1.
        -12    1    3    3    0    0 -0.13748418392E+01 -0.32332256666E+01 -0.20522428943E+01  0.40688621495E+01  0.00000000000E+00 0.  1.
</event>
<event>
 7    1  0.1538805E-008  0.4614232E+02  0.7816164E-02  0.1320468E+00
        -11   -1    0    0    0    0  0.00000000000E+00  0.00000000000E+00  0.45593999997E+02  0.45594000000E+02  0.51100000000E-03 0. -1.
         11   -1    0    0    0    0 -0.00000000000E+00 -0.00000000000E+00 -0.45593999997E+02  0.45594000000E+02  0.51100000000E-03 0.  1.
    9900012    2    1    2    0    0 -0.39874878454E+02 -0.64043374657E+01 -0.19952242493E+02  0.46142318180E+02  0.10000003821E+02 0.  0.
        -12    1    1    2    0    0  0.39874878454E+02  0.64043374657E+01  0.19952242493E+02  0.45045681820E+02  0.00000000000E+00 0.  1.
         11    1    3    3    0    0 -0.16572977212E+02 -0.10772632164E+01 -0.90676208305E+01  0.18922098654E+02  0.51100000000E-03 0. -1.
        -11    1    3    3    0    0 -0.13790484568E+01  0.12818096003E+01 -0.17421354582E+01  0.25651211888E+01  0.51100000000E-03 0.  1.
        -12    1    3    3    0    0 -0.21922852786E+02 -0.66088838496E+01 -0.91424862039E+01  0.24655098337E+02  0.00000000000E+00 0.  1.
</event>
<event>
 7    1  0.1538805E-008  0.4614232E+02  0.7816164E-02  0.1320468E+00
        -11   -1    0    0    0    0  0.00000000000E+00  0.00000000000E+00  0.45593999997E+02  0.45594000000E+02  0.51100000000E-03 0. -1.
         11   -1    0    0    0    0 -0.00000000000E+00 -0.00000000000E+00 -0.45593999997E+02  0.45594000000E+02  0.51100000000E-03 0.  1.
    9900012    2    1    2    0    0 -0.30300022889E+02  0.33183555212E+02  0.31422594202E+01  0.46142317433E+02  0.99999970119E+01 0.  0.
        -12    1    1    2    0    0  0.30300022889E+02 -0.33183555212E+02 -0.31422594202E+01  0.45045682567E+02  0.00000000000E+00 0.  1.
         11    1    3    3    0    0 -0.14461544012E+02  0.10139810459E+02  0.22634069332E+01  0.17806600534E+02  0.51100000000E-03 0. -1.
        -11    1    3    3    0    0 -0.62271159434E+01  0.12886710705E+02 -0.16249582262E+00  0.14313304682E+02  0.51100000000E-03 0.  1.
         12    1    3    3    0    0 -0.96113629336E+01  0.10157034049E+02  0.10413483095E+01  0.14022412218E+02  0.00000000000E+00 0. -1.
</event>
<event>
 7    1  0.1538805E-008  0.4614232E+02  0.7816164E-02  0.1320468E+00
        -11   -1    0    0    0    0  0.00000000000E+00  0.00000000000E+00  0.45593999997E+02  0.45594000000E+02  0.51100000000E-03 0.  1.
         11   -1    0    0    0    0 -0.00000000000E+00 -0.00000000000E+00 -0.45593999997E+02  0.45594000000E+02  0.51100000000E-03 0. -1.
    9900012    2    1    2    0    0 -0.48239548912E+01 -0.40613778213E+02 -0.18877601770E+02  0.46142319074E+02  0.10000011968E+02 0.  0.
        -12    1    1    2    0    0  0.48239548912E+01  0.40613778213E+02  0.18877601770E+02  0.45045680926E+02  0.00000000000E+00 0.  1.
         11    1    3    3    0    0  0.13810991056E+01 -0.22470170430E+02 -0.11395007498E+02  0.25232165782E+02  0.51100000000E-03 0. -1.
        -11    1    3    3    0    0  0.35410148763E+00 -0.13844235056E+01 -0.25094417874E-01  0.14292117749E+01  0.51100000000E-03 0.  1.
         12    1    3    3    0    0 -0.65591554844E+01 -0.16759184277E+02 -0.74574998546E+01  0.19480941517E+02  0.00000000000E+00 0. -1.
</event>
<event>
 7    1  0.1538805E-008  0.4614232E+02  0.7816164E-02  0.1320468E+00
        -11   -1    0    0    0    0  0.00000000000E+00  0.00000000000E+00  0.45593999997E+02  0.45594000000E+02  0.51100000000E-03 0.  1.
         11   -1    0    0    0    0 -0.00000000000E+00 -0.00000000000E+00 -0.45593999997E+02  0.45594000000E+02  0.51100000000E-03 0. -1.
    9900012    2    1    2    0    0 -0.21173663511E+02 -0.38282838471E+02  0.10733767305E+02  0.46142317538E+02  0.99999979688E+01 0.  0.
        -12    1    1    2    0    0  0.21173663511E+02  0.38282838471E+02 -0.10733767305E+02  0.45045682462E+02  0.00000000000E+00 0.  1.
         11    1    3    3    0    0 -0.10975805830E+02 -0.20710137987E+02  0.23505988663E+01  0.23556388611E+02  0.51100000000E-03 0. -1.
        -11    1    3    3    0    0 -0.12754330701E+01 -0.29817808564E+00  0.14252549603E+01  0.19357147646E+01  0.51100000000E-03 0.  1.
         12    1    3    3    0    0 -0.89224246103E+01 -0.17274522398E+02  0.69579134783E+01  0.20650214163E+02  0.00000000000E+00 0. -1.
</event>
<event>
 7    1  0.1538805E-008  0.4614232E+02  0.7816164E-02  0.1320468E+00
        -11   -1    0    0    0    0  0.00000000000E+00  0.00000000000E+00  0.45593999997E+02  0.45594000000E+02  0.51100000000E-03 0.  1.
         11   -1    0    0    0    0 -0.00000000000E+00 -0.00000000000E+00 -0.45593999997E+02  0.45594000000E+02  0.51100000000E-03 0. -1.
    9900012    2    1    2    0    0  0.28696106075E+02 -0.20384985131E+02 -0.28108707375E+02  0.46142317044E+02  0.99999934606E+01 0.  0.
        -12    1    1    2    0    0 -0.28696106075E+02  0.20384985131E+02  0.28108707375E+02  0.45045682956E+02  0.00000000000E+00 0.  1.
         11    1    3    3    0    0  0.25267759604E+02 -0.17034566765E+02 -0.24206493031E+02  0.38917739469E+02  0.51100000000E-03 0. -1.
        -11    1    3    3    0    0 -0.76037089098E+00 -0.95499078939E-01 -0.36598288104E+00  0.84925125627E+00  0.51100000000E-03 0.  1.
        -12    1    3    3    0    0  0.41887173627E+01 -0.32549192872E+01 -0.35362314633E+01  0.63753263189E+01  0.00000000000E+00 0.  1.
</event>
<event>
 7    1  0.1538805E-008  0.4614232E+02  0.7816164E-02  0.1320468E+00
        -11   -1    0    0    0    0  0.00000000000E+00  0.00000000000E+00  0.45593999997E+02  0.45594000000E+02  0.51100000000E-03 0.  1.
         11   -1    0    0    0    0 -0.00000000000E+00 -0.00000000000E+00 -0.45593999997E+02  0.45594000000E+02  0.51100000000E-03 0. -1.
    9900012    2    1    2    0    0  0.31498247458E+02  0.18351215443E+02 -0.26461422228E+02  0.46142316883E+02  0.99999919934E+01 0.  0.
        -12    1    1    2    0    0 -0.31498247458E+02 -0.18351215443E+02  0.26461422228E+02  0.45045683117E+02  0.00000000000E+00 0.  1.
         11    1    3    3    0    0  0.26256298903E+02  0.16342285186E+02 -0.19639837890E+02  0.36635866985E+02  0.51100000000E-03 0.  1.
        -11    1    3    3    0    0  0.49876600400E+01  0.27343308908E+01 -0.65865486319E+01  0.87026399004E+01  0.51100000000E-03 0. -1.
         12    1    3    3    0    0  0.25428851506E+00 -0.72540063390E+00 -0.23503570629E+00  0.80380999732E+00  0.00000000000E+00 0. -1.
</event>
<event>
 7    1  0.1538805E-008  0.4614232E+02  0.7816164E-02  0.1320468E+00
        -11   -1    0    0    0    0  0.00000000000E+00  0.00000000000E+00  0.45593999997E+02  0.45594000000E+02  0.51100000000E-03 0. -1.
         11   -1    0    0    0    0 -0.00000000000E+00 -0.00000000000E+00 -0.45593999997E+02  0.45594000000E+02  0.51100000000E-03 0.  1.
    9900012    2    1    2    0    0 -0.40711258035E+02 -0.18948563979E+02 -0.35579531608E+01  0.46142316096E+02  0.99999848158E+01 0.  0.
        -12    1    1    2    0    0  0.40711258035E+02  0.18948563979E+02  0.35579531608E+01  0.45045683904E+02  0.00000000000E+00 0.  1.
         11    1    3    3    0    0 -0.12542342126E+02 -0.96039485955E+01  0.55153636630E+00  0.15806655790E+02  0.51100000000E-03 0. -1.
        -11    1    3    3    0    0 -0.28487291387E+01  0.13554928211E+00  0.53837330267E+00  0.29023227573E+01  0.51100000000E-03 0.  1.
         12    1    3    3    0    0 -0.25320186770E+02 -0.94801646654E+01 -0.46478628298E+01  0.27433337549E+02  0.00000000000E+00 0. -1.
</event>
<event>
 7    1  0.1538805E-008  0.4614232E+02  0.7816164E-02  0.1320468E+00
        -11   -1    0    0    0    0  0.00000000000E+00  0.00000000000E+00  0.45593999997E+02  0.45594000000E+02  0.51100000000E-03 0.  1.
         11   -1    0    0    0    0 -0.00000000000E+00 -0.00000000000E+00 -0.45593999997E+02  0.45594000000E+02  0.51100000000E-03 0. -1.
    9900012    2    1    2    0    0 -0.43198038347E+02  0.98292289627E+01  0.81504129805E+01  0.46142317734E+02  0.99999997520E+01 0.  0.
        -12    1    1    2    0    0  0.43198038347E+02 -0.98292289627E+01 -0.81504129805E+01  0.45045682266E+02  0.00000000000E+00 0.  1.
         11    1    3    3    0    0 -0.30452861257E+02  0.71255509319E+01  0.82746658317E+01  0.32351512016E+02  0.51100000000E-03 0. -1.
        -11    1    3    3    0    0  0.51342505213E-01  0.20874781916E+00 -0.70835825738E+00  0.74025899979E+00  0.51100000000E-03 0.  1.
         12    1    3    3    0    0 -0.12796519595E+02  0.24949302117E+01  0.58410540620E+00  0.13050546718E+02  0.00000000000E+00 0. -1.
</event>
<event>
 7    1  0.1538805E-008  0.4614232E+02  0.7816164E-02  0.1320468E+00
        -11   -1    0    0    0    0  0.00000000000E+00  0.00000000000E+00  0.45593999997E+02  0.45594000000E+02  0.51100000000E-03 0.  1.
         11   -1    0    0    0    0 -0.00000000000E+00 -0.00000000000E+00 -0.45593999997E+02  0.45594000000E+02  0.51100000000E-03 0. -1.
    9900012    2    1    2    0    0 -0.30025895813E+02  0.44637390887E+01 -0.33281137697E+02  0.46142317494E+02  0.99999975633E+01 0.  0.
        -12    1    1    2    0    0  0.30025895813E+02 -0.44637390887E+01  0.33281137697E+02  0.45045682506E+02  0.00000000000E+00 0.  1.
         11    1    3    3    0    0 -0.21378575976E+02  0.64108116837E-01 -0.23826967939E+02  0.32012060571E+02  0.51100000000E-03 0. -1.
        -11    1    3    3    0    0 -0.76973286578E+01  0.42892784653E+01 -0.97376682446E+01  0.13132743861E+02  0.51100000000E-03 0.  1.
        -12    1    3    3    0    0 -0.94999117895E+00  0.11035250655E+00  0.28349848609E+00  0.99751306127E+00  0.00000000000E+00 0.  1.
</event>
<event>
 7    1  0.1538805E-008  0.4614232E+02  0.7816164E-02  0.1320468E+00
        -11   -1    0    0    0    0  0.00000000000E+00  0.00000000000E+00  0.45593999997E+02  0.45594000000E+02  0.51100000000E-03 0.  1.
         11   -1    0    0    0    0 -0.00000000000E+00 -0.00000000000E+00 -0.45593999997E+02  0.45594000000E+02  0.51100000000E-03 0. -1.
    9900012    2    1    2    0    0 -0.16111900935E+02 -0.37150746781E+02 -0.19731754643E+02  0.46142317861E+02  0.10000000910E+02 0.  0.
        -12    1    1    2    0    0  0.16111900935E+02  0.37150746781E+02  0.19731754643E+02  0.45045682139E+02  0.00000000000E+00 0.  1.
         11    1    3    3    0    0 -0.75460564807E+01 -0.19538665128E+02 -0.13887002660E+02  0.25130683368E+02  0.51100000000E-03 0. -1.
        -11    1    3    3    0    0 -0.76389894017E+01 -0.16599987737E+02 -0.66199379876E+01  0.19435465808E+02  0.51100000000E-03 0.  1.
        -12    1    3    3    0    0 -0.92685505233E+00 -0.10120939155E+01  0.77518600477E+00  0.15761686851E+01  0.00000000000E+00 0.  1.
</event>
<event>
 7    1  0.1538805E-008  0.4614232E+02  0.7816164E-02  0.1320468E+00
        -11   -1    0    0    0    0  0.00000000000E+00  0.00000000000E+00  0.45593999997E+02  0.45594000000E+02  0.51100000000E-03 0.  1.
         11   -1    0    0    0    0 -0.00000000000E+00 -0.00000000000E+00 -0.45593999997E+02  0.45594000000E+02  0.51100000000E-03 0. -1.
    9900012    2    1    2    0    0 -0.22291824298E+01  0.19686595002E+01 -0.44947398701E+02  0.46142317360E+02  0.99999963440E+01 0.  0.
        -12    1    1    2    0    0  0.22291824298E+01 -0.19686595002E+01  0.44947398701E+02  0.45045682640E+02  0.00000000000E+00 0.  1.
         11    1    3    3    0    0  0.61563641437E-01 -0.72851652464E+00 -0.58001220814E+01  0.58460194003E+01  0.51100000000E-03 0. -1.
        -11    1    3    3    0    0  0.11859811736E+01  0.18756119196E+01 -0.33755644433E+02  0.33828508729E+02  0.51100000000E-03 0.  1.
        -12    1    3    3    0    0 -0.34767272449E+01  0.82156410518E+00 -0.53916321858E+01  0.64677892313E+01  0.00000000000E+00 0.  1.
</event>
<event>
 7    1  0.1538805E-008  0.4614232E+02  0.7816164E-02  0.1320468E+00
        -11   -1    0    0    0    0  0.00000000000E+00  0.00000000000E+00  0.45593999997E+02  0.45594000000E+02  0.51100000000E-03 0.  1.
         11   -1    0    0    0    0 -0.00000000000E+00 -0.00000000000E+00 -0.45593999997E+02  0.45594000000E+02  0.51100000000E-03 0. -1.
    9900012    2    1    2    0    0 -0.27331625777E+02 -0.32492149730E+02 -0.15045131235E+02  0.46142317238E+02  0.99999952262E+01 0.  0.
        -12    1    1    2    0    0  0.27331625777E+02  0.32492149730E+02  0.15045131235E+02  0.45045682762E+02  0.00000000000E+00 0.  1.
         11    1    3    3    0    0 -0.11376924681E+02 -0.17638317116E+02 -0.96040694019E+01  0.23082088190E+02  0.51100000000E-03 0. -1.
        -11    1    3    3    0    0 -0.62973495590E+01 -0.27719154408E+01 -0.24688782145E+01  0.73099580422E+01  0.51100000000E-03 0.  1.
        -12    1    3    3    0    0 -0.96573515368E+01 -0.12081917172E+02 -0.29721836186E+01  0.15750271005E+02  0.00000000000E+00 0.  1.
</event>
<event>
 7    1  0.1538805E-008  0.4614232E+02  0.7816164E-02  0.1320468E+00
        -11   -1    0    0    0    0  0.00000000000E+00  0.00000000000E+00  0.45593999997E+02  0.45594000000E+02  0.51100000000E-03 0. -1.
         11   -1    0    0    0    0 -0.00000000000E+00 -0.00000000000E+00 -0.45593999997E+02  0.45594000000E+02  0.51100000000E-03 0.  1.
    9900012    2    1    2    0    0 -0.36825033579E+02  0.15396629079E+02  0.20879991714E+02  0.46142319418E+02  0.10000015112E+02 0.  0.
        -12    1    1    2    0    0  0.36825033579E+02 -0.15396629079E+02 -0.20879991714E+02  0.45045680582E+02  0.00000000000E+00 0.  1.
         11    1    3    3    0    0 -0.35325291980E+01  0.39376176647E+01  0.43138406503E+01  0.68258931156E+01  0.51100000000E-03 0. -1.
        -11    1    3    3    0    0 -0.27767053135E+02  0.99327569833E+01  0.11456498204E+02  0.31637323724E+02  0.51100000000E-03 0.  1.
        -12    1    3    3    0    0 -0.55254512461E+01  0.15262544306E+01  0.51096528600E+01  0.76791025785E+01  0.00000000000E+00 0.  1.
</event>
<event>
 7    1  0.1538805E-008  0.4614232E+02  0.7816164E-02  0.1320468E+00
        -11   -1    0    0    0    0  0.00000000000E+00  0.00000000000E+00  0.45593999997E+02  0.45594000000E+02  0.51100000000E-03 0. -1.
         11   -1    0    0    0    0 -0.00000000000E+00 -0.00000000000E+00 -0.45593999997E+02  0.45594000000E+02  0.51100000000E-03 0.  1.
    9900012    2    1    2    0    0  0.34454406092E+01  0.32361477848E+02  0.31144456193E+02  0.46142318064E+02  0.10000002760E+02 0.  0.
        -12    1    1    2    0    0 -0.34454406092E+01 -0.32361477848E+02 -0.31144456193E+02  0.45045681936E+02  0.00000000000E+00 0.  1.
         11    1    3    3    0    0  0.41242679374E+01  0.11927160812E+02  0.87300124841E+01  0.15345353345E+02  0.51100000000E-03 0. -1.
        -11    1    3    3    0    0 -0.24478646871E+01  0.10536110607E+02  0.92552599391E+01  0.14235923049E+02  0.51100000000E-03 0.  1.
         12    1    3    3    0    0  0.17690373589E+01  0.98982064295E+01  0.13159183770E+02  0.16561041670E+02  0.00000000000E+00 0. -1.
</event>
<event>
 7    1  0.1538805E-008  0.4614232E+02  0.7816164E-02  0.1320468E+00
        -11   -1    0    0    0    0  0.00000000000E+00  0.00000000000E+00  0.45593999997E+02  0.45594000000E+02  0.51100000000E-03 0.  1.
         11   -1    0    0    0    0 -0.00000000000E+00 -0.00000000000E+00 -0.45593999997E+02  0.45594000000E+02  0.51100000000E-03 0. -1.
    9900012    2    1    2    0    0  0.22955385197E+00  0.44961012439E+02  0.27510158626E+01  0.46142318489E+02  0.10000006639E+02 0.  0.
        -12    1    1    2    0    0 -0.22955385197E+00 -0.44961012439E+02 -0.27510158626E+01  0.45045681511E+02  0.00000000000E+00 0.  1.
         11    1    3    3    0    0  0.23453729587E+01  0.41076317181E+02  0.25790251627E+01  0.41223973347E+02  0.51100000000E-03 0. -1.
        -11    1    3    3    0    0 -0.24395376875E+01  0.29986241006E+01 -0.27309595076E+00  0.38752641568E+01  0.51100000000E-03 0.  1.
        -12    1    3    3    0    0  0.32371858083E+00  0.88607115684E+00  0.44508665063E+00  0.10430809849E+01  0.00000000000E+00 0.  1.
</event>
<event>
 7    1  0.1538805E-008  0.4614232E+02  0.7816164E-02  0.1320468E+00
        -11   -1    0    0    0    0  0.00000000000E+00  0.00000000000E+00  0.45593999997E+02  0.45594000000E+02  0.51100000000E-03 0.  1.
         11   -1    0    0    0    0 -0.00000000000E+00 -0.00000000000E+00 -0.45593999997E+02  0.45594000000E+02  0.51100000000E-03 0. -1.
    9900012    2    1    2    0    0 -0.72081568132E+01 -0.34646681188E+02 -0.27870477335E+02  0.46142317089E+02  0.99999938756E+01 0.  0.
        -12    1    1    2    0    0  0.72081568132E+01  0.34646681188E+02  0.27870477335E+02  0.45045682911E+02  0.00000000000E+00 0.  1.
         11    1    3    3    0    0 -0.20142834749E+01 -0.27547690933E+02 -0.23143163041E+02  0.36035241216E+02  0.51100000000E-03 0. -1.
        -11    1    3    3    0    0 -0.47554241194E+01 -0.57199553603E+01 -0.43276486725E+01  0.86058405268E+01  0.51100000000E-03 0.  1.
         12    1    3    3    0    0 -0.43844921895E+00 -0.13790348947E+01 -0.39966562162E+00  0.15012353471E+01  0.00000000000E+00 0. -1.
</event>
<event>
 7    1  0.1538805E-008  0.4614232E+02  0.7816164E-02  0.1320468E+00
        -11   -1    0    0    0    0  0.00000000000E+00  0.00000000000E+00  0.45593999997E+02  0.45594000000E+02  0.51100000000E-03 0.  1.
         11   -1    0    0    0    0 -0.00000000000E+00 -0.00000000000E+00 -0.45593999997E+02  0.45594000000E+02  0.51100000000E-03 0. -1.
    9900012    2    1    2    0    0  0.81685700182E+01 -0.41420669709E+02 -0.15707201043E+02  0.46142316745E+02  0.99999907317E+01 0.  0.
        -12    1    1    2    0    0 -0.81685700182E+01  0.41420669709E+02  0.15707201043E+02  0.45045683255E+02  0.00000000000E+00 0.  1.
         11    1    3    3    0    0  0.29958210577E+01 -0.18909321042E+02 -0.12313602319E+02  0.22763175710E+02  0.51100000000E-03 0. -1.
        -11    1    3    3    0    0  0.32541760885E+01 -0.11658479932E+02 -0.20478574451E+01  0.12276136881E+02  0.51100000000E-03 0.  1.
         12    1    3    3    0    0  0.19185728720E+01 -0.10852868735E+02 -0.13457412797E+01  0.11103004154E+02  0.00000000000E+00 0. -1.
</event>
<event>
 7    1  0.1538805E-008  0.4614232E+02  0.7816164E-02  0.1320468E+00
        -11   -1    0    0    0    0  0.00000000000E+00  0.00000000000E+00  0.45593999997E+02  0.45594000000E+02  0.51100000000E-03 0.  1.
         11   -1    0    0    0    0 -0.00000000000E+00 -0.00000000000E+00 -0.45593999997E+02  0.45594000000E+02  0.51100000000E-03 0. -1.
    9900012    2    1    2    0    0  0.29283947385E+02 -0.42327998999E+01 -0.33965384050E+02  0.46142317819E+02  0.10000000530E+02 0.  0.
        -12    1    1    2    0    0 -0.29283947385E+02  0.42327998999E+01  0.33965384050E+02  0.45045682181E+02  0.00000000000E+00 0.  1.
         11    1    3    3    0    0  0.22835340134E+02 -0.26398573441E+01 -0.26826015077E+02  0.35327845830E+02  0.51100000000E-03 0. -1.
        -11    1    3    3    0    0 -0.41913795051E+00  0.57601841566E+00 -0.15229334440E+01  0.16813091246E+01  0.51100000000E-03 0.  1.
         12    1    3    3    0    0  0.68677452021E+01 -0.21689609714E+01 -0.56164355294E+01  0.91331628647E+01  0.00000000000E+00 0. -1.
</event>
<event>
 7    1  0.1538805E-008  0.4614232E+02  0.7816164E-02  0.1320468E+00
        -11   -1    0    0    0    0  0.00000000000E+00  0.00000000000E+00  0.45593999997E+02  0.45594000000E+02  0.51100000000E-03 0. -1.
         11   -1    0    0    0    0 -0.00000000000E+00 -0.00000000000E+00 -0.45593999997E+02  0.45594000000E+02  0.51100000000E-03 0.  1.
    9900012    2    1    2    0    0 -0.32090842769E+02 -0.31463764436E+02  0.30533259316E+01  0.46142318061E+02  0.10000002736E+02 0.  0.
        -12    1    1    2    0    0  0.32090842769E+02  0.31463764436E+02 -0.30533259316E+01  0.45045681939E+02  0.00000000000E+00 0.  1.
         11    1    3    3    0    0 -0.25200903399E+01 -0.61387668144E+01 -0.11898262081E+01  0.67417356808E+01  0.51100000000E-03 0. -1.
        -11    1    3    3    0    0 -0.64259707963E+01 -0.33236171999E+01  0.58141360924E+00  0.72579317999E+01  0.51100000000E-03 0.  1.
         12    1    3    3    0    0 -0.23144781632E+02 -0.22001380422E+02  0.36617385305E+01  0.32142650580E+02  0.00000000000E+00 0. -1.
</event>
<event>
 7    1  0.1538805E-008  0.4614232E+02  0.7816164E-02  0.1320468E+00
        -11   -1    0    0    0    0  0.00000000000E+00  0.00000000000E+00  0.45593999997E+02  0.45594000000E+02  0.51100000000E-03 0.  1.
         11   -1    0    0    0    0 -0.00000000000E+00 -0.00000000000E+00 -0.45593999997E+02  0.45594000000E+02  0.51100000000E-03 0. -1.
    9900012    2    1    2    0    0 -0.13573002182E+02  0.27148952985E+02 -0.33283951205E+02  0.46142318251E+02  0.10000004466E+02 0.  0.
        -12    1    1    2    0    0  0.13573002182E+02 -0.27148952985E+02  0.33283951205E+02  0.45045681749E+02  0.00000000000E+00 0.  1.
         11    1    3    3    0    0 -0.18032694017E+01  0.16607640756E+01 -0.23684754034E+00  0.24629281087E+01  0.51100000000E-03 0. -1.
        -11    1    3    3    0    0 -0.88751702342E+00  0.71787333981E+01 -0.92533787241E+01  0.11745080576E+02  0.51100000000E-03 0.  1.
         12    1    3    3    0    0 -0.10882215757E+02  0.18309455511E+02 -0.23793724941E+02  0.31934309566E+02  0.00000000000E+00 0. -1.
</event>
<event>
 7    1  0.1538805E-008  0.4614230E+02  0.7816164E-02  0.1320468E+00
        -11   -1    0    0    0    0  0.00000000000E+00  0.00000000000E+00  0.45593999997E+02  0.45594000000E+02  0.51100000000E-03 0.  1.
         11   -1    0    0    0    0 -0.00000000000E+00 -0.00000000000E+00 -0.45593999997E+02  0.45594000000E+02  0.51100000000E-03 0. -1.
    9900012    2    1    2    0    0  0.29787218968E+02 -0.15685767105E+02 -0.29929804791E+02  0.46142301889E+02  0.99998552599E+01 0.  0.
        -12    1    1    2    0    0 -0.29787218968E+02  0.15685767105E+02  0.29929804791E+02  0.45045698111E+02  0.00000000000E+00 0.  1.
         11    1    3    3    0    0  0.24483023591E+02 -0.12475209444E+02 -0.18663251296E+02  0.33216957176E+02  0.51100000000E-03 0. -1.
        -11    1    3    3    0    0  0.90259036780E+00 -0.58049462094E-01 -0.19578576093E+01  0.21566747069E+01  0.51100000000E-03 0.  1.
         12    1    3    3    0    0  0.44016050096E+01 -0.31525081991E+01 -0.93086958853E+01  0.10768670006E+02  0.00000000000E+00 0. -1.
</event>
<event>
 7    1  0.1538805E-008  0.4614232E+02  0.7816164E-02  0.1320468E+00
        -11   -1    0    0    0    0  0.00000000000E+00  0.00000000000E+00  0.45593999997E+02  0.45594000000E+02  0.51100000000E-03 0.  1.
         11   -1    0    0    0    0 -0.00000000000E+00 -0.00000000000E+00 -0.45593999997E+02  0.45594000000E+02  0.51100000000E-03 0. -1.
    9900012    2    1    2    0    0 -0.36848905426E+02  0.17345518308E+02 -0.19245888532E+02  0.46142322496E+02  0.10000043172E+02 0.  0.
        -12    1    1    2    0    0  0.36848905426E+02 -0.17345518308E+02  0.19245888532E+02  0.45045677504E+02  0.00000000000E+00 0.  1.
         11    1    3    3    0    0 -0.18224573811E+02  0.94680385586E+01 -0.13730226931E+02  0.24704209693E+02  0.51100000000E-03 0. -1.
        -11    1    3    3    0    0 -0.10471853182E+01  0.14028536242E+01  0.39765746336E+00  0.17951955607E+01  0.51100000000E-03 0.  1.
        -12    1    3    3    0    0 -0.17577146297E+02  0.64746261251E+01 -0.59133190638E+01  0.19642917242E+02  0.00000000000E+00 0.  1.
</event>
<event>
 7    1  0.1538805E-008  0.4614232E+02  0.7816164E-02  0.1320468E+00
        -11   -1    0    0    0    0  0.00000000000E+00  0.00000000000E+00  0.45593999997E+02  0.45594000000E+02  0.51100000000E-03 0. -1.
         11   -1    0    0    0    0 -0.00000000000E+00 -0.00000000000E+00 -0.45593999997E+02  0.45594000000E+02  0.51100000000E-03 0.  1.
    9900012    2    1    2    0    0  0.10988963575E+02 -0.11902945136E+02  0.42031846100E+02  0.46142317522E+02  0.99999978202E+01 0.  0.
        -12    1    1    2    0    0 -0.10988963575E+02  0.11902945136E+02 -0.42031846100E+02  0.45045682478E+02  0.00000000000E+00 0.  1.
         11    1    3    3    0    0  0.75420582431E+01 -0.91696667519E+01  0.30435279403E+02  0.32669124009E+02  0.51100000000E-03 0. -1.
        -11    1    3    3    0    0  0.47775275014E+01 -0.25150385608E+01  0.10143333486E+02  0.11490752911E+02  0.51100000000E-03 0.  1.
         12    1    3    3    0    0 -0.13306221696E+01 -0.21823982366E+00  0.14532332104E+01  0.19824406026E+01  0.00000000000E+00 0. -1.
</event>
<event>
 7    1  0.1538805E-008  0.4614232E+02  0.7816164E-02  0.1320468E+00
        -11   -1    0    0    0    0  0.00000000000E+00  0.00000000000E+00  0.45593999997E+02  0.45594000000E+02  0.51100000000E-03 0. -1.
         11   -1    0    0    0    0 -0.00000000000E+00 -0.00000000000E+00 -0.45593999997E+02  0.45594000000E+02  0.51100000000E-03 0.  1.
    9900012    2    1    2    0    0 -0.35759743182E+02  0.88221110122E+01  0.25933080176E+02  0.46142317382E+02  0.99999965387E+01 0.  0.
        -12    1    1    2    0    0  0.35759743182E+02 -0.88221110122E+01 -0.25933080176E+02  0.45045682618E+02  0.00000000000E+00 0.  1.
         11    1    3    3    0    0 -0.15816057923E+02  0.53936028319E+01  0.88083131137E+01  0.18889812596E+02  0.51100000000E-03 0. -1.
        -11    1    3    3    0    0 -0.58258027065E+01 -0.14774490296E+01  0.31262658951E+01  0.67746860826E+01  0.51100000000E-03 0.  1.
        -12    1    3    3    0    0 -0.14117882552E+02  0.49059572098E+01  0.13998501167E+02  0.20477818703E+02  0.00000000000E+00 0.  1.
</event>
<event>
 7    1  0.1538805E-008  0.4614231E+02  0.7816164E-02  0.1320468E+00
        -11   -1    0    0    0    0  0.00000000000E+00  0.00000000000E+00  0.45593999997E+02  0.45594000000E+02  0.51100000000E-03 0. -1.
         11   -1    0    0    0    0 -0.00000000000E+00 -0.00000000000E+00 -0.45593999997E+02  0.45594000000E+02  0.51100000000E-03 0.  1.
    9900012    2    1    2    0    0  0.20239062233E+02 -0.14598679929E+02  0.37501636329E+02  0.46142314046E+02  0.99999661182E+01 0.  0.
        -12    1    1    2    0    0 -0.20239062233E+02  0.14598679929E+02 -0.37501636329E+02  0.45045685954E+02  0.00000000000E+00 0.  1.
         11    1    3    3    0    0  0.69272680624E+01 -0.65585613354E+01  0.18026111571E+02  0.20394667642E+02  0.51100000000E-03 0. -1.
        -11    1    3    3    0    0  0.11978983016E+02 -0.63988909704E+01  0.12496734018E+02  0.18455627898E+02  0.51100000000E-03 0.  1.
        -12    1    3    3    0    0  0.13328111550E+01 -0.16412276235E+01  0.69787907402E+01  0.72920185054E+01  0.00000000000E+00 0.  1.
</event>
<event>
 7    1  0.1538805E-008  0.4614232E+02  0.7816164E-02  0.1320468E+00
        -11   -1    0    0    0    0  0.00000000000E+00  0.00000000000E+00  0.45593999997E+02  0.45594000000E+02  0.51100000000E-03 0.  1.
         11   -1    0    0    0    0 -0.00000000000E+00 -0.00000000000E+00 -0.45593999997E+02  0.45594000000E+02  0.51100000000E-03 0. -1.
    9900012    2    1    2    0    0  0.27605205910E+02 -0.33971948975E+02  0.10628874202E+02  0.46142315664E+02  0.99999808777E+01 0.  0.
        -12    1    1    2    0    0 -0.27605205910E+02  0.33971948975E+02 -0.10628874202E+02  0.45045684336E+02  0.00000000000E+00 0.  1.
         11    1    3    3    0    0  0.24404860437E+02 -0.24044247904E+02  0.82594755383E+01  0.35241197577E+02  0.51100000000E-03 0. -1.
        -11    1    3    3    0    0  0.20968354370E+01 -0.71083936124E+01  0.26259949617E+01  0.78626858260E+01  0.51100000000E-03 0.  1.
         12    1    3    3    0    0  0.11035100358E+01 -0.28193074591E+01 -0.25659629807E+00  0.30384322615E+01  0.00000000000E+00 0. -1.
</event>
<event>
 7    1  0.1538805E-008  0.4614232E+02  0.7816164E-02  0.1320468E+00
        -11   -1    0    0    0    0  0.00000000000E+00  0.00000000000E+00  0.45593999997E+02  0.45594000000E+02  0.51100000000E-03 0.  1.
         11   -1    0    0    0    0 -0.00000000000E+00 -0.00000000000E+00 -0.45593999997E+02  0.45594000000E+02  0.51100000000E-03 0. -1.
    9900012    2    1    2    0    0  0.10721903495E+02 -0.39147378467E+02 -0.19535532565E+02  0.46142317766E+02  0.10000000042E+02 0.  0.
        -12    1    1    2    0    0 -0.10721903495E+02  0.39147378467E+02  0.19535532565E+02  0.45045682234E+02  0.00000000000E+00 0.  1.
         11    1    3    3    0    0  0.16056238731E+01 -0.10377440430E+02 -0.78498812396E+01  0.13110680136E+02  0.51100000000E-03 0. -1.
        -11    1    3    3    0    0  0.77503702401E+01 -0.22207443648E+02 -0.11826789116E+02  0.26327015275E+02  0.51100000000E-03 0.  1.
        -12    1    3    3    0    0  0.13659093813E+01 -0.65624943890E+01  0.14113779030E+00  0.67046223547E+01  0.00000000000E+00 0.  1.
</event>
<event>
 7    1  0.1538805E-008  0.4614232E+02  0.7816164E-02  0.1320468E+00
        -11   -1    0    0    0    0  0.00000000000E+00  0.00000000000E+00  0.45593999997E+02  0.45594000000E+02  0.51100000000E-03 0.  1.
         11   -1    0    0    0    0 -0.00000000000E+00 -0.00000000000E+00 -0.45593999997E+02  0.45594000000E+02  0.51100000000E-03 0. -1.
    9900012    2    1    2    0    0  0.21669411513E+02  0.17107113928E+02 -0.35593493736E+02  0.46142317203E+02  0.99999949101E+01 0.  0.
        -12    1    1    2    0    0 -0.21669411513E+02 -0.17107113928E+02  0.35593493736E+02  0.45045682797E+02  0.00000000000E+00 0.  1.
         11    1    3    3    0    0  0.28409593286E+01 -0.75731672644E+00 -0.52881382682E+01  0.60505359379E+01  0.51100000000E-03 0. -1.
        -11    1    3    3    0    0  0.88824670959E+01  0.10599066367E+02 -0.14262004118E+02  0.19865628389E+02  0.51100000000E-03 0.  1.
        -12    1    3    3    0    0  0.99459850890E+01  0.72653642876E+01 -0.16043351351E+02  0.20226152876E+02  0.00000000000E+00 0.  1.
</event>
<event>
 7    1  0.1538805E-008  0.4614231E+02  0.7816164E-02  0.1320468E+00
        -11   -1    0    0    0    0  0.00000000000E+00  0.00000000000E+00  0.45593999997E+02  0.45594000000E+02  0.51100000000E-03 0. -1.
         11   -1    0    0    0    0 -0.00000000000E+00 -0.00000000000E+00 -0.45593999997E+02  0.45594000000E+02  0.51100000000E-03 0.  1.
    9900012    2    1    2    0    0 -0.28202745999E+02  0.17039224906E+02  0.30714553453E+02  0.46142313624E+02  0.99999622771E+01 0.  0.
        -12    1    1    2    0    0  0.28202745999E+02 -0.17039224906E+02 -0.30714553453E+02  0.45045686376E+02  0.00000000000E+00 0.  1.
         11    1    3    3    0    0 -0.62463185046E+01  0.76947581229E+01  0.56154706599E+01  0.11391194337E+02  0.51100000000E-03 0.  1.
        -11    1    3    3    0    0 -0.21851242498E+02  0.89543469307E+01  0.24495636593E+02  0.34024892947E+02  0.51100000000E-03 0. -1.
         12    1    3    3    0    0 -0.10518499668E+00  0.39011985194E+00  0.60344619935E+00  0.72622634069E+00  0.00000000000E+00 0. -1.
</event>
<event>
 7    1  0.1538805E-008  0.4614232E+02  0.7816164E-02  0.1320468E+00
        -11   -1    0    0    0    0  0.00000000000E+00  0.00000000000E+00  0.45593999997E+02  0.45594000000E+02  0.51100000000E-03 0. -1.
         11   -1    0    0    0    0 -0.00000000000E+00 -0.00000000000E+00 -0.45593999997E+02  0.45594000000E+02  0.51100000000E-03 0.  1.
    9900012    2    1    2    0    0  0.37759188817E+02  0.67289218851E+01 -0.23623689711E+02  0.46142318238E+02  0.10000004347E+02 0.  0.
        -12    1    1    2    0    0 -0.37759188817E+02 -0.67289218851E+01  0.23623689711E+02  0.45045681762E+02  0.00000000000E+00 0.  1.
         11    1    3    3    0    0  0.29862287689E+02  0.35421098826E+01 -0.18497502804E+02  0.35305245768E+02  0.51100000000E-03 0. -1.
        -11    1    3    3    0    0  0.20164925129E+01  0.12667853024E+01 -0.38405790864E+01  0.45189639340E+01  0.51100000000E-03 0.  1.
         12    1    3    3    0    0  0.58804086151E+01  0.19200267001E+01 -0.12856078201E+01  0.63181085363E+01  0.00000000000E+00 0. -1.
</event>
<event>
 7    1  0.1538805E-008  0.4614232E+02  0.7816164E-02  0.1320468E+00
        -11   -1    0    0    0    0  0.00000000000E+00  0.00000000000E+00  0.45593999997E+02  0.45594000000E+02  0.51100000000E-03 0. -1.
         11   -1    0    0    0    0 -0.00000000000E+00 -0.00000000000E+00 -0.45593999997E+02  0.45594000000E+02  0.51100000000E-03 0.  1.
    9900012    2    1    2    0    0  0.35385870043E+02 -0.55327519722E+01  0.27319265148E+02  0.46142318839E+02  0.10000009825E+02 0.  0.
        -12    1    1    2    0    0 -0.35385870043E+02  0.55327519722E+01 -0.27319265148E+02  0.45045681161E+02  0.00000000000E+00 0.  1.
         11    1    3    3    0    0  0.52706295397E+01 -0.96403347140E-01  0.16349233166E+01  0.55192213095E+01  0.51100000000E-03 0. -1.
        -11    1    3    3    0    0  0.28924227937E+01  0.13279050153E+01  0.12387540710E+01  0.34152530297E+01  0.51100000000E-03 0.  1.
         12    1    3    3    0    0  0.27222817709E+02 -0.67642536403E+01  0.24445587760E+02  0.37207844499E+02  0.00000000000E+00 0. -1.
</event>
<event>
 7    1  0.1538805E-008  0.4614232E+02  0.7816164E-02  0.1320468E+00
        -11   -1    0    0    0    0  0.00000000000E+00  0.00000000000E+00  0.45593999997E+02  0.45594000000E+02  0.51100000000E-03 0.  1.
         11   -1    0    0    0    0 -0.00000000000E+00 -0.00000000000E+00 -0.45593999997E+02  0.45594000000E+02  0.51100000000E-03 0. -1.
    9900012    2    1    2    0    0  0.16668024194E+02  0.52025467020E+01 -0.41523775947E+02  0.46142317725E+02  0.99999996716E+01 0.  0.
        -12    1    1    2    0    0 -0.16668024194E+02 -0.52025467020E+01  0.41523775947E+02  0.45045682275E+02  0.00000000000E+00 0.  1.
         11    1    3    3    0    0 -0.10137600101E+00  0.99243340626E+00 -0.95666460387E+00  0.13821753090E+01  0.51100000000E-03 0. -1.
        -11    1    3    3    0    0 -0.30321758007E+00 -0.91478203937E+00 -0.11535358219E+01  0.15031341371E+01  0.51100000000E-03 0.  1.
         12    1    3    3    0    0  0.17072617775E+02  0.51248953351E+01 -0.39413575521E+02  0.43257008279E+02  0.00000000000E+00 0. -1.
</event>
<event>
 7    1  0.1538805E-008  0.4614232E+02  0.7816164E-02  0.1320468E+00
        -11   -1    0    0    0    0  0.00000000000E+00  0.00000000000E+00  0.45593999997E+02  0.45594000000E+02  0.51100000000E-03 0.  1.
         11   -1    0    0    0    0 -0.00000000000E+00 -0.00000000000E+00 -0.45593999997E+02  0.45594000000E+02  0.51100000000E-03 0. -1.
    9900012    2    1    2    0    0  0.23611120308E+02 -0.21791583766E+02 -0.31571432549E+02  0.46142317872E+02  0.10000001008E+02 0.  0.
        -12    1    1    2    0    0 -0.23611120308E+02  0.21791583766E+02  0.31571432549E+02  0.45045682128E+02  0.00000000000E+00 0.  1.
         11    1    3    3    0    0  0.11165450759E+02 -0.82453941218E+01 -0.11356164222E+02  0.17933663345E+02  0.51100000000E-03 0. -1.
        -11    1    3    3    0    0  0.59708510926E+01 -0.89166627971E+01 -0.71010246964E+01  0.12867886004E+02  0.51100000000E-03 0.  1.
         12    1    3    3    0    0  0.64748184563E+01 -0.46295268470E+01 -0.13114243630E+02  0.15340768522E+02  0.00000000000E+00 0. -1.
</event>
<event>
 7    1  0.1538805E-008  0.4614232E+02  0.7816164E-02  0.1320468E+00
        -11   -1    0    0    0    0  0.00000000000E+00  0.00000000000E+00  0.45593999997E+02  0.45594000000E+02  0.51100000000E-03 0.  1.
         11   -1    0    0    0    0 -0.00000000000E+00 -0.00000000000E+00 -0.45593999997E+02  0.45594000000E+02  0.51100000000E-03 0. -1.
    9900012    2    1    2    0    0  0.48417152617E+01 -0.44226005441E+01 -0.44565815011E+02  0.46142317967E+02  0.10000001876E+02 0.  0.
        -12    1    1    2    0    0 -0.48417152617E+01  0.44226005441E+01  0.44565815011E+02  0.45045682033E+02  0.00000000000E+00 0.  1.
         11    1    3    3    0    0  0.27480088265E+01  0.25087382798E+01 -0.22591613649E+02  0.22895989339E+02  0.51100000000E-03 0. -1.
        -11    1    3    3    0    0  0.24956779698E+01 -0.49895932260E+01 -0.15388420147E+02  0.16368504024E+02  0.51100000000E-03 0.  1.
         12    1    3    3    0    0 -0.40197153463E+00 -0.19417455979E+01 -0.65857812147E+01  0.68778246045E+01  0.00000000000E+00 0. -1.
</event>
<event>
 7    1  0.1538805E-008  0.4614231E+02  0.7816164E-02  0.1320468E+00
        -11   -1    0    0    0    0  0.00000000000E+00  0.00000000000E+00  0.45593999997E+02  0.45594000000E+02  0.51100000000E-03 0. -1.
         11   -1    0    0    0    0 -0.00000000000E+00 -0.00000000000E+00 -0.45593999997E+02  0.45594000000E+02  0.51100000000E-03 0.  1.
    9900012    2    1    2    0    0  0.18023447147E+02  0.28922404390E+02  0.29457832998E+02  0.46142311553E+02  0.99999433856E+01 0.  0.
        -12    1    1    2    0    0 -0.18023447147E+02 -0.28922404390E+02 -0.29457832998E+02  0.45045688447E+02  0.00000000000E+00 0.  1.
         11    1    3    3    0    0  0.46979225852E+01  0.10957315907E+02  0.16112395430E+02  0.20043516040E+02  0.51100000000E-03 0. -1.
        -11    1    3    3    0    0  0.37684110382E+01  0.44433168888E+01  0.42056820383E+01  0.71855235296E+01  0.51100000000E-03 0.  1.
         12    1    3    3    0    0  0.95571135240E+01  0.13521771593E+02  0.91397555300E+01  0.18913271982E+02  0.00000000000E+00 0. -1.
</event>
<event>
 7    1  0.1538805E-008  0.4614232E+02  0.7816164E-02  0.1320468E+00
        -11   -1    0    0    0    0  0.00000000000E+00  0.00000000000E+00  0.45593999997E+02  0.45594000000E+02  0.51100000000E-03 0.  1.
         11   -1    0    0    0    0 -0.00000000000E+00 -0.00000000000E+00 -0.45593999997E+02  0.45594000000E+02  0.51100000000E-03 0. -1.
    9900012    2    1    2    0    0  0.36431861853E+02  0.24774938925E+02 -0.93827166049E+01  0.46142317324E+02  0.99999960149E+01 0.  0.
        -12    1    1    2    0    0 -0.36431861853E+02 -0.24774938925E+02  0.93827166049E+01  0.45045682676E+02  0.00000000000E+00 0.  1.
         11    1    3    3    0    0  0.25594872089E+01  0.42137157066E+01 -0.13913179788E+01  0.51227083469E+01  0.51100000000E-03 0. -1.
        -11    1    3    3    0    0  0.24827635381E+02  0.16276092020E+02 -0.88398212703E+01  0.30975233500E+02  0.51100000000E-03 0.  1.
        -12    1    3    3    0    0  0.90447392635E+01  0.42851311989E+01  0.84842264425E+00  0.10044375477E+02  0.00000000000E+00 0.  1.
</event>
<event>
 7    1  0.1538805E-008  0.4614232E+02  0.7816164E-02  0.1320468E+00
        -11   -1    0    0    0    0  0.00000000000E+00  0.00000000000E+00  0.45593999997E+02  0.45594000000E+02  0.51100000000E-03 0.  1.
         11   -1    0    0    0    0 -0.00000000000E+00 -0.00000000000E+00 -0.45593999997E+02  0.45594000000E+02  0.51100000000E-03 0. -1.
    9900012    2    1    2    0    0  0.38379689360E+02 -0.18076014402E+02 -0.15144987746E+02  0.46142317567E+02  0.99999982339E+01 0.  0.
        -12    1    1    2    0    0 -0.38379689360E+02  0.18076014402E+02  0.15144987746E+02  0.45045682433E+02  0.00000000000E+00 0.  1.
         11    1    3    3    0    0  0.12516029994E+02 -0.53976544875E+01 -0.96404686515E+01  0.16695038690E+02  0.51100000000E-03 0. -1.
        -11    1    3    3    0    0  0.57784623751E+01 -0.28943212789E+01 -0.10999308820E+00  0.64637312620E+01  0.51100000000E-03 0.  1.
         12    1    3    3    0    0  0.20085196990E+02 -0.97840386357E+01 -0.53945260060E+01  0.22983547615E+02  0.00000000000E+00 0. -1.
</event>
<event>
 7    1  0.1538805E-008  0.4614232E+02  0.7816164E-02  0.1320468E+00
        -11   -1    0    0    0    0  0.00000000000E+00  0.00000000000E+00  0.45593999997E+02  0.45594000000E+02  0.51100000000E-03 0. -1.
         11   -1    0    0    0    0 -0.00000000000E+00 -0.00000000000E+00 -0.45593999997E+02  0.45594000000E+02  0.51100000000E-03 0.  1.
    9900012    2    1    2    0    0 -0.39030100048E+02  0.22386349449E+02  0.21485054287E+01  0.46142318442E+02  0.10000006211E+02 0.  0.
        -12    1    1    2    0    0  0.39030100048E+02 -0.22386349449E+02 -0.21485054287E+01  0.45045681558E+02  0.00000000000E+00 0.  1.
         11    1    3    3    0    0 -0.10433072492E+02  0.28095674603E+01  0.24691557411E+01  0.11083293791E+02  0.51100000000E-03 0. -1.
        -11    1    3    3    0    0 -0.26861681612E+02  0.19602389049E+02 -0.78341810864E+00  0.33262852248E+02  0.51100000000E-03 0.  1.
        -12    1    3    3    0    0 -0.17353459441E+01 -0.25607060719E-01  0.46276779624E+00  0.17961724028E+01  0.00000000000E+00 0.  1.
</event>
<event>
 7    1  0.1538805E-008  0.4614232E+02  0.7816164E-02  0.1320468E+00
        -11   -1    0    0    0    0  0.00000000000E+00  0.00000000000E+00  0.45593999997E+02  0.45594000000E+02  0.51100000000E-03 0.  1.
         11   -1    0    0    0    0 -0.00000000000E+00 -0.00000000000E+00 -0.45593999997E+02  0.45594000000E+02  0.51100000000E-03 0. -1.
    9900012    2    1    2    0    0  0.39118296981E+02 -0.22331195434E+02 -0.43596336197E+00  0.46142317496E+02  0.99999975811E+01 0.  0.
        -12    1    1    2    0    0 -0.39118296981E+02  0.22331195434E+02  0.43596336197E+00  0.45045682504E+02  0.00000000000E+00 0.  1.
         11    1    3    3    0    0 -0.33168120203E-01 -0.29144901488E-01 -0.90160014898E+00  0.90268080695E+00  0.51100000000E-03 0. -1.
        -11    1    3    3    0    0  0.22545196574E+02 -0.15100353251E+02  0.90195006476E-01  0.27135119168E+02  0.51100000000E-03 0.  1.
         12    1    3    3    0    0  0.16606268527E+02 -0.72016972820E+01  0.37544178054E+00  0.18104517520E+02  0.00000000000E+00 0. -1.
</event>
<event>
 7    1  0.1538805E-008  0.4614232E+02  0.7816164E-02  0.1320468E+00
        -11   -1    0    0    0    0  0.00000000000E+00  0.00000000000E+00  0.45593999997E+02  0.45594000000E+02  0.51100000000E-03 0. -1.
         11   -1    0    0    0    0 -0.00000000000E+00 -0.00000000000E+00 -0.45593999997E+02  0.45594000000E+02  0.51100000000E-03 0.  1.
    9900012    2    1    2    0    0 -0.28063527866E+02 -0.34524617715E+02 -0.70429165384E+01  0.46142317654E+02  0.99999990206E+01 0.  0.
        -12    1    1    2    0    0  0.28063527866E+02  0.34524617715E+02  0.70429165384E+01  0.45045682346E+02  0.00000000000E+00 0.  1.
         11    1    3    3    0    0 -0.34975992581E+00  0.38103900101E+00  0.26971452151E+00  0.58332573253E+00  0.51100000000E-03 0.  1.
        -11    1    3    3    0    0 -0.26574179255E+02 -0.30960169816E+02 -0.59527341196E+01  0.41232925701E+02  0.51100000000E-03 0. -1.
         12    1    3    3    0    0 -0.11395886851E+01 -0.39454869002E+01 -0.13598969403E+01  0.43260662199E+01  0.00000000000E+00 0. -1.
</event>
<event>
 7    1  0.1538805E-008  0.4614232E+02  0.7816164E-02  0.1320468E+00
        -11   -1    0    0    0    0  0.00000000000E+00  0.00000000000E+00  0.45593999997E+02  0.45594000000E+02  0.51100000000E-03 0. -1.
         11   -1    0    0    0    0 -0.00000000000E+00 -0.00000000000E+00 -0.45593999997E+02  0.45594000000E+02  0.51100000000E-03 0.  1.
    9900012    2    1    2    0    0  0.64414380125E+01  0.24257054885E+02  0.37406105377E+02  0.46142317024E+02  0.99999932767E+01 0.  0.
        -12    1    1    2    0    0 -0.64414380125E+01 -0.24257054885E+02 -0.37406105377E+02  0.45045682976E+02  0.00000000000E+00 0.  1.
         11    1    3    3    0    0  0.79285973243E+01  0.22217709587E+02  0.34031862270E+02  0.41408416108E+02  0.51100000000E-03 0. -1.
        -11    1    3    3    0    0 -0.13910986082E+01  0.81343350575E+00  0.63638381184E+00  0.17325743918E+01  0.51100000000E-03 0.  1.
        -12    1    3    3    0    0 -0.96060703574E-01  0.12259117921E+01  0.27378592953E+01  0.30013265236E+01  0.00000000000E+00 0.  1.
</event>
<event>
 7    1  0.1538805E-008  0.4614232E+02  0.7816164E-02  0.1320468E+00
        -11   -1    0    0    0    0  0.00000000000E+00  0.00000000000E+00  0.45593999997E+02  0.45594000000E+02  0.51100000000E-03 0. -1.
         11   -1    0    0    0    0 -0.00000000000E+00 -0.00000000000E+00 -0.45593999997E+02  0.45594000000E+02  0.51100000000E-03 0.  1.
    9900012    2    1    2    0    0  0.43457998017E+02 -0.11403929109E+02 -0.32351640615E+01  0.46142317885E+02  0.10000001126E+02 0.  0.
        -12    1    1    2    0    0 -0.43457998017E+02  0.11403929109E+02  0.32351640615E+01  0.45045682115E+02  0.00000000000E+00 0.  1.
         11    1    3    3    0    0  0.17519364227E+02 -0.52764282127E+01 -0.24424105169E+01  0.18458986619E+02  0.51100000000E-03 0. -1.
        -11    1    3    3    0    0  0.90759840097E+01 -0.24019897905E+01 -0.38469595964E+01  0.10146040562E+02  0.51100000000E-03 0.  1.
        -12    1    3    3    0    0  0.16862649780E+02 -0.37255111055E+01  0.30542060518E+01  0.17537290703E+02  0.00000000000E+00 0.  1.
</event>
<event>
 7    1  0.1538805E-008  0.4614232E+02  0.7816164E-02  0.1320468E+00
        -11   -1    0    0    0    0  0.00000000000E+00  0.00000000000E+00  0.45593999997E+02  0.45594000000E+02  0.51100000000E-03 0. -1.
         11   -1    0    0    0    0 -0.00000000000E+00 -0.00000000000E+00 -0.45593999997E+02  0.45594000000E+02  0.51100000000E-03 0.  1.
    9900012    2    1    2    0    0  0.17912016678E+02  0.16691015156E+02  0.37811150501E+02  0.46142318402E+02  0.10000005845E+02 0.  0.
        -12    1    1    2    0    0 -0.17912016678E+02 -0.16691015156E+02 -0.37811150501E+02  0.45045681598E+02  0.00000000000E+00 0.  1.
         11    1    3    3    0    0  0.54322864168E+01  0.29387522540E+01  0.11249658615E+02  0.12833581719E+02  0.51100000000E-03 0. -1.
        -11    1    3    3    0    0  0.53809104852E+01  0.90820751604E+01  0.19843034796E+02  0.22476305681E+02  0.51100000000E-03 0.  1.
         12    1    3    3    0    0  0.70988197758E+01  0.46701877419E+01  0.67184570899E+01  0.10832431002E+02  0.00000000000E+00 0. -1.
</event>
<event>
 7    1  0.1538805E-008  0.4614232E+02  0.7816164E-02  0.1320468E+00
        -11   -1    0    0    0    0  0.00000000000E+00  0.00000000000E+00  0.45593999997E+02  0.45594000000E+02  0.51100000000E-03 0.  1.
         11   -1    0    0    0    0 -0.00000000000E+00 -0.00000000000E+00 -0.45593999997E+02  0.45594000000E+02  0.51100000000E-03 0. -1.
    9900012    2    1    2    0    0 -0.42203583386E+02  0.11565501406E+02  0.10686921420E+02  0.46142316935E+02  0.99999924639E+01 0.  0.
        -12    1    1    2    0    0  0.42203583386E+02 -0.11565501406E+02 -0.10686921420E+02  0.45045683065E+02  0.00000000000E+00 0.  1.
         11    1    3    3    0    0 -0.18682387897E+01 -0.16596318256E-01  0.61607476811E+00  0.19672671385E+01  0.51100000000E-03 0. -1.
        -11    1    3    3    0    0 -0.24349650163E+02  0.10930274980E+02  0.88923505476E+01  0.28132726009E+02  0.51100000000E-03 0.  1.
        -12    1    3    3    0    0 -0.15985694433E+02  0.65182274355E+00  0.11784961040E+01  0.16042323787E+02  0.00000000000E+00 0.  1.
</event>
<event>
 7    1  0.1538805E-008  0.4614231E+02  0.7816164E-02  0.1320468E+00
        -11   -1    0    0    0    0  0.00000000000E+00  0.00000000000E+00  0.45593999997E+02  0.45594000000E+02  0.51100000000E-03 0.  1.
         11   -1    0    0    0    0 -0.00000000000E+00 -0.00000000000E+00 -0.45593999997E+02  0.45594000000E+02  0.51100000000E-03 0. -1.
    9900012    2    1    2    0    0  0.14212139485E+02 -0.32503840453E+02 -0.27760212583E+02  0.46142312575E+02  0.99999527080E+01 0.  0.
        -12    1    1    2    0    0 -0.14212139485E+02  0.32503840453E+02  0.27760212583E+02  0.45045687425E+02  0.00000000000E+00 0.  1.
         11    1    3    3    0    0  0.64878113601E+01 -0.96810631242E+01 -0.10590847252E+02  0.15747403762E+02  0.51100000000E-03 0. -1.
        -11    1    3    3    0    0  0.70295241969E+01 -0.12873674020E+02 -0.73793785155E+01  0.16419528639E+02  0.51100000000E-03 0.  1.
        -12    1    3    3    0    0  0.69480392812E+00 -0.99491033090E+01 -0.97899868157E+01  0.13975380174E+02  0.00000000000E+00 0.  1.
</event>
<event>
 7    1  0.1538805E-008  0.4614232E+02  0.7816164E-02  0.1320468E+00
        -11   -1    0    0    0    0  0.00000000000E+00  0.00000000000E+00  0.45593999997E+02  0.45594000000E+02  0.51100000000E-03 0.  1.
         11   -1    0    0    0    0 -0.00000000000E+00 -0.00000000000E+00 -0.45593999997E+02  0.45594000000E+02  0.51100000000E-03 0. -1.
    9900012    2    1    2    0    0  0.36675457811E+02  0.61645675921E+01 -0.25416973825E+02  0.46142315882E+02  0.99999828605E+01 0.  0.
        -12    1    1    2    0    0 -0.36675457811E+02 -0.61645675921E+01  0.25416973825E+02  0.45045684118E+02  0.00000000000E+00 0.  1.
         11    1    3    3    0    0  0.27059493187E+02  0.58362430773E+01 -0.15552997620E+02  0.31751750188E+02  0.51100000000E-03 0. -1.
        -11    1    3    3    0    0 -0.25348802015E+00 -0.50423694336E+00 -0.40276157822E+00  0.69334567239E+00  0.51100000000E-03 0.  1.
        -12    1    3    3    0    0  0.98694526449E+01  0.83256145818E+00 -0.94612146267E+01  0.13697220021E+02  0.00000000000E+00 0.  1.
</event>
<event>
 7    1  0.1538805E-008  0.4614232E+02  0.7816164E-02  0.1320468E+00
        -11   -1    0    0    0    0  0.00000000000E+00  0.00000000000E+00  0.45593999997E+02  0.45594000000E+02  0.51100000000E-03 0.  1.
         11   -1    0    0    0    0 -0.00000000000E+00 -0.00000000000E+00 -0.45593999997E+02  0.45594000000E+02  0.51100000000E-03 0. -1.
    9900012    2    1    2    0    0  0.16446487959E+02  0.14530265466E+01 -0.41910800324E+02  0.46142318341E+02  0.10000005286E+02 0.  0.
        -12    1    1    2    0    0 -0.16446487959E+02 -0.14530265466E+01  0.41910800324E+02  0.45045681659E+02  0.00000000000E+00 0.  1.
         11    1    3    3    0    0  0.77767151847E+01 -0.33862765406E+01 -0.21414049866E+02  0.23032709346E+02  0.51100000000E-03 0. -1.
        -11    1    3    3    0    0  0.48024564165E+01  0.49020886481E+00 -0.10113714962E+02  0.11206744530E+02  0.51100000000E-03 0.  1.
         12    1    3    3    0    0  0.38673163581E+01  0.43490942224E+01 -0.10383035496E+02  0.11902864465E+02  0.00000000000E+00 0. -1.
</event>
<event>
 7    1  0.1538805E-008  0.4614231E+02  0.7816164E-02  0.1320468E+00
        -11   -1    0    0    0    0  0.00000000000E+00  0.00000000000E+00  0.45593999997E+02  0.45594000000E+02  0.51100000000E-03 0.  1.
         11   -1    0    0    0    0 -0.00000000000E+00 -0.00000000000E+00 -0.45593999997E+02  0.45594000000E+02  0.51100000000E-03 0. -1.
    9900012    2    1    2    0    0  0.58684542762E+01  0.91085379620E+01 -0.43723100848E+02  0.46142314666E+02  0.99999717800E+01 0.  0.
        -12    1    1    2    0    0 -0.58684542762E+01 -0.91085379620E+01  0.43723100848E+02  0.45045685334E+02  0.00000000000E+00 0.  1.
         11    1    3    3    0    0  0.40546718301E+01  0.31491867608E+01 -0.17107377057E+02  0.17861133529E+02  0.51100000000E-03 0. -1.
        -11    1    3    3    0    0 -0.14106243213E+01  0.61712678207E+01 -0.17590733363E+02  0.18695141294E+02  0.51100000000E-03 0.  1.
         12    1    3    3    0    0  0.32244067675E+01 -0.21191661949E+00 -0.90249904285E+01  0.95860398440E+01  0.00000000000E+00 0. -1.
</event>
<event>
 7    1  0.1538805E-008  0.4614232E+02  0.7816164E-02  0.1320468E+00
        -11   -1    0    0    0    0  0.00000000000E+00  0.00000000000E+00  0.45593999997E+02  0.45594000000E+02  0.51100000000E-03 0. -1.
         11   -1    0    0    0    0 -0.00000000000E+00 -0.00000000000E+00 -0.45593999997E+02  0.45594000000E+02  0.51100000000E-03 0.  1.
    9900012    2    1    2    0    0 -0.32064202781E+02 -0.31277338009E+02  0.47674432976E+01  0.46142317760E+02  0.99999999871E+01 0.  0.
        -12    1    1    2    0    0  0.32064202781E+02  0.31277338009E+02 -0.47674432976E+01  0.45045682240E+02  0.00000000000E+00 0.  1.
         11    1    3    3    0    0 -0.10045518223E+02 -0.10511739706E+02 -0.21447623924E+01  0.14697248518E+02  0.51100000000E-03 0.  1.
        -11    1    3    3    0    0 -0.21141375140E+02 -0.18071421586E+02  0.58637523092E+01  0.28423891576E+02  0.51100000000E-03 0. -1.
        -12    1    3    3    0    0 -0.87730941866E+00 -0.26941767161E+01  0.10484533807E+01  0.30211776653E+01  0.00000000000E+00 0.  1.
</event>
<event>
 7    1  0.1538805E-008  0.4614232E+02  0.7816164E-02  0.1320468E+00
        -11   -1    0    0    0    0  0.00000000000E+00  0.00000000000E+00  0.45593999997E+02  0.45594000000E+02  0.51100000000E-03 0.  1.
         11   -1    0    0    0    0 -0.00000000000E+00 -0.00000000000E+00 -0.45593999997E+02  0.45594000000E+02  0.51100000000E-03 0. -1.
    9900012    2    1    2    0    0 -0.15066081559E+02 -0.72161911744E+01 -0.41833637669E+02  0.46142317974E+02  0.10000001938E+02 0.  0.
        -12    1    1    2    0    0  0.15066081559E+02  0.72161911744E+01  0.41833637669E+02  0.45045682026E+02  0.00000000000E+00 0.  1.
         11    1    3    3    0    0 -0.61565456770E+01 -0.12331340833E+01 -0.17888244345E+02  0.18958189796E+02  0.51100000000E-03 0. -1.
        -11    1    3    3    0    0 -0.82509425530E+00 -0.37954061521E+01 -0.41195203915E+01  0.56618315859E+01  0.51100000000E-03 0.  1.
        -12    1    3    3    0    0 -0.80844416265E+01 -0.21876509390E+01 -0.19825872933E+02  0.21522296592E+02  0.00000000000E+00 0.  1.
</event>
<event>
 7    1  0.1538805E-008  0.4614232E+02  0.7816164E-02  0.1320468E+00
        -11   -1    0    0    0    0  0.00000000000E+00  0.00000000000E+00  0.45593999997E+02  0.45594000000E+02  0.51100000000E-03 0. -1.
         11   -1    0    0    0    0 -0.00000000000E+00 -0.00000000000E+00 -0.45593999997E+02  0.45594000000E+02  0.51100000000E-03 0.  1.
    9900012    2    1    2    0    0 -0.19152419121E+02  0.22545407013E+02  0.33970616619E+02  0.46142319530E+02  0.10000016128E+02 0.  0.
        -12    1    1    2    0    0  0.19152419121E+02 -0.22545407013E+02 -0.33970616619E+02  0.45045680470E+02  0.00000000000E+00 0.  1.
         11    1    3    3    0    0 -0.15836347133E+02  0.21854429688E+02  0.26600027159E+02  0.37894160931E+02  0.51100000000E-03 0. -1.
        -11    1    3    3    0    0 -0.15583426636E+01 -0.18045014882E+00  0.45460679488E+01  0.48091296686E+01  0.51100000000E-03 0.  1.
        -12    1    3    3    0    0 -0.17577293239E+01  0.87142747376E+00  0.28245215108E+01  0.34390289302E+01  0.00000000000E+00 0.  1.
</event>
<event>
 7    1  0.1538805E-008  0.4614232E+02  0.7816164E-02  0.1320468E+00
        -11   -1    0    0    0    0  0.00000000000E+00  0.00000000000E+00  0.45593999997E+02  0.45594000000E+02  0.51100000000E-03 0.  1.
         11   -1    0    0    0    0 -0.00000000000E+00 -0.00000000000E+00 -0.45593999997E+02  0.45594000000E+02  0.51100000000E-03 0. -1.
    9900012    2    1    2    0    0  0.34787837349E+02  0.23484579931E+02 -0.16352203170E+02  0.46142315739E+02  0.99999815638E+01 0.  0.
        -12    1    1    2    0    0 -0.34787837349E+02 -0.23484579931E+02  0.16352203170E+02  0.45045684261E+02  0.00000000000E+00 0.  1.
         11    1    3    3    0    0  0.16985376523E+02  0.86687591123E+01 -0.11304820390E+02  0.22168657255E+02  0.51100000000E-03 0. -1.
        -11    1    3    3    0    0  0.11532333362E+02  0.11404118896E+02 -0.25898879618E+01  0.16424255249E+02  0.51100000000E-03 0.  1.
        -12    1    3    3    0    0  0.62701274645E+01  0.34117019228E+01 -0.24574948189E+01  0.75494032358E+01  0.00000000000E+00 0.  1.
</event>
<event>
 7    1  0.1538805E-008  0.4614233E+02  0.7816164E-02  0.1320468E+00
        -11   -1    0    0    0    0  0.00000000000E+00  0.00000000000E+00  0.45593999997E+02  0.45594000000E+02  0.51100000000E-03 0.  1.
         11   -1    0    0    0    0 -0.00000000000E+00 -0.00000000000E+00 -0.45593999997E+02  0.45594000000E+02  0.51100000000E-03 0. -1.
    9900012    2    1    2    0    0  0.22728805992E+00 -0.34625939132E+02 -0.28811539063E+02  0.46142333129E+02  0.10000140135E+02 0.  0.
        -12    1    1    2    0    0 -0.22728805992E+00  0.34625939132E+02  0.28811539063E+02  0.45045666871E+02  0.00000000000E+00 0.  1.
         11    1    3    3    0    0  0.62828580346E+00 -0.21557293161E+02 -0.17176264474E+02  0.27570558446E+02  0.51100000000E-03 0. -1.
        -11    1    3    3    0    0  0.58287430724E+00 -0.12690498403E+01  0.62265166520E+00  0.15290275709E+01  0.51100000000E-03 0.  1.
         12    1    3    3    0    0 -0.98387205078E+00 -0.11799596131E+02 -0.12257926255E+02  0.17042747112E+02  0.00000000000E+00 0. -1.
</event>
<event>
 7    1  0.1538805E-008  0.4614232E+02  0.7816164E-02  0.1320468E+00
        -11   -1    0    0    0    0  0.00000000000E+00  0.00000000000E+00  0.45593999997E+02  0.45594000000E+02  0.51100000000E-03 0.  1.
         11   -1    0    0    0    0 -0.00000000000E+00 -0.00000000000E+00 -0.45593999997E+02  0.45594000000E+02  0.51100000000E-03 0. -1.
    9900012    2    1    2    0    0 -0.63331528700E+01 -0.27687484523E+02 -0.34962949338E+02  0.46142318177E+02  0.10000003795E+02 0.  0.
        -12    1    1    2    0    0  0.63331528700E+01  0.27687484523E+02  0.34962949338E+02  0.45045681823E+02  0.00000000000E+00 0.  1.
         11    1    3    3    0    0  0.49543848810E+00 -0.15388067403E+02 -0.17738572007E+02  0.23488188836E+02  0.51100000000E-03 0. -1.
        -11    1    3    3    0    0 -0.51314044404E+01 -0.72620695252E+01 -0.77730187664E+01  0.11810537089E+02  0.51100000000E-03 0.  1.
         12    1    3    3    0    0 -0.16971869178E+01 -0.50373475945E+01 -0.94513585645E+01  0.10843592252E+02  0.00000000000E+00 0. -1.
</event>
<event>
 7    1  0.1538805E-008  0.4614232E+02  0.7816164E-02  0.1320468E+00
        -11   -1    0    0    0    0  0.00000000000E+00  0.00000000000E+00  0.45593999997E+02  0.45594000000E+02  0.51100000000E-03 0. -1.
         11   -1    0    0    0    0 -0.00000000000E+00 -0.00000000000E+00 -0.45593999997E+02  0.45594000000E+02  0.51100000000E-03 0.  1.
    9900012    2    1    2    0    0  0.40797927983E+01 -0.43839445294E+02 -0.95169200826E+01  0.46142318289E+02  0.10000004816E+02 0.  0.
        -12    1    1    2    0    0 -0.40797927983E+01  0.43839445294E+02  0.95169200826E+01  0.45045681711E+02  0.00000000000E+00 0.  1.
         11    1    3    3    0    0  0.13391233907E+01 -0.22238239735E+02  0.13544200158E+00  0.22278934058E+02  0.51100000000E-03 0. -1.
        -11    1    3    3    0    0  0.67049583021E+00 -0.10610650285E+02 -0.50370350946E+01  0.11764658386E+02  0.51100000000E-03 0.  1.
         12    1    3    3    0    0  0.20701735774E+01 -0.10990555274E+02 -0.46153269896E+01  0.12098725846E+02  0.00000000000E+00 0. -1.
</event>
<event>
 7    1  0.1538805E-008  0.4614232E+02  0.7816164E-02  0.1320468E+00
        -11   -1    0    0    0    0  0.00000000000E+00  0.00000000000E+00  0.45593999997E+02  0.45594000000E+02  0.51100000000E-03 0.  1.
         11   -1    0    0    0    0 -0.00000000000E+00 -0.00000000000E+00 -0.45593999997E+02  0.45594000000E+02  0.51100000000E-03 0. -1.
    9900012    2    1    2    0    0 -0.16470624976E+02  0.32769896786E+02 -0.26152740975E+02  0.46142317821E+02  0.10000000546E+02 0.  0.
        -12    1    1    2    0    0  0.16470624976E+02 -0.32769896786E+02  0.26152740975E+02  0.45045682179E+02  0.00000000000E+00 0.  1.
         11    1    3    3    0    0 -0.16797737606E+02  0.29223501561E+02 -0.25912998834E+02  0.42516591361E+02  0.51100000000E-03 0. -1.
        -11    1    3    3    0    0 -0.80374920060E-01  0.12770857726E+01  0.14657936918E+00  0.12879805787E+01  0.51100000000E-03 0.  1.
         12    1    3    3    0    0  0.40748754988E+00  0.22693094524E+01 -0.38632151024E+00  0.23377458809E+01  0.00000000000E+00 0. -1.
</event>
<event>
 7    1  0.1538805E-008  0.4614232E+02  0.7816164E-02  0.1320468E+00
        -11   -1    0    0    0    0  0.00000000000E+00  0.00000000000E+00  0.45593999997E+02  0.45594000000E+02  0.51100000000E-03 0.  1.
         11   -1    0    0    0    0 -0.00000000000E+00 -0.00000000000E+00 -0.45593999997E+02  0.45594000000E+02  0.51100000000E-03 0. -1.
    9900012    2    1    2    0    0 -0.81214141234E+01 -0.35504249952E+02 -0.26506688031E+02  0.46142316051E+02  0.99999844097E+01 0.  0.
        -12    1    1    2    0    0  0.81214141234E+01  0.35504249952E+02  0.26506688031E+02  0.45045683949E+02  0.00000000000E+00 0.  1.
         11    1    3    3    0    0 -0.23388619657E+01 -0.23663624268E+02 -0.20022054306E+02  0.31085688793E+02  0.51100000000E-03 0.  1.
        -11    1    3    3    0    0 -0.48533092910E+01 -0.10183131983E+02 -0.40887804726E+01  0.11998704683E+02  0.51100000000E-03 0. -1.
        -12    1    3    3    0    0 -0.92924286676E+00 -0.16574937005E+01 -0.23958532519E+01  0.30579225754E+01  0.00000000000E+00 0.  1.
</event>
<event>
 7    1  0.1538805E-008  0.4614232E+02  0.7816164E-02  0.1320468E+00
        -11   -1    0    0    0    0  0.00000000000E+00  0.00000000000E+00  0.45593999997E+02  0.45594000000E+02  0.51100000000E-03 0.  1.
         11   -1    0    0    0    0 -0.00000000000E+00 -0.00000000000E+00 -0.45593999997E+02  0.45594000000E+02  0.51100000000E-03 0. -1.
    9900012    2    1    2    0    0 -0.41610867053E+02 -0.15659674751E+02 -0.72404274499E+01  0.46142318077E+02  0.10000002885E+02 0.  0.
        -12    1    1    2    0    0  0.41610867053E+02  0.15659674751E+02  0.72404274499E+01  0.45045681923E+02  0.00000000000E+00 0.  1.
         11    1    3    3    0    0 -0.21507417139E+02 -0.41341724510E+01 -0.39647021932E+01  0.22257116560E+02  0.51100000000E-03 0. -1.
        -11    1    3    3    0    0 -0.98219791335E+00 -0.36441475426E+00  0.86799952163E+00  0.13604904574E+01  0.51100000000E-03 0.  1.
         12    1    3    3    0    0 -0.19121252001E+02 -0.11161087546E+02 -0.41437247783E+01  0.22524711060E+02  0.00000000000E+00 0. -1.
</event>
<event>
 7    1  0.1538805E-008  0.4614232E+02  0.7816164E-02  0.1320468E+00
        -11   -1    0    0    0    0  0.00000000000E+00  0.00000000000E+00  0.45593999997E+02  0.45594000000E+02  0.51100000000E-03 0. -1.
         11   -1    0    0    0    0 -0.00000000000E+00 -0.00000000000E+00 -0.45593999997E+02  0.45594000000E+02  0.51100000000E-03 0.  1.
    9900012    2    1    2    0    0 -0.42750021013E+02  0.14120285411E+02  0.14719717305E+01  0.46142318104E+02  0.10000003127E+02 0.  0.
        -12    1    1    2    0    0  0.42750021013E+02 -0.14120285411E+02 -0.14719717305E+01  0.45045681896E+02  0.00000000000E+00 0.  1.
         11    1    3    3    0    0 -0.24336978877E+02  0.10733759086E+02  0.59891615938E+00  0.26605654019E+02  0.51100000000E-03 0. -1.
        -11    1    3    3    0    0 -0.11603432627E+02  0.29150112956E+01  0.30956855333E+01  0.12358001811E+02  0.51100000000E-03 0.  1.
         12    1    3    3    0    0 -0.68096095089E+01  0.47151502918E+00 -0.22226299622E+01  0.71786622733E+01  0.00000000000E+00 0. -1.
</event>
<event>
 7    1  0.1538805E-008  0.4614232E+02  0.7816164E-02  0.1320468E+00
        -11   -1    0    0    0    0  0.00000000000E+00  0.00000000000E+00  0.45593999997E+02  0.45594000000E+02  0.51100000000E-03 0.  1.
         11   -1    0    0    0    0 -0.00000000000E+00 -0.00000000000E+00 -0.45593999997E+02  0.45594000000E+02  0.51100000000E-03 0. -1.
    9900012    2    1    2    0    0 -0.23307981586E+02 -0.38546737828E+02 -0.23588919481E-01  0.46142316975E+02  0.99999928283E+01 0.  0.
        -12    1    1    2    0    0  0.23307981586E+02  0.38546737828E+02  0.23588919481E-01  0.45045683025E+02  0.00000000000E+00 0.  1.
         11    1    3    3    0    0 -0.25692752232E+01 -0.67130512538E+01 -0.27645887819E+01  0.77012455942E+01  0.51100000000E-03 0. -1.
        -11    1    3    3    0    0 -0.80690669896E+01 -0.16635059876E+02  0.24645959880E+01  0.18652326740E+02  0.51100000000E-03 0.  1.
         12    1    3    3    0    0 -0.12669639373E+02 -0.15198626698E+02  0.27640387437E+00  0.19788744641E+02  0.00000000000E+00 0. -1.
</event>
<event>
 7    1  0.1538805E-008  0.4614232E+02  0.7816164E-02  0.1320468E+00
        -11   -1    0    0    0    0  0.00000000000E+00  0.00000000000E+00  0.45593999997E+02  0.45594000000E+02  0.51100000000E-03 0. -1.
         11   -1    0    0    0    0 -0.00000000000E+00 -0.00000000000E+00 -0.45593999997E+02  0.45594000000E+02  0.51100000000E-03 0.  1.
    9900012    2    1    2    0    0  0.19257517825E+02  0.28902188033E+02 -0.28686669875E+02  0.46142317694E+02  0.99999993880E+01 0.  0.
        -12    1    1    2    0    0 -0.19257517825E+02 -0.28902188033E+02  0.28686669875E+02  0.45045682306E+02  0.00000000000E+00 0.  1.
         11    1    3    3    0    0  0.13016736314E+01 -0.23262203334E+00 -0.18036483625E+00  0.13345407406E+01  0.51100000000E-03 0.  1.
        -11    1    3    3    0    0  0.14282438864E+01  0.44370372354E+01 -0.56030534270E+01  0.72884420828E+01  0.51100000000E-03 0. -1.
         12    1    3    3    0    0  0.16527600307E+02  0.24697772831E+02 -0.22903251612E+02  0.37519334871E+02  0.00000000000E+00 0. -1.
</event>
<event>
 7    1  0.1538805E-008  0.4614232E+02  0.7816164E-02  0.1320468E+00
        -11   -1    0    0    0    0  0.00000000000E+00  0.00000000000E+00  0.45593999997E+02  0.45594000000E+02  0.51100000000E-03 0.  1.
         11   -1    0    0    0    0 -0.00000000000E+00 -0.00000000000E+00 -0.45593999997E+02  0.45594000000E+02  0.51100000000E-03 0. -1.
    9900012    2    1    2    0    0 -0.10441116948E+02  0.43693953934E+02 -0.33068151804E+01  0.46142316964E+02  0.99999927300E+01 0.  0.
        -12    1    1    2    0    0  0.10441116948E+02 -0.43693953934E+02  0.33068151804E+01  0.45045683036E+02  0.00000000000E+00 0.  1.
         11    1    3    3    0    0 -0.81190314885E+01  0.25004573422E+02 -0.22617725905E+01  0.26386795558E+02  0.51100000000E-03 0. -1.
        -11    1    3    3    0    0  0.20974118248E+00  0.40466711511E+01  0.21036385774E+01  0.45656143392E+01  0.51100000000E-03 0.  1.
        -12    1    3    3    0    0 -0.25318266423E+01  0.14642709362E+02 -0.31486811674E+01  0.15189907067E+02  0.00000000000E+00 0.  1.
</event>
<event>
 7    1  0.1538805E-008  0.4614232E+02  0.7816164E-02  0.1320468E+00
        -11   -1    0    0    0    0  0.00000000000E+00  0.00000000000E+00  0.45593999997E+02  0.45594000000E+02  0.51100000000E-03 0.  1.
         11   -1    0    0    0    0 -0.00000000000E+00 -0.00000000000E+00 -0.45593999997E+02  0.45594000000E+02  0.51100000000E-03 0. -1.
    9900012    2    1    2    0    0 -0.11509273459E+02  0.26662036385E+02 -0.34435241469E+02  0.46142318578E+02  0.10000007450E+02 0.  0.
        -12    1    1    2    0    0  0.11509273459E+02 -0.26662036385E+02  0.34435241469E+02  0.45045681422E+02  0.00000000000E+00 0.  1.
         11    1    3    3    0    0 -0.50281195476E+01  0.74976127021E+01 -0.12583791317E+02  0.15487026396E+02  0.51100000000E-03 0. -1.
        -11    1    3    3    0    0 -0.30353512587E+01  0.53618423884E+01 -0.25279462625E+01  0.66598215914E+01  0.51100000000E-03 0.  1.
         12    1    3    3    0    0 -0.34458026527E+01  0.13802581295E+02 -0.19323503889E+02  0.23995470590E+02  0.00000000000E+00 0. -1.
</event>
<event>
 7    1  0.1538805E-008  0.4614232E+02  0.7816164E-02  0.1320468E+00
        -11   -1    0    0    0    0  0.00000000000E+00  0.00000000000E+00  0.45593999997E+02  0.45594000000E+02  0.51100000000E-03 0. -1.
         11   -1    0    0    0    0 -0.00000000000E+00 -0.00000000000E+00 -0.45593999997E+02  0.45594000000E+02  0.51100000000E-03 0.  1.
    9900012    2    1    2    0    0  0.16733513726E+02 -0.18547912780E+02  0.37484368564E+02  0.46142318335E+02  0.10000005229E+02 0.  0.
        -12    1    1    2    0    0 -0.16733513726E+02  0.18547912780E+02 -0.37484368564E+02  0.45045681665E+02  0.00000000000E+00 0.  1.
         11    1    3    3    0    0  0.11401702716E+02 -0.11453651298E+02  0.18537046385E+02  0.24592825007E+02  0.51100000000E-03 0. -1.
        -11    1    3    3    0    0  0.83876966635E+00 -0.52373724032E+01  0.83812814010E+01  0.99186431747E+01  0.51100000000E-03 0.  1.
        -12    1    3    3    0    0  0.44930413432E+01 -0.18568890785E+01  0.10566040778E+02  0.11630850153E+02  0.00000000000E+00 0.  1.
</event>
<event>
 7    1  0.1538805E-008  0.4614232E+02  0.7816164E-02  0.1320468E+00
        -11   -1    0    0    0    0  0.00000000000E+00  0.00000000000E+00  0.45593999997E+02  0.45594000000E+02  0.51100000000E-03 0.  1.
         11   -1    0    0    0    0 -0.00000000000E+00 -0.00000000000E+00 -0.45593999997E+02  0.45594000000E+02  0.51100000000E-03 0. -1.
    9900012    2    1    2    0    0 -0.71234948447E+01 -0.21282286685E+02 -0.39056799287E+02  0.46142317900E+02  0.10000001266E+02 0.  0.
        -12    1    1    2    0    0  0.71234948447E+01  0.21282286685E+02  0.39056799287E+02  0.45045682100E+02  0.00000000000E+00 0.  1.
         11    1    3    3    0    0 -0.26078382463E+01 -0.28223209348E+00 -0.25447367946E+01  0.36546081716E+01  0.51100000000E-03 0.  1.
        -11    1    3    3    0    0 -0.14374617961E+01 -0.13595521085E+02 -0.24195525886E+02  0.27790789178E+02  0.51100000000E-03 0. -1.
        -12    1    3    3    0    0 -0.30781948024E+01 -0.74045335066E+01 -0.12316536606E+02  0.14696920550E+02  0.00000000000E+00 0.  1.
</event>
<event>
 7    1  0.1538805E-008  0.4614232E+02  0.7816164E-02  0.1320468E+00
        -11   -1    0    0    0    0  0.00000000000E+00  0.00000000000E+00  0.45593999997E+02  0.45594000000E+02  0.51100000000E-03 0.  1.
         11   -1    0    0    0    0 -0.00000000000E+00 -0.00000000000E+00 -0.45593999997E+02  0.45594000000E+02  0.51100000000E-03 0. -1.
    9900012    2    1    2    0    0 -0.33707143878E+00 -0.17267864096E+02 -0.41603131336E+02  0.46142320023E+02  0.10000020630E+02 0.  0.
        -12    1    1    2    0    0  0.33707143878E+00  0.17267864096E+02  0.41603131336E+02  0.45045679977E+02  0.00000000000E+00 0.  1.
         11    1    3    3    0    0 -0.26744979467E+01 -0.15349588400E+01 -0.29521053873E+01  0.42689535469E+01  0.51100000000E-03 0. -1.
        -11    1    3    3    0    0  0.28721542330E+01 -0.12773325743E+02 -0.30886552535E+02  0.33546777017E+02  0.51100000000E-03 0.  1.
        -12    1    3    3    0    0 -0.53472772509E+00 -0.29595795137E+01 -0.77644734131E+01  0.83265894591E+01  0.00000000000E+00 0.  1.
</event>
<event>
 7    1  0.1538805E-008  0.4614232E+02  0.7816164E-02  0.1320468E+00
        -11   -1    0    0    0    0  0.00000000000E+00  0.00000000000E+00  0.45593999997E+02  0.45594000000E+02  0.51100000000E-03 0.  1.
         11   -1    0    0    0    0 -0.00000000000E+00 -0.00000000000E+00 -0.45593999997E+02  0.45594000000E+02  0.51100000000E-03 0. -1.
    9900012    2    1    2    0    0  0.40350183195E+02 -0.14400184732E+02 -0.13914410115E+02  0.46142318597E+02  0.10000007625E+02 0.  0.
        -12    1    1    2    0    0 -0.40350183195E+02  0.14400184732E+02  0.13914410115E+02  0.45045681403E+02  0.00000000000E+00 0.  1.
         11    1    3    3    0    0  0.94293338837E+01 -0.85168731541E+00 -0.58421500820E+01  0.11125125915E+02  0.51100000000E-03 0. -1.
        -11    1    3    3    0    0  0.25084940814E+01  0.17346053002E+00 -0.78539756425E+00  0.26342894121E+01  0.51100000000E-03 0.  1.
         12    1    3    3    0    0  0.28412355230E+02 -0.13721957947E+02 -0.72868624690E+01  0.32382903271E+02  0.00000000000E+00 0. -1.
</event>
<event>
 7    1  0.1538805E-008  0.4614232E+02  0.7816164E-02  0.1320468E+00
        -11   -1    0    0    0    0  0.00000000000E+00  0.00000000000E+00  0.45593999997E+02  0.45594000000E+02  0.51100000000E-03 0. -1.
         11   -1    0    0    0    0 -0.00000000000E+00 -0.00000000000E+00 -0.45593999997E+02  0.45594000000E+02  0.51100000000E-03 0.  1.
    9900012    2    1    2    0    0  0.30597447766E+02  0.15912982985E+02  0.28977345320E+02  0.46142318974E+02  0.10000011058E+02 0.  0.
        -12    1    1    2    0    0 -0.30597447766E+02 -0.15912982985E+02 -0.28977345320E+02  0.45045681026E+02  0.00000000000E+00 0.  1.
         11    1    3    3    0    0  0.13838491921E+02  0.68865518784E+01  0.15602254078E+02  0.21962668053E+02  0.51100000000E-03 0. -1.
        -11    1    3    3    0    0  0.50150076265E+01  0.19230499232E+00  0.57204976811E+01  0.76099524758E+01  0.51100000000E-03 0.  1.
         12    1    3    3    0    0  0.11743948219E+02  0.88341261145E+01  0.76545935608E+01  0.16569698445E+02  0.00000000000E+00 0. -1.
</event>
<event>
 7    1  0.1538805E-008  0.4614232E+02  0.7816164E-02  0.1320468E+00
        -11   -1    0    0    0    0  0.00000000000E+00  0.00000000000E+00  0.45593999997E+02  0.45594000000E+02  0.51100000000E-03 0.  1.
         11   -1    0    0    0    0 -0.00000000000E+00 -0.00000000000E+00 -0.45593999997E+02  0.45594000000E+02  0.51100000000E-03 0. -1.
    9900012    2    1    2    0    0 -0.22140400143E+02  0.36238691388E+02 -0.15022429107E+02  0.46142318206E+02  0.10000004057E+02 0.  0.
        -12    1    1    2    0    0  0.22140400143E+02 -0.36238691388E+02  0.15022429107E+02  0.45045681794E+02  0.00000000000E+00 0.  1.
         11    1    3    3    0    0 -0.36695832142E+01  0.86543746206E+01 -0.50992152376E+01  0.10694205783E+02  0.51100000000E-03 0. -1.
        -11    1    3    3    0    0 -0.57379788174E+01  0.40541040595E+01 -0.35632104451E+00  0.70347086351E+01  0.51100000000E-03 0.  1.
        -12    1    3    3    0    0 -0.12732838111E+02  0.23530212708E+02 -0.95668928248E+01  0.28413403787E+02  0.00000000000E+00 0.  1.
</event>
<event>
 7    1  0.1538805E-008  0.4614232E+02  0.7816164E-02  0.1320468E+00
        -11   -1    0    0    0    0  0.00000000000E+00  0.00000000000E+00  0.45593999997E+02  0.45594000000E+02  0.51100000000E-03 0.  1.
         11   -1    0    0    0    0 -0.00000000000E+00 -0.00000000000E+00 -0.45593999997E+02  0.45594000000E+02  0.51100000000E-03 0. -1.
    9900012    2    1    2    0    0  0.11708871432E+02 -0.31054278912E+02 -0.30457309917E+02  0.46142316118E+02  0.99999850197E+01 0.  0.
        -12    1    1    2    0    0 -0.11708871432E+02  0.31054278912E+02  0.30457309917E+02  0.45045683882E+02  0.00000000000E+00 0.  1.
         11    1    3    3    0    0  0.53442470333E+01 -0.10655284461E+02 -0.15587965702E+02  0.19623474165E+02  0.51100000000E-03 0. -1.
        -11    1    3    3    0    0  0.56223408944E+00  0.16708583459E+00 -0.33451046504E+00  0.67522023059E+00  0.51100000000E-03 0.  1.
         12    1    3    3    0    0  0.58023903095E+01 -0.20566080286E+02 -0.14534833750E+02  0.25843621723E+02  0.00000000000E+00 0. -1.
</event>
<event>
 7    1  0.1538805E-008  0.4614232E+02  0.7816164E-02  0.1320468E+00
        -11   -1    0    0    0    0  0.00000000000E+00  0.00000000000E+00  0.45593999997E+02  0.45594000000E+02  0.51100000000E-03 0.  1.
         11   -1    0    0    0    0 -0.00000000000E+00 -0.00000000000E+00 -0.45593999997E+02  0.45594000000E+02  0.51100000000E-03 0. -1.
    9900012    2    1    2    0    0  0.63218671994E+01  0.21114937956E+02 -0.39284943189E+02  0.46142319062E+02  0.10000011862E+02 0.  0.
        -12    1    1    2    0    0 -0.63218671994E+01 -0.21114937956E+02  0.39284943189E+02  0.45045680938E+02  0.00000000000E+00 0.  1.
         11    1    3    3    0    0  0.20984792047E+01  0.18148742617E+02 -0.26631796178E+02  0.32296022069E+02  0.51100000000E-03 0. -1.
        -11    1    3    3    0    0  0.16108293335E+01  0.37487477018E+00 -0.62095981764E+01  0.64260728294E+01  0.51100000000E-03 0.  1.
         12    1    3    3    0    0  0.26125586611E+01  0.25913205685E+01 -0.64435488354E+01  0.74202241638E+01  0.00000000000E+00 0. -1.
</event>
<event>
 7    1  0.1538805E-008  0.4614231E+02  0.7816164E-02  0.1320468E+00
        -11   -1    0    0    0    0  0.00000000000E+00  0.00000000000E+00  0.45593999997E+02  0.45594000000E+02  0.51100000000E-03 0. -1.
         11   -1    0    0    0    0 -0.00000000000E+00 -0.00000000000E+00 -0.45593999997E+02  0.45594000000E+02  0.51100000000E-03 0.  1.
    9900012    2    1    2    0    0 -0.44098015015E+02 -0.28688774190E+01 -0.87320456767E+01  0.46142311997E+02  0.99999474396E+01 0.  0.
        -12    1    1    2    0    0  0.44098015015E+02  0.28688774190E+01  0.87320456767E+01  0.45045688003E+02  0.00000000000E+00 0.  1.
         11    1    3    3    0    0 -0.42135545410E+02 -0.35595719648E+01 -0.70277384713E+01  0.42865648809E+02  0.51100000000E-03 0. -1.
        -11    1    3    3    0    0  0.60526260358E-01  0.71907217823E+00 -0.74628641062E+00  0.10381097695E+01  0.51100000000E-03 0.  1.
         12    1    3    3    0    0 -0.20229958658E+01 -0.28377632405E-01 -0.95802079479E+00  0.22385534183E+01  0.00000000000E+00 0. -1.
</event>
<event>
 7    1  0.1538805E-008  0.4614232E+02  0.7816164E-02  0.1320468E+00
        -11   -1    0    0    0    0  0.00000000000E+00  0.00000000000E+00  0.45593999997E+02  0.45594000000E+02  0.51100000000E-03 0.  1.
         11   -1    0    0    0    0 -0.00000000000E+00 -0.00000000000E+00 -0.45593999997E+02  0.45594000000E+02  0.51100000000E-03 0. -1.
    9900012    2    1    2    0    0  0.94117349575E+01  0.44735711187E+01 -0.43823737030E+02  0.46142317402E+02  0.99999967261E+01 0.  0.
        -12    1    1    2    0    0 -0.94117349575E+01 -0.44735711187E+01  0.43823737030E+02  0.45045682598E+02  0.00000000000E+00 0.  1.
         11    1    3    3    0    0  0.13091335730E+01 -0.29570922430E+00 -0.33013034295E+00  0.13821219055E+01  0.51100000000E-03 0. -1.
        -11    1    3    3    0    0  0.22760682933E+00  0.19109782239E+01 -0.12797373367E+02  0.12941267635E+02  0.51100000000E-03 0.  1.
         12    1    3    3    0    0  0.78749945551E+01  0.28583021191E+01 -0.30696233320E+02  0.31818927862E+02  0.00000000000E+00 0. -1.
</event>
<event>
 7    1  0.1538805E-008  0.4614232E+02  0.7816164E-02  0.1320468E+00
        -11   -1    0    0    0    0  0.00000000000E+00  0.00000000000E+00  0.45593999997E+02  0.45594000000E+02  0.51100000000E-03 0.  1.
         11   -1    0    0    0    0 -0.00000000000E+00 -0.00000000000E+00 -0.45593999997E+02  0.45594000000E+02  0.51100000000E-03 0. -1.
    9900012    2    1    2    0    0 -0.30603202309E+01  0.37860864944E+02 -0.24213689747E+02  0.46142318460E+02  0.10000006377E+02 0.  0.
        -12    1    1    2    0    0  0.30603202309E+01 -0.37860864944E+02  0.24213689747E+02  0.45045681540E+02  0.00000000000E+00 0.  1.
         11    1    3    3    0    0 -0.41468814829E+01  0.20173161229E+02 -0.16058653168E+02  0.26115769218E+02  0.51100000000E-03 0. -1.
        -11    1    3    3    0    0  0.14968356402E+01  0.28121125049E+01 -0.30099289284E+00  0.31998579119E+01  0.51100000000E-03 0.  1.
        -12    1    3    3    0    0 -0.41027438827E+00  0.14875591210E+02 -0.78540436866E+01  0.16826691331E+02  0.00000000000E+00 0.  1.
</event>
<event>
 7    1  0.1538805E-008  0.4614232E+02  0.7816164E-02  0.1320468E+00
        -11   -1    0    0    0    0  0.00000000000E+00  0.00000000000E+00  0.45593999997E+02  0.45594000000E+02  0.51100000000E-03 0.  1.
         11   -1    0    0    0    0 -0.00000000000E+00 -0.00000000000E+00 -0.45593999997E+02  0.45594000000E+02  0.51100000000E-03 0. -1.
    9900012    2    1    2    0    0 -0.37244198386E+02 -0.16380428746E+02 -0.19330411981E+02  0.46142316669E+02  0.99999900455E+01 0.  0.
        -12    1    1    2    0    0  0.37244198386E+02  0.16380428746E+02  0.19330411981E+02  0.45045683331E+02  0.00000000000E+00 0.  1.
         11    1    3    3    0    0 -0.12360543136E+02 -0.88001971230E+01 -0.97484168411E+01  0.18034914116E+02  0.51100000000E-03 0. -1.
        -11    1    3    3    0    0 -0.11683664794E+02 -0.17743957239E+01 -0.26673885952E+01  0.12114927378E+02  0.51100000000E-03 0.  1.
         12    1    3    3    0    0 -0.13199990457E+02 -0.58058358990E+01 -0.69146065451E+01  0.15992475175E+02  0.00000000000E+00 0. -1.
</event>
<event>
 7    1  0.1538805E-008  0.4614232E+02  0.7816164E-02  0.1320468E+00
        -11   -1    0    0    0    0  0.00000000000E+00  0.00000000000E+00  0.45593999997E+02  0.45594000000E+02  0.51100000000E-03 0.  1.
         11   -1    0    0    0    0 -0.00000000000E+00 -0.00000000000E+00 -0.45593999997E+02  0.45594000000E+02  0.51100000000E-03 0. -1.
    9900012    2    1    2    0    0 -0.42690433149E+02 -0.33710114354E+01 -0.13974143749E+02  0.46142317697E+02  0.99999994184E+01 0.  0.
        -12    1    1    2    0    0  0.42690433149E+02  0.33710114354E+01  0.13974143749E+02  0.45045682303E+02  0.00000000000E+00 0.  1.
         11    1    3    3    0    0 -0.16817719180E+01  0.69128964728E+00 -0.27997751010E+01  0.33384096570E+01  0.51100000000E-03 0.  1.
        -11    1    3    3    0    0 -0.20323141150E+02 -0.31878636223E+01 -0.65561104472E+01  0.21591089021E+02  0.51100000000E-03 0. -1.
         12    1    3    3    0    0 -0.20685520082E+02 -0.87443746042E+00 -0.46182582010E+01  0.21212819019E+02  0.00000000000E+00 0. -1.
</event>
<event>
 7    1  0.1538805E-008  0.4614232E+02  0.7816164E-02  0.1320468E+00
        -11   -1    0    0    0    0  0.00000000000E+00  0.00000000000E+00  0.45593999997E+02  0.45594000000E+02  0.51100000000E-03 0.  1.
         11   -1    0    0    0    0 -0.00000000000E+00 -0.00000000000E+00 -0.45593999997E+02  0.45594000000E+02  0.51100000000E-03 0. -1.
    9900012    2    1    2    0    0  0.41285052616E+02  0.17696763178E+02  0.33886125098E+01  0.46142315509E+02  0.99999794648E+01 0.  0.
        -12    1    1    2    0    0 -0.41285052616E+02 -0.17696763178E+02 -0.33886125098E+01  0.45045684491E+02  0.00000000000E+00 0.  1.
         11    1    3    3    0    0  0.31826462199E+02  0.10826019244E+02  0.40282248282E+01  0.33857834903E+02  0.51100000000E-03 0. -1.
        -11    1    3    3    0    0  0.84812602558E+01  0.58700069848E+01 -0.17958602634E+01  0.10469664363E+02  0.51100000000E-03 0.  1.
        -12    1    3    3    0    0  0.97733016116E+00  0.10007369492E+01  0.11562479450E+01  0.18148162430E+01  0.00000000000E+00 0.  1.
</event>
<event>
 7    1  0.1538805E-008  0.4614232E+02  0.7816164E-02  0.1320468E+00
        -11   -1    0    0    0    0  0.00000000000E+00  0.00000000000E+00  0.45593999997E+02  0.45594000000E+02  0.51100000000E-03 0.  1.
         11   -1    0    0    0    0 -0.00000000000E+00 -0.00000000000E+00 -0.45593999997E+02  0.45594000000E+02  0.51100000000E-03 0. -1.
    9900012    2    1    2    0    0 -0.21995261158E+02 -0.10875442082E+02 -0.37776271005E+02  0.46142318687E+02  0.10000008445E+02 0.  0.
        -12    1    1    2    0    0  0.21995261158E+02  0.10875442082E+02  0.37776271005E+02  0.45045681313E+02  0.00000000000E+00 0.  1.
         11    1    3    3    0    0 -0.15381239379E+02 -0.31437539366E+01 -0.27318292618E+02  0.31508012084E+02  0.51100000000E-03 0. -1.
        -11    1    3    3    0    0 -0.27014540328E+01 -0.39883679174E+01 -0.46984775063E+01  0.67290878783E+01  0.51100000000E-03 0.  1.
        -12    1    3    3    0    0 -0.39125677460E+01 -0.37433202279E+01 -0.57595008806E+01  0.79052187250E+01  0.00000000000E+00 0.  1.
</event>
<event>
 7    1  0.1538805E-008  0.4614231E+02  0.7816164E-02  0.1320468E+00
        -11   -1    0    0    0    0  0.00000000000E+00  0.00000000000E+00  0.45593999997E+02  0.45594000000E+02  0.51100000000E-03 0.  1.
         11   -1    0    0    0    0 -0.00000000000E+00 -0.00000000000E+00 -0.45593999997E+02  0.45594000000E+02  0.51100000000E-03 0. -1.
    9900012    2    1    2    0    0  0.14977604256E+02  0.38595087790E+02 -0.17753995139E+02  0.46142314589E+02  0.99999710775E+01 0.  0.
        -12    1    1    2    0    0 -0.14977604256E+02 -0.38595087790E+02  0.17753995139E+02  0.45045685411E+02  0.00000000000E+00 0.  1.
         11    1    3    3    0    0  0.10718386627E+02  0.19984474376E+02 -0.10149668273E+02  0.24845095981E+02  0.51100000000E-03 0. -1.
        -11    1    3    3    0    0  0.31450700490E+01  0.16780182388E+02 -0.83801796400E+01  0.19018238553E+02  0.51100000000E-03 0.  1.
         12    1    3    3    0    0  0.11141475799E+01  0.18304310251E+01  0.77585277411E+00  0.22789800557E+01  0.00000000000E+00 0. -1.
</event>
<event>
 7    1  0.1538805E-008  0.4614232E+02  0.7816164E-02  0.1320468E+00
        -11   -1    0    0    0    0  0.00000000000E+00  0.00000000000E+00  0.45593999997E+02  0.45594000000E+02  0.51100000000E-03 0.  1.
         11   -1    0    0    0    0 -0.00000000000E+00 -0.00000000000E+00 -0.45593999997E+02  0.45594000000E+02  0.51100000000E-03 0. -1.
    9900012    2    1    2    0    0  0.20208211736E+02  0.11519880273E+02 -0.38575044124E+02  0.46142317718E+02  0.99999996084E+01 0.  0.
        -12    1    1    2    0    0 -0.20208211736E+02 -0.11519880273E+02  0.38575044124E+02  0.45045682282E+02  0.00000000000E+00 0.  1.
         11    1    3    3    0    0  0.38601825783E+01  0.73472684921E+00 -0.10953270458E+02  0.11636793677E+02  0.51100000000E-03 0. -1.
        -11    1    3    3    0    0  0.13227535062E+02  0.52230904134E+01 -0.20441325600E+02  0.24901729856E+02  0.51100000000E-03 0.  1.
        -12    1    3    3    0    0  0.31204940962E+01  0.55620630102E+01 -0.71804480659E+01  0.96037941857E+01  0.00000000000E+00 0.  1.
</event>
<event>
 7    1  0.1538805E-008  0.4614232E+02  0.7816164E-02  0.1320468E+00
        -11   -1    0    0    0    0  0.00000000000E+00  0.00000000000E+00  0.45593999997E+02  0.45594000000E+02  0.51100000000E-03 0. -1.
         11   -1    0    0    0    0 -0.00000000000E+00 -0.00000000000E+00 -0.45593999997E+02  0.45594000000E+02  0.51100000000E-03 0.  1.
    9900012    2    1    2    0    0 -0.58348613379E+01 -0.89369202534E+01  0.43762989060E+02  0.46142319164E+02  0.10000012796E+02 0.  0.
        -12    1    1    2    0    0  0.58348613379E+01  0.89369202534E+01 -0.43762989060E+02  0.45045680836E+02  0.00000000000E+00 0.  1.
         11    1    3    3    0    0 -0.23760218367E+01 -0.67332758342E+01  0.20005492816E+02  0.21241521280E+02  0.51100000000E-03 0. -1.
        -11    1    3    3    0    0  0.42150073044E+00 -0.28997197376E+01  0.56002583466E+01  0.63205166903E+01  0.51100000000E-03 0.  1.
         12    1    3    3    0    0 -0.38803402317E+01  0.69607531840E+00  0.18157237898E+02  0.18580281194E+02  0.00000000000E+00 0. -1.
</event>
<event>
 7    1  0.1538805E-008  0.4614232E+02  0.7816164E-02  0.1320468E+00
        -11   -1    0    0    0    0  0.00000000000E+00  0.00000000000E+00  0.45593999997E+02  0.45594000000E+02  0.51100000000E-03 0. -1.
         11   -1    0    0    0    0 -0.00000000000E+00 -0.00000000000E+00 -0.45593999997E+02  0.45594000000E+02  0.51100000000E-03 0.  1.
    9900012    2    1    2    0    0 -0.22935467436E+02  0.28297429176E+02  0.26501565848E+02  0.46142321440E+02  0.10000033548E+02 0.  0.
        -12    1    1    2    0    0  0.22935467436E+02 -0.28297429176E+02 -0.26501565848E+02  0.45045678560E+02  0.00000000000E+00 0.  1.
         11    1    3    3    0    0 -0.71370684581E+01  0.13019249322E+02  0.13833246314E+02  0.20292789432E+02  0.51100000000E-03 0. -1.
        -11    1    3    3    0    0 -0.22580481035E+01  0.76647500777E+00  0.28192456796E+01  0.36924804181E+01  0.51100000000E-03 0.  1.
         12    1    3    3    0    0 -0.13540350875E+02  0.14511704846E+02  0.98490738545E+01  0.22157051590E+02  0.00000000000E+00 0. -1.
</event>
<event>
 7    1  0.1538805E-008  0.4614232E+02  0.7816164E-02  0.1320468E+00
        -11   -1    0    0    0    0  0.00000000000E+00  0.00000000000E+00  0.45593999997E+02  0.45594000000E+02  0.51100000000E-03 0.  1.
         11   -1    0    0    0    0 -0.00000000000E+00 -0.00000000000E+00 -0.45593999997E+02  0.45594000000E+02  0.51100000000E-03 0. -1.
    9900012    2    1    2    0    0 -0.13826276482E+02 -0.24892549349E+02 -0.34904280005E+02  0.46142315444E+02  0.99999788703E+01 0.  0.
        -12    1    1    2    0    0  0.13826276482E+02  0.24892549349E+02  0.34904280005E+02  0.45045684556E+02  0.00000000000E+00 0.  1.
         11    1    3    3    0    0 -0.13309314247E+02 -0.24983385410E+02 -0.33114520190E+02  0.43564651267E+02  0.51100000000E-03 0. -1.
        -11    1    3    3    0    0 -0.36071606917E+00  0.91996569066E-01 -0.21515803503E+01  0.21835470492E+01  0.51100000000E-03 0.  1.
         12    1    3    3    0    0 -0.15624616542E+00 -0.11605078492E-02  0.36182053530E+00  0.39411712822E+00  0.00000000000E+00 0. -1.
</event>
<event>
 7    1  0.1538805E-008  0.4614232E+02  0.7816164E-02  0.1320468E+00
        -11   -1    0    0    0    0  0.00000000000E+00  0.00000000000E+00  0.45593999997E+02  0.45594000000E+02  0.51100000000E-03 0.  1.
         11   -1    0    0    0    0 -0.00000000000E+00 -0.00000000000E+00 -0.45593999997E+02  0.45594000000E+02  0.51100000000E-03 0. -1.
    9900012    2    1    2    0    0  0.21766088493E+02 -0.35870697481E+02 -0.16390360410E+02  0.46142318070E+02  0.10000002821E+02 0.  0.
        -12    1    1    2    0    0 -0.21766088493E+02  0.35870697481E+02  0.16390360410E+02  0.45045681930E+02  0.00000000000E+00 0.  1.
         11    1    3    3    0    0  0.59209990423E+01 -0.15962999118E+02 -0.70566328576E+01  0.18430182800E+02  0.51100000000E-03 0. -1.
        -11    1    3    3    0    0  0.37198732139E+01 -0.69070509265E+01 -0.50023655987E+00  0.78609825153E+01  0.51100000000E-03 0.  1.
        -12    1    3    3    0    0  0.12125216237E+02 -0.13000647437E+02 -0.88334909929E+01  0.19851152755E+02  0.00000000000E+00 0.  1.
</event>
<event>
 7    1  0.1538805E-008  0.4614232E+02  0.7816164E-02  0.1320468E+00
        -11   -1    0    0    0    0  0.00000000000E+00  0.00000000000E+00  0.45593999997E+02  0.45594000000E+02  0.51100000000E-03 0.  1.
         11   -1    0    0    0    0 -0.00000000000E+00 -0.00000000000E+00 -0.45593999997E+02  0.45594000000E+02  0.51100000000E-03 0. -1.
    9900012    2    1    2    0    0 -0.39276465626E+00  0.37678384909E+01 -0.44886106839E+02  0.46142318097E+02  0.10000003061E+02 0.  0.
        -12    1    1    2    0    0  0.39276465626E+00 -0.37678384909E+01  0.44886106839E+02  0.45045681903E+02  0.00000000000E+00 0.  1.
         11    1    3    3    0    0  0.15654896939E+01  0.51078186935E+01 -0.38218964605E+02  0.38590540622E+02  0.51100000000E-03 0. -1.
        -11    1    3    3    0    0 -0.19955996776E+01  0.19817627638E+00 -0.36286955024E+01  0.41459767510E+01  0.51100000000E-03 0.  1.
         12    1    3    3    0    0  0.37345327416E-01 -0.15381564790E+01 -0.30384467317E+01  0.34058007236E+01  0.00000000000E+00 0. -1.
</event>
<event>
 7    1  0.1538805E-008  0.4614232E+02  0.7816164E-02  0.1320468E+00
        -11   -1    0    0    0    0  0.00000000000E+00  0.00000000000E+00  0.45593999997E+02  0.45594000000E+02  0.51100000000E-03 0. -1.
         11   -1    0    0    0    0 -0.00000000000E+00 -0.00000000000E+00 -0.45593999997E+02  0.45594000000E+02  0.51100000000E-03 0.  1.
    9900012    2    1    2    0    0 -0.11595725965E+02 -0.31860021290E+02  0.29657910337E+02  0.46142318045E+02  0.10000002585E+02 0.  0.
        -12    1    1    2    0    0  0.11595725965E+02  0.31860021290E+02 -0.29657910337E+02  0.45045681955E+02  0.00000000000E+00 0.  1.
         11    1    3    3    0    0 -0.50662346557E+01 -0.15987704500E+02  0.14279911964E+02  0.22027013296E+02  0.51100000000E-03 0. -1.
        -11    1    3    3    0    0  0.12980763657E+01 -0.40147869278E+01  0.48696653561E+01  0.64433808880E+01  0.51100000000E-03 0.  1.
        -12    1    3    3    0    0 -0.78275676753E+01 -0.11857529862E+02  0.10508333016E+02  0.17671923860E+02  0.00000000000E+00 0.  1.
</event>
<event>
 7    1  0.1538805E-008  0.4614232E+02  0.7816164E-02  0.1320468E+00
        -11   -1    0    0    0    0  0.00000000000E+00  0.00000000000E+00  0.45593999997E+02  0.45594000000E+02  0.51100000000E-03 0.  1.
         11   -1    0    0    0    0 -0.00000000000E+00 -0.00000000000E+00 -0.45593999997E+02  0.45594000000E+02  0.51100000000E-03 0. -1.
    9900012    2    1    2    0    0  0.23453009742E+02  0.38190892751E+02 -0.45305057933E+01  0.46142318322E+02  0.10000005116E+02 0.  0.
        -12    1    1    2    0    0 -0.23453009742E+02 -0.38190892751E+02  0.45305057933E+01  0.45045681678E+02  0.00000000000E+00 0.  1.
         11    1    3    3    0    0  0.82556062651E+00  0.46898728781E+01 -0.14744161957E+01  0.49850136750E+01  0.51100000000E-03 0. -1.
        -11    1    3    3    0    0  0.17898001837E+02  0.22451203356E+02 -0.44584238136E+01  0.29056368408E+02  0.51100000000E-03 0.  1.
        -12    1    3    3    0    0  0.47294472786E+01  0.11049816517E+02  0.14023342160E+01  0.12100936239E+02  0.00000000000E+00 0.  1.
</event>
<event>
 7    1  0.1538805E-008  0.4614232E+02  0.7816164E-02  0.1320468E+00
        -11   -1    0    0    0    0  0.00000000000E+00  0.00000000000E+00  0.45593999997E+02  0.45594000000E+02  0.51100000000E-03 0.  1.
         11   -1    0    0    0    0 -0.00000000000E+00 -0.00000000000E+00 -0.45593999997E+02  0.45594000000E+02  0.51100000000E-03 0. -1.
    9900012    2    1    2    0    0  0.16052371563E+02  0.50114804045E+01 -0.41788991131E+02  0.46142319315E+02  0.10000014172E+02 0.  0.
        -12    1    1    2    0    0 -0.16052371563E+02 -0.50114804045E+01  0.41788991131E+02  0.45045680685E+02  0.00000000000E+00 0.  1.
         11    1    3    3    0    0  0.23224726436E+00  0.75026714246E+00 -0.25576096085E+00  0.82598638431E+00  0.51100000000E-03 0.  1.
        -11    1    3    3    0    0  0.14491051029E+02  0.30586447406E+01 -0.28100114824E+02  0.31764167248E+02  0.51100000000E-03 0. -1.
        -12    1    3    3    0    0  0.13290732693E+01  0.12025685215E+01 -0.13433115346E+02  0.13552165683E+02  0.00000000000E+00 0.  1.
</event>
<event>
 7    1  0.1538805E-008  0.4614232E+02  0.7816164E-02  0.1320468E+00
        -11   -1    0    0    0    0  0.00000000000E+00  0.00000000000E+00  0.45593999997E+02  0.45594000000E+02  0.51100000000E-03 0.  1.
         11   -1    0    0    0    0 -0.00000000000E+00 -0.00000000000E+00 -0.45593999997E+02  0.45594000000E+02  0.51100000000E-03 0. -1.
    9900012    2    1    2    0    0 -0.43719866096E+02 -0.10843076844E+02 -0.33832073188E+00  0.46142317989E+02  0.10000002078E+02 0.  0.
        -12    1    1    2    0    0  0.43719866096E+02  0.10843076844E+02  0.33832073188E+00  0.45045682011E+02  0.00000000000E+00 0.  1.
         11    1    3    3    0    0 -0.22271902374E+01 -0.23736657467E+01 -0.80921133277E+00  0.33540257412E+01  0.51100000000E-03 0. -1.
        -11    1    3    3    0    0 -0.44000314245E+01 -0.68133760088E+00  0.19437468057E+01  0.48582557949E+01  0.51100000000E-03 0.  1.
         12    1    3    3    0    0 -0.37092644434E+02 -0.77880734968E+01 -0.14728562048E+01  0.37930036453E+02  0.00000000000E+00 0. -1.
</event>
<event>
 7    1  0.1538805E-008  0.4614232E+02  0.7816164E-02  0.1320468E+00
        -11   -1    0    0    0    0  0.00000000000E+00  0.00000000000E+00  0.45593999997E+02  0.45594000000E+02  0.51100000000E-03 0.  1.
         11   -1    0    0    0    0 -0.00000000000E+00 -0.00000000000E+00 -0.45593999997E+02  0.45594000000E+02  0.51100000000E-03 0. -1.
    9900012    2    1    2    0    0  0.26030443218E+02 -0.24330616121E+02 -0.27559935915E+02  0.46142324041E+02  0.10000057265E+02 0.  0.
        -12    1    1    2    0    0 -0.26030443218E+02  0.24330616121E+02  0.27559935915E+02  0.45045675959E+02  0.00000000000E+00 0.  1.
         11    1    3    3    0    0  0.12607402030E+02 -0.15481251314E+02 -0.18498763292E+02  0.27218008226E+02  0.51100000000E-03 0. -1.
        -11    1    3    3    0    0  0.10696062533E+02 -0.51554446451E+01 -0.76345651853E+01  0.14116336247E+02  0.51100000000E-03 0.  1.
         12    1    3    3    0    0  0.27269786546E+01 -0.36939201623E+01 -0.14266074379E+01  0.48079795684E+01  0.00000000000E+00 0. -1.
</event>
<event>
 7    1  0.1538805E-008  0.4614233E+02  0.7816164E-02  0.1320468E+00
        -11   -1    0    0    0    0  0.00000000000E+00  0.00000000000E+00  0.45593999997E+02  0.45594000000E+02  0.51100000000E-03 0. -1.
         11   -1    0    0    0    0 -0.00000000000E+00 -0.00000000000E+00 -0.45593999997E+02  0.45594000000E+02  0.51100000000E-03 0.  1.
    9900012    2    1    2    0    0 -0.25358850149E+02  0.27175456118E+02  0.25446724835E+02  0.46142328722E+02  0.10000099946E+02 0.  0.
        -12    1    1    2    0    0  0.25358850149E+02 -0.27175456118E+02 -0.25446724835E+02  0.45045671278E+02  0.00000000000E+00 0.  1.
         11    1    3    3    0    0 -0.82933410555E+01  0.10502895264E+02  0.10313434415E+02  0.16895480001E+02  0.51100000000E-03 0. -1.
        -11    1    3    3    0    0 -0.53013179671E+01  0.16410385508E+01  0.56999773574E+01  0.79552952081E+01  0.51100000000E-03 0.  1.
        -12    1    3    3    0    0 -0.11764191126E+02  0.15031522304E+02  0.94333130627E+01  0.21291553512E+02  0.00000000000E+00 0.  1.
</event>
<event>
 7    1  0.1538805E-008  0.4614232E+02  0.7816164E-02  0.1320468E+00
        -11   -1    0    0    0    0  0.00000000000E+00  0.00000000000E+00  0.45593999997E+02  0.45594000000E+02  0.51100000000E-03 0.  1.
         11   -1    0    0    0    0 -0.00000000000E+00 -0.00000000000E+00 -0.45593999997E+02  0.45594000000E+02  0.51100000000E-03 0. -1.
    9900012    2    1    2    0    0 -0.23356681530E+02  0.17227113413E+02 -0.34450044588E+02  0.46142316735E+02  0.99999906451E+01 0.  0.
        -12    1    1    2    0    0  0.23356681530E+02 -0.17227113413E+02  0.34450044588E+02  0.45045683265E+02  0.00000000000E+00 0.  1.
         11    1    3    3    0    0 -0.16389464522E+02  0.81227419441E+01 -0.25715412613E+02  0.31557501963E+02  0.51100000000E-03 0. -1.
        -11    1    3    3    0    0 -0.53447908170E+01  0.56092323092E+01 -0.50166640991E+01  0.92302326580E+01  0.51100000000E-03 0.  1.
         12    1    3    3    0    0 -0.16224261916E+01  0.34951391600E+01 -0.37179678759E+01  0.53545821145E+01  0.00000000000E+00 0. -1.
</event>
<event>
 7    1  0.1538805E-008  0.4614232E+02  0.7816164E-02  0.1320468E+00
        -11   -1    0    0    0    0  0.00000000000E+00  0.00000000000E+00  0.45593999997E+02  0.45594000000E+02  0.51100000000E-03 0. -1.
         11   -1    0    0    0    0 -0.00000000000E+00 -0.00000000000E+00 -0.45593999997E+02  0.45594000000E+02  0.51100000000E-03 0.  1.
    9900012    2    1    2    0    0 -0.19251714950E+02  0.27000133296E+02 -0.30487337596E+02  0.46142317851E+02  0.10000000820E+02 0.  0.
        -12    1    1    2    0    0  0.19251714950E+02 -0.27000133296E+02  0.30487337596E+02  0.45045682149E+02  0.00000000000E+00 0.  1.
         11    1    3    3    0    0 -0.10314700368E+02  0.12217167632E+02 -0.13273728233E+02  0.20780858743E+02  0.51100000000E-03 0. -1.
        -11    1    3    3    0    0 -0.57027769579E+01  0.51509042364E+01 -0.11109508939E+02  0.13508318496E+02  0.51100000000E-03 0.  1.
        -12    1    3    3    0    0 -0.32342376242E+01  0.96320614278E+01 -0.61041004246E+01  0.11853140611E+02  0.00000000000E+00 0.  1.
</event>
<event>
 7    1  0.1538805E-008  0.4614232E+02  0.7816164E-02  0.1320468E+00
        -11   -1    0    0    0    0  0.00000000000E+00  0.00000000000E+00  0.45593999997E+02  0.45594000000E+02  0.51100000000E-03 0. -1.
         11   -1    0    0    0    0 -0.00000000000E+00 -0.00000000000E+00 -0.45593999997E+02  0.45594000000E+02  0.51100000000E-03 0.  1.
    9900012    2    1    2    0    0 -0.11952310891E+02  0.19968041872E+02  0.38568549714E+02  0.46142318089E+02  0.10000002987E+02 0.  0.
        -12    1    1    2    0    0  0.11952310891E+02 -0.19968041872E+02 -0.38568549714E+02  0.45045681911E+02  0.00000000000E+00 0.  1.
         11    1    3    3    0    0 -0.47066388994E+01  0.75043703601E+01  0.14940775044E+02  0.17369363356E+02  0.51100000000E-03 0. -1.
        -11    1    3    3    0    0 -0.33329162035E+01  0.56643941911E+01  0.17875035533E+02  0.19044962262E+02  0.51100000000E-03 0.  1.
        -12    1    3    3    0    0 -0.39127557877E+01  0.67992773206E+01  0.57527391369E+01  0.97279924709E+01  0.00000000000E+00 0.  1.
</event>
<event>
 7    1  0.1538805E-008  0.4614232E+02  0.7816164E-02  0.1320468E+00
        -11   -1    0    0    0    0  0.00000000000E+00  0.00000000000E+00  0.45593999997E+02  0.45594000000E+02  0.51100000000E-03 0. -1.
         11   -1    0    0    0    0 -0.00000000000E+00 -0.00000000000E+00 -0.45593999997E+02  0.45594000000E+02  0.51100000000E-03 0.  1.
    9900012    2    1    2    0    0 -0.24635094515E+02 -0.73007519191E+01  0.36998981872E+02  0.46142317411E+02  0.99999968034E+01 0.  0.
        -12    1    1    2    0    0  0.24635094515E+02  0.73007519191E+01 -0.36998981872E+02  0.45045682589E+02  0.00000000000E+00 0.  1.
         11    1    3    3    0    0 -0.38900050837E+01 -0.42812144656E+01  0.12002047276E+02  0.13323290732E+02  0.51100000000E-03 0. -1.
        -11    1    3    3    0    0 -0.12134150300E+02 -0.90116720369E+00  0.16798306278E+02  0.20742053898E+02  0.51100000000E-03 0.  1.
         12    1    3    3    0    0 -0.86109391318E+01 -0.21183702498E+01  0.81986283180E+01  0.12076972781E+02  0.00000000000E+00 0. -1.
</event>
<event>
 7    1  0.1538805E-008  0.4614232E+02  0.7816164E-02  0.1320468E+00
        -11   -1    0    0    0    0  0.00000000000E+00  0.00000000000E+00  0.45593999997E+02  0.45594000000E+02  0.51100000000E-03 0.  1.
         11   -1    0    0    0    0 -0.00000000000E+00 -0.00000000000E+00 -0.45593999997E+02  0.45594000000E+02  0.51100000000E-03 0. -1.
    9900012    2    1    2    0    0 -0.13387256739E+02  0.36265065978E+02 -0.23124442128E+02  0.46142317886E+02  0.10000001136E+02 0.  0.
        -12    1    1    2    0    0  0.13387256739E+02 -0.36265065978E+02  0.23124442128E+02  0.45045682114E+02  0.00000000000E+00 0.  1.
         11    1    3    3    0    0 -0.13203726381E+02  0.30030712593E+02 -0.16297454314E+02  0.36630439617E+02  0.51100000000E-03 0. -1.
        -11    1    3    3    0    0  0.74716594079E+00  0.78155625290E+00 -0.13207688684E+01  0.17069029804E+01  0.51100000000E-03 0.  1.
         12    1    3    3    0    0 -0.93069629939E+00  0.54527971327E+01 -0.55062189460E+01  0.78049752885E+01  0.00000000000E+00 0. -1.
</event>
<event>
 7    1  0.1538805E-008  0.4614232E+02  0.7816164E-02  0.1320468E+00
        -11   -1    0    0    0    0  0.00000000000E+00  0.00000000000E+00  0.45593999997E+02  0.45594000000E+02  0.51100000000E-03 0.  1.
         11   -1    0    0    0    0 -0.00000000000E+00 -0.00000000000E+00 -0.45593999997E+02  0.45594000000E+02  0.51100000000E-03 0. -1.
    9900012    2    1    2    0    0  0.39351780785E+02  0.20635066798E+02 -0.73989835006E+01  0.46142316638E+02  0.99999897601E+01 0.  0.
        -12    1    1    2    0    0 -0.39351780785E+02 -0.20635066798E+02  0.73989835006E+01  0.45045683362E+02  0.00000000000E+00 0.  1.
         11    1    3    3    0    0  0.77166313811E+01  0.55621141142E+01 -0.46960055257E+01  0.10608297764E+02  0.51100000000E-03 0. -1.
        -11    1    3    3    0    0  0.18638919660E+02  0.11538033880E+02 -0.83817498319E+00  0.21937139500E+02  0.51100000000E-03 0.  1.
         12    1    3    3    0    0  0.12996229744E+02  0.35349188039E+01 -0.18648029916E+01  0.13596879374E+02  0.00000000000E+00 0. -1.
</event>
<event>
 7    1  0.1538805E-008  0.4614232E+02  0.7816164E-02  0.1320468E+00
        -11   -1    0    0    0    0  0.00000000000E+00  0.00000000000E+00  0.45593999997E+02  0.45594000000E+02  0.51100000000E-03 0.  1.
         11   -1    0    0    0    0 -0.00000000000E+00 -0.00000000000E+00 -0.45593999997E+02  0.45594000000E+02  0.51100000000E-03 0. -1.
    9900012    2    1    2    0    0  0.11036946520E+02  0.28839725139E+02 -0.32795876934E+02  0.46142317871E+02  0.10000001007E+02 0.  0.
        -12    1    1    2    0    0 -0.11036946520E+02 -0.28839725139E+02  0.32795876934E+02  0.45045682129E+02  0.00000000000E+00 0.  1.
         11    1    3    3    0    0  0.38255853551E+01  0.16060993775E+02 -0.16002141033E+02  0.22992588855E+02  0.51100000000E-03 0. -1.
        -11    1    3    3    0    0  0.26259214556E+00  0.34595754761E+01 -0.75106998403E+01  0.82733445149E+01  0.51100000000E-03 0.  1.
        -12    1    3    3    0    0  0.69487690191E+01  0.93191558873E+01 -0.92830360603E+01  0.14876384501E+02  0.00000000000E+00 0.  1.
</event>
<event>
 7    1  0.1538805E-008  0.4614233E+02  0.7816164E-02  0.1320468E+00
        -11   -1    0    0    0    0  0.00000000000E+00  0.00000000000E+00  0.45593999997E+02  0.45594000000E+02  0.51100000000E-03 0.  1.
         11   -1    0    0    0    0 -0.00000000000E+00 -0.00000000000E+00 -0.45593999997E+02  0.45594000000E+02  0.51100000000E-03 0. -1.
    9900012    2    1    2    0    0 -0.86733359863E+01  0.17275673503E+02 -0.40687060218E+02  0.46142328496E+02  0.10000097884E+02 0.  0.
        -12    1    1    2    0    0  0.86733359863E+01 -0.17275673503E+02  0.40687060218E+02  0.45045671504E+02  0.00000000000E+00 0.  1.
         11    1    3    3    0    0 -0.13045235869E+01  0.50546393392E+01 -0.89764126336E+01  0.10383985009E+02  0.51100000000E-03 0. -1.
        -11    1    3    3    0    0 -0.83024217167E+01  0.73665491689E+01 -0.17607971910E+02  0.20814344286E+02  0.51100000000E-03 0.  1.
        -12    1    3    3    0    0  0.93360931742E+00  0.48544849953E+01 -0.14102675674E+02  0.14943999200E+02  0.00000000000E+00 0.  1.
</event>
<event>
 7    1  0.1538805E-008  0.4614232E+02  0.7816164E-02  0.1320468E+00
        -11   -1    0    0    0    0  0.00000000000E+00  0.00000000000E+00  0.45593999997E+02  0.45594000000E+02  0.51100000000E-03 0.  1.
         11   -1    0    0    0    0 -0.00000000000E+00 -0.00000000000E+00 -0.45593999997E+02  0.45594000000E+02  0.51100000000E-03 0. -1.
    9900012    2    1    2    0    0  0.25312489580E+02  0.26529918437E+02 -0.26163995298E+02  0.46142319286E+02  0.10000013907E+02 0.  0.
        -12    1    1    2    0    0 -0.25312489580E+02 -0.26529918437E+02  0.26163995298E+02  0.45045680714E+02  0.00000000000E+00 0.  1.
         11    1    3    3    0    0  0.84950440176E+01  0.70758874565E+01 -0.60176604563E+01  0.12587541213E+02  0.51100000000E-03 0. -1.
        -11    1    3    3    0    0  0.64661177361E+01  0.13059754537E+02 -0.12369324861E+02  0.19114603447E+02  0.51100000000E-03 0.  1.
        -12    1    3    3    0    0  0.10351327827E+02  0.63942764437E+01 -0.77770099802E+01  0.14440174627E+02  0.00000000000E+00 0.  1.
</event>
<event>
 7    1  0.1538805E-008  0.4614232E+02  0.7816164E-02  0.1320468E+00
        -11   -1    0    0    0    0  0.00000000000E+00  0.00000000000E+00  0.45593999997E+02  0.45594000000E+02  0.51100000000E-03 0.  1.
         11   -1    0    0    0    0 -0.00000000000E+00 -0.00000000000E+00 -0.45593999997E+02  0.45594000000E+02  0.51100000000E-03 0. -1.
    9900012    2    1    2    0    0 -0.32348248485E+02 -0.82030029167E+01 -0.30255825222E+02  0.46142318778E+02  0.10000009270E+02 0.  0.
        -12    1    1    2    0    0  0.32348248485E+02  0.82030029167E+01  0.30255825222E+02  0.45045681222E+02  0.00000000000E+00 0.  1.
         11    1    3    3    0    0 -0.14344598032E+02  0.59931020446E-01 -0.86757337065E+01  0.16764230971E+02  0.51100000000E-03 0. -1.
        -11    1    3    3    0    0 -0.53093108087E+01 -0.31206456183E+01 -0.79382990997E+01  0.10047079337E+02  0.51100000000E-03 0.  1.
        -12    1    3    3    0    0 -0.12694339644E+02 -0.51422883188E+01 -0.13641792416E+02  0.19331008470E+02  0.00000000000E+00 0.  1.
</event>
<event>
 7    1  0.1538805E-008  0.4614232E+02  0.7816164E-02  0.1320468E+00
        -11   -1    0    0    0    0  0.00000000000E+00  0.00000000000E+00  0.45593999997E+02  0.45594000000E+02  0.51100000000E-03 0.  1.
         11   -1    0    0    0    0 -0.00000000000E+00 -0.00000000000E+00 -0.45593999997E+02  0.45594000000E+02  0.51100000000E-03 0. -1.
    9900012    2    1    2    0    0 -0.27076338669E+02 -0.22612798136E+02 -0.28011549395E+02  0.46142315914E+02  0.99999831563E+01 0.  0.
        -12    1    1    2    0    0  0.27076338669E+02  0.22612798136E+02  0.28011549395E+02  0.45045684086E+02  0.00000000000E+00 0.  1.
         11    1    3    3    0    0 -0.33542533869E+01 -0.68972634601E+01 -0.65343175354E+01  0.10075741409E+02  0.51100000000E-03 0. -1.
        -11    1    3    3    0    0 -0.14241811713E+02 -0.64284810794E+01 -0.10291475221E+02  0.18710131810E+02  0.51100000000E-03 0.  1.
         12    1    3    3    0    0 -0.94802735682E+01 -0.92870535970E+01 -0.11185756639E+02  0.17356442695E+02  0.00000000000E+00 0. -1.
</event>
<event>
 7    1  0.1538805E-008  0.4614232E+02  0.7816164E-02  0.1320468E+00
        -11   -1    0    0    0    0  0.00000000000E+00  0.00000000000E+00  0.45593999997E+02  0.45594000000E+02  0.51100000000E-03 0.  1.
         11   -1    0    0    0    0 -0.00000000000E+00 -0.00000000000E+00 -0.45593999997E+02  0.45594000000E+02  0.51100000000E-03 0. -1.
    9900012    2    1    2    0    0  0.23602910191E+02 -0.36977154904E+02 -0.10232590823E+02  0.46142320193E+02  0.10000022180E+02 0.  0.
        -12    1    1    2    0    0 -0.23602910191E+02  0.36977154904E+02  0.10232590823E+02  0.45045679807E+02  0.00000000000E+00 0.  1.
         11    1    3    3    0    0  0.14044004737E+02 -0.27901177244E+02 -0.93820320369E+01  0.32614908953E+02  0.51100000000E-03 0. -1.
        -11    1    3    3    0    0  0.91966401602E+01 -0.92639933108E+01 -0.64308748599E+00  0.13069557149E+02  0.51100000000E-03 0.  1.
        -12    1    3    3    0    0  0.36226529419E+00  0.18801565048E+00 -0.20747130054E+00  0.45785409111E+00  0.00000000000E+00 0.  1.
</event>
<event>
 7    1  0.1538805E-008  0.4614232E+02  0.7816164E-02  0.1320468E+00
        -11   -1    0    0    0    0  0.00000000000E+00  0.00000000000E+00  0.45593999997E+02  0.45594000000E+02  0.51100000000E-03 0.  1.
         11   -1    0    0    0    0 -0.00000000000E+00 -0.00000000000E+00 -0.45593999997E+02  0.45594000000E+02  0.51100000000E-03 0. -1.
    9900012    2    1    2    0    0 -0.30090544959E+02 -0.28476584449E+02 -0.17684931189E+02  0.46142317088E+02  0.99999938622E+01 0.  0.
        -12    1    1    2    0    0  0.30090544959E+02  0.28476584449E+02  0.17684931189E+02  0.45045682912E+02  0.00000000000E+00 0.  1.
         11    1    3    3    0    0 -0.16533363664E+02 -0.14277741708E+02 -0.91166051161E+01  0.23671047958E+02  0.51100000000E-03 0. -1.
        -11    1    3    3    0    0 -0.62113980939E+01 -0.95698923501E+01 -0.19973061479E+01  0.11582466835E+02  0.51100000000E-03 0.  1.
        -12    1    3    3    0    0 -0.73457832011E+01 -0.46289503913E+01 -0.65710199248E+01  0.10888802295E+02  0.00000000000E+00 0.  1.
</event>
<event>
 7    1  0.1538805E-008  0.4614231E+02  0.7816164E-02  0.1320468E+00
        -11   -1    0    0    0    0  0.00000000000E+00  0.00000000000E+00  0.45593999997E+02  0.45594000000E+02  0.51100000000E-03 0. -1.
         11   -1    0    0    0    0 -0.00000000000E+00 -0.00000000000E+00 -0.45593999997E+02  0.45594000000E+02  0.51100000000E-03 0.  1.
    9900012    2    1    2    0    0  0.49210178091E+01  0.41032272307E+02  0.17923447641E+02  0.46142314721E+02  0.99999722776E+01 0.  0.
        -12    1    1    2    0    0 -0.49210178091E+01 -0.41032272307E+02 -0.17923447641E+02  0.45045685279E+02  0.00000000000E+00 0.  1.
         11    1    3    3    0    0  0.47681819065E+01  0.35328283516E+02  0.15459726532E+02  0.38856483623E+02  0.51100000000E-03 0. -1.
        -11    1    3    3    0    0 -0.10134857428E+01  0.10491834363E+01  0.19849253700E+01  0.24633043294E+01  0.51100000000E-03 0.  1.
         12    1    3    3    0    0  0.11663216454E+01  0.46548053547E+01  0.47879573834E+00  0.48225267682E+01  0.00000000000E+00 0. -1.
</event>
<event>
 7    1  0.1538805E-008  0.4614231E+02  0.7816164E-02  0.1320468E+00
        -11   -1    0    0    0    0  0.00000000000E+00  0.00000000000E+00  0.45593999997E+02  0.45594000000E+02  0.51100000000E-03 0.  1.
         11   -1    0    0    0    0 -0.00000000000E+00 -0.00000000000E+00 -0.45593999997E+02  0.45594000000E+02  0.51100000000E-03 0. -1.
    9900012    2    1    2    0    0  0.81626887717E+01  0.26502882889E+01 -0.44220588878E+02  0.46142312119E+02  0.99999485502E+01 0.  0.
        -12    1    1    2    0    0 -0.81626887717E+01 -0.26502882889E+01  0.44220588878E+02  0.45045687881E+02  0.00000000000E+00 0.  1.
         11    1    3    3    0    0  0.30091657574E+01  0.14647347702E+00 -0.63729174906E+01  0.70491567324E+01  0.51100000000E-03 0. -1.
        -11    1    3    3    0    0  0.68204618187E+01  0.34398411720E+01 -0.26246056978E+02  0.27335082108E+02  0.51100000000E-03 0.  1.
        -12    1    3    3    0    0 -0.16669388044E+01 -0.93602636014E+00 -0.11601614409E+02  0.11758073279E+02  0.00000000000E+00 0.  1.
</event>
<event>
 7    1  0.1538805E-008  0.4614232E+02  0.7816164E-02  0.1320468E+00
        -11   -1    0    0    0    0  0.00000000000E+00  0.00000000000E+00  0.45593999997E+02  0.45594000000E+02  0.51100000000E-03 0. -1.
         11   -1    0    0    0    0 -0.00000000000E+00 -0.00000000000E+00 -0.45593999997E+02  0.45594000000E+02  0.51100000000E-03 0.  1.
    9900012    2    1    2    0    0  0.32746665610E+02 -0.28156186224E+02  0.12806190710E+02  0.46142318167E+02  0.10000003705E+02 0.  0.
        -12    1    1    2    0    0 -0.32746665610E+02  0.28156186224E+02 -0.12806190710E+02  0.45045681833E+02  0.00000000000E+00 0.  1.
         11    1    3    3    0    0  0.20869894653E+02 -0.13166244805E+02  0.10178130781E+02  0.26692636654E+02  0.51100000000E-03 0. -1.
        -11    1    3    3    0    0  0.32967327719E+01 -0.52798528666E+01 -0.17689182678E-01  0.62245968889E+01  0.51100000000E-03 0.  1.
        -12    1    3    3    0    0  0.85800381852E+01 -0.97100885524E+01  0.26457491110E+01  0.13225084624E+02  0.00000000000E+00 0.  1.
</event>
<event>
 7    1  0.1538805E-008  0.4614232E+02  0.7816164E-02  0.1320468E+00
        -11   -1    0    0    0    0  0.00000000000E+00  0.00000000000E+00  0.45593999997E+02  0.45594000000E+02  0.51100000000E-03 0.  1.
         11   -1    0    0    0    0 -0.00000000000E+00 -0.00000000000E+00 -0.45593999997E+02  0.45594000000E+02  0.51100000000E-03 0. -1.
    9900012    2    1    2    0    0  0.19021066583E+02 -0.67674258341E+01 -0.40268033212E+02  0.46142317353E+02  0.99999962754E+01 0.  0.
        -12    1    1    2    0    0 -0.19021066583E+02  0.67674258341E+01  0.40268033212E+02  0.45045682647E+02  0.00000000000E+00 0.  1.
         11    1    3    3    0    0  0.62904642263E+00 -0.26274429760E+00 -0.29200611060E+01  0.29985815133E+01  0.51100000000E-03 0. -1.
        -11    1    3    3    0    0  0.18500109727E+02 -0.38433143224E+01 -0.33549201738E+02  0.38504208373E+02  0.51100000000E-03 0.  1.
        -12    1    3    3    0    0 -0.10808956654E+00 -0.26613672141E+01 -0.37987703681E+01  0.46395274665E+01  0.00000000000E+00 0.  1.
</event>
<event>
 7    1  0.1538805E-008  0.4614232E+02  0.7816164E-02  0.1320468E+00
        -11   -1    0    0    0    0  0.00000000000E+00  0.00000000000E+00  0.45593999997E+02  0.45594000000E+02  0.51100000000E-03 0.  1.
         11   -1    0    0    0    0 -0.00000000000E+00 -0.00000000000E+00 -0.45593999997E+02  0.45594000000E+02  0.51100000000E-03 0. -1.
    9900012    2    1    2    0    0  0.43750752552E+02 -0.82994978109E+01 -0.67899526296E+01  0.46142317971E+02  0.10000001914E+02 0.  0.
        -12    1    1    2    0    0 -0.43750752552E+02  0.82994978109E+01  0.67899526296E+01  0.45045682029E+02  0.00000000000E+00 0.  1.
         11    1    3    3    0    0  0.67553361628E+01 -0.10153866203E+01 -0.70224913810E+00  0.68672214741E+01  0.51100000000E-03 0. -1.
        -11    1    3    3    0    0  0.98029788417E+00 -0.37357120136E+00 -0.21498590243E+01  0.23921608369E+01  0.51100000000E-03 0.  1.
        -12    1    3    3    0    0  0.36015118505E+02 -0.69105399892E+01 -0.39378444673E+01  0.36882935660E+02  0.00000000000E+00 0.  1.
</event>
<event>
 7    1  0.1538805E-008  0.4614232E+02  0.7816164E-02  0.1320468E+00
        -11   -1    0    0    0    0  0.00000000000E+00  0.00000000000E+00  0.45593999997E+02  0.45594000000E+02  0.51100000000E-03 0.  1.
         11   -1    0    0    0    0 -0.00000000000E+00 -0.00000000000E+00 -0.45593999997E+02  0.45594000000E+02  0.51100000000E-03 0. -1.
    9900012    2    1    2    0    0  0.54044308556E+01  0.30009858547E+02 -0.33155905123E+02  0.46142317328E+02  0.99999960476E+01 0.  0.
        -12    1    1    2    0    0 -0.54044308556E+01 -0.30009858547E+02  0.33155905123E+02  0.45045682672E+02  0.00000000000E+00 0.  1.
         11    1    3    3    0    0  0.25239865258E+01  0.14714113535E+02 -0.22708534649E+02  0.27176335133E+02  0.51100000000E-03 0. -1.
        -11    1    3    3    0    0 -0.59493182708E+00  0.20009301344E+01 -0.13953305429E+01  0.25108988165E+01  0.51100000000E-03 0.  1.
         12    1    3    3    0    0  0.34753761569E+01  0.13294814878E+02 -0.90520399309E+01  0.16455083378E+02  0.00000000000E+00 0. -1.
</event>
<event>
 7    1  0.1538805E-008  0.4614232E+02  0.7816164E-02  0.1320468E+00
        -11   -1    0    0    0    0  0.00000000000E+00  0.00000000000E+00  0.45593999997E+02  0.45594000000E+02  0.51100000000E-03 0.  1.
         11   -1    0    0    0    0 -0.00000000000E+00 -0.00000000000E+00 -0.45593999997E+02  0.45594000000E+02  0.51100000000E-03 0. -1.
    9900012    2    1    2    0    0  0.68416037931E+01  0.24851933004E+02 -0.36941677702E+02  0.46142315767E+02  0.99999818200E+01 0.  0.
        -12    1    1    2    0    0 -0.68416037931E+01 -0.24851933004E+02  0.36941677702E+02  0.45045684233E+02  0.00000000000E+00 0.  1.
         11    1    3    3    0    0  0.39539984042E+01  0.16843561998E+02 -0.25958005203E+02  0.31195475931E+02  0.51100000000E-03 0. -1.
        -11    1    3    3    0    0  0.12732686123E+01  0.78050179794E+01 -0.67009047788E+01  0.10365406106E+02  0.51100000000E-03 0.  1.
        -12    1    3    3    0    0  0.16143367765E+01  0.20335302637E+00 -0.42827677210E+01  0.45814337312E+01  0.00000000000E+00 0.  1.
</event>
<event>
 7    1  0.1538805E-008  0.4614231E+02  0.7816164E-02  0.1320468E+00
        -11   -1    0    0    0    0  0.00000000000E+00  0.00000000000E+00  0.45593999997E+02  0.45594000000E+02  0.51100000000E-03 0.  1.
         11   -1    0    0    0    0 -0.00000000000E+00 -0.00000000000E+00 -0.45593999997E+02  0.45594000000E+02  0.51100000000E-03 0. -1.
    9900012    2    1    2    0    0 -0.63568052125E+01  0.25234367907E+02 -0.36768624176E+02  0.46142311861E+02  0.99999461942E+01 0.  0.
        -12    1    1    2    0    0  0.63568052125E+01 -0.25234367907E+02  0.36768624176E+02  0.45045688139E+02  0.00000000000E+00 0.  1.
         11    1    3    3    0    0 -0.85523835421E+01  0.21365973438E+02 -0.29395010623E+02  0.37332489001E+02  0.51100000000E-03 0. -1.
        -11    1    3    3    0    0  0.13035241484E+01  0.28876661865E+01 -0.64740086789E+01  0.72076750652E+01  0.51100000000E-03 0.  1.
         12    1    3    3    0    0  0.89205418118E+00  0.98072828240E+00 -0.89960487319E+00  0.16021477940E+01  0.00000000000E+00 0. -1.
</event>
<event>
 7    1  0.1538805E-008  0.4614232E+02  0.7816164E-02  0.1320468E+00
        -11   -1    0    0    0    0  0.00000000000E+00  0.00000000000E+00  0.45593999997E+02  0.45594000000E+02  0.51100000000E-03 0.  1.
         11   -1    0    0    0    0 -0.00000000000E+00 -0.00000000000E+00 -0.45593999997E+02  0.45594000000E+02  0.51100000000E-03 0. -1.
    9900012    2    1    2    0    0  0.36440102205E+02 -0.22515296170E+02 -0.13938934375E+02  0.46142317611E+02  0.99999986336E+01 0.  0.
        -12    1    1    2    0    0 -0.36440102205E+02  0.22515296170E+02  0.13938934375E+02  0.45045682389E+02  0.00000000000E+00 0.  1.
         11    1    3    3    0    0  0.18955672977E+02 -0.12511320465E+02 -0.24402645476E+01  0.22843063917E+02  0.51100000000E-03 0.  1.
        -11    1    3    3    0    0  0.11287700781E+02 -0.55100882563E+01 -0.79208278589E+01  0.14849672581E+02  0.51100000000E-03 0. -1.
        -12    1    3    3    0    0  0.61967284476E+01 -0.44938874485E+01 -0.35778419681E+01  0.84495811140E+01  0.00000000000E+00 0.  1.
</event>
<event>
 7    1  0.1538805E-008  0.4614232E+02  0.7816164E-02  0.1320468E+00
        -11   -1    0    0    0    0  0.00000000000E+00  0.00000000000E+00  0.45593999997E+02  0.45594000000E+02  0.51100000000E-03 0.  1.
         11   -1    0    0    0    0 -0.00000000000E+00 -0.00000000000E+00 -0.45593999997E+02  0.45594000000E+02  0.51100000000E-03 0. -1.
    9900012    2    1    2    0    0  0.25326496442E+00  0.11712110424E+02 -0.43495700002E+02  0.46142316606E+02  0.99999894659E+01 0.  0.
        -12    1    1    2    0    0 -0.25326496442E+00 -0.11712110424E+02  0.43495700002E+02  0.45045683394E+02  0.00000000000E+00 0.  1.
         11    1    3    3    0    0 -0.38367196185E+00  0.94515789311E+01 -0.29176382670E+02  0.30671499058E+02  0.51100000000E-03 0. -1.
        -11    1    3    3    0    0 -0.21071343904E+01 -0.23032654118E+00 -0.59989116304E+01  0.63623900120E+01  0.51100000000E-03 0.  1.
         12    1    3    3    0    0  0.27440713166E+01  0.24908580345E+01 -0.83204057021E+01  0.91084275364E+01  0.00000000000E+00 0. -1.
</event>
<event>
 7    1  0.1538805E-008  0.4614232E+02  0.7816164E-02  0.1320468E+00
        -11   -1    0    0    0    0  0.00000000000E+00  0.00000000000E+00  0.45593999997E+02  0.45594000000E+02  0.51100000000E-03 0. -1.
         11   -1    0    0    0    0 -0.00000000000E+00 -0.00000000000E+00 -0.45593999997E+02  0.45594000000E+02  0.51100000000E-03 0.  1.
    9900012    2    1    2    0    0  0.14175631703E+01  0.35463424385E+02  0.27738952754E+02  0.46142318138E+02  0.10000003441E+02 0.  0.
        -12    1    1    2    0    0 -0.14175631703E+01 -0.35463424385E+02 -0.27738952754E+02  0.45045681862E+02  0.00000000000E+00 0.  1.
         11    1    3    3    0    0  0.11175923151E+00  0.27032751303E+01  0.45516615112E+01  0.52950740628E+01  0.51100000000E-03 0. -1.
        -11    1    3    3    0    0 -0.58502064226E+00  0.40345162101E+01  0.33254821690E+00  0.40902516767E+01  0.51100000000E-03 0.  1.
        -12    1    3    3    0    0  0.18908245810E+01  0.28725633045E+02  0.22854743026E+02  0.36756992399E+02  0.00000000000E+00 0.  1.
</event>
<event>
 7    1  0.1538805E-008  0.4614232E+02  0.7816164E-02  0.1320468E+00
        -11   -1    0    0    0    0  0.00000000000E+00  0.00000000000E+00  0.45593999997E+02  0.45594000000E+02  0.51100000000E-03 0.  1.
         11   -1    0    0    0    0 -0.00000000000E+00 -0.00000000000E+00 -0.45593999997E+02  0.45594000000E+02  0.51100000000E-03 0. -1.
    9900012    2    1    2    0    0  0.23621848450E+02  0.13453754663E+02 -0.35918215245E+02  0.46142318463E+02  0.10000006401E+02 0.  0.
        -12    1    1    2    0    0 -0.23621848450E+02 -0.13453754663E+02  0.35918215245E+02  0.45045681537E+02  0.00000000000E+00 0.  1.
         11    1    3    3    0    0  0.12985298593E+02  0.39717097552E+01 -0.15825131883E+02  0.20852512014E+02  0.51100000000E-03 0. -1.
        -11    1    3    3    0    0  0.76948657809E+00  0.37164850563E+01 -0.65419348394E+01  0.75631529452E+01  0.51100000000E-03 0.  1.
         12    1    3    3    0    0  0.98670632789E+01  0.57655598516E+01 -0.13551148523E+02  0.17726653504E+02  0.00000000000E+00 0. -1.
</event>
<event>
 7    1  0.1538805E-008  0.4614232E+02  0.7816164E-02  0.1320468E+00
        -11   -1    0    0    0    0  0.00000000000E+00  0.00000000000E+00  0.45593999997E+02  0.45594000000E+02  0.51100000000E-03 0.  1.
         11   -1    0    0    0    0 -0.00000000000E+00 -0.00000000000E+00 -0.45593999997E+02  0.45594000000E+02  0.51100000000E-03 0. -1.
    9900012    2    1    2    0    0  0.11982121701E+02  0.12063348856E+02 -0.41713521420E+02  0.46142317684E+02  0.99999992961E+01 0.  0.
        -12    1    1    2    0    0 -0.11982121701E+02 -0.12063348856E+02  0.41713521420E+02  0.45045682316E+02  0.00000000000E+00 0.  1.
         11    1    3    3    0    0  0.56954716566E+01  0.83112153163E+01 -0.31541253449E+02  0.33111408409E+02  0.51100000000E-03 0. -1.
        -11    1    3    3    0    0  0.47910744665E+01  0.43406844999E+01 -0.73986238075E+01  0.98252517005E+01  0.51100000000E-03 0.  1.
        -12    1    3    3    0    0  0.14955755778E+01 -0.58855095978E+00 -0.27736441632E+01  0.32056575746E+01  0.00000000000E+00 0.  1.
</event>
<event>
 7    1  0.1538805E-008  0.4614232E+02  0.7816164E-02  0.1320468E+00
        -11   -1    0    0    0    0  0.00000000000E+00  0.00000000000E+00  0.45593999997E+02  0.45594000000E+02  0.51100000000E-03 0. -1.
         11   -1    0    0    0    0 -0.00000000000E+00 -0.00000000000E+00 -0.45593999997E+02  0.45594000000E+02  0.51100000000E-03 0.  1.
    9900012    2    1    2    0    0  0.32778716010E+02 -0.31626973525E+01  0.30735430263E+02  0.46142317063E+02  0.99999936358E+01 0.  0.
        -12    1    1    2    0    0 -0.32778716010E+02  0.31626973525E+01 -0.30735430263E+02  0.45045682937E+02  0.00000000000E+00 0.  1.
         11    1    3    3    0    0  0.65841088527E+01 -0.23828224374E+01  0.79081784179E+01  0.10562557375E+02  0.51100000000E-03 0. -1.
        -11    1    3    3    0    0  0.52372532679E+01  0.98410076214E+00  0.88394043854E+01  0.10321450782E+02  0.51100000000E-03 0.  1.
        -12    1    3    3    0    0  0.20957353889E+02 -0.17639756772E+01  0.13987847460E+02  0.25258308906E+02  0.00000000000E+00 0.  1.
</event>
<event>
 7    1  0.1538805E-008  0.4614232E+02  0.7816164E-02  0.1320468E+00
        -11   -1    0    0    0    0  0.00000000000E+00  0.00000000000E+00  0.45593999997E+02  0.45594000000E+02  0.51100000000E-03 0.  1.
         11   -1    0    0    0    0 -0.00000000000E+00 -0.00000000000E+00 -0.45593999997E+02  0.45594000000E+02  0.51100000000E-03 0. -1.
    9900012    2    1    2    0    0 -0.16156456790E+02  0.32205101426E+02 -0.27035415217E+02  0.46142319521E+02  0.10000016045E+02 0.  0.
        -12    1    1    2    0    0  0.16156456790E+02 -0.32205101426E+02  0.27035415217E+02  0.45045680479E+02  0.00000000000E+00 0.  1.
         11    1    3    3    0    0 -0.41479499606E+01  0.11530060507E+02 -0.90806753441E+01  0.15251440887E+02  0.51100000000E-03 0. -1.
        -11    1    3    3    0    0 -0.71260312805E+00  0.82437995851E+01 -0.69918830489E+01  0.10833026523E+02  0.51100000000E-03 0.  1.
         12    1    3    3    0    0 -0.11295903701E+02  0.12431241334E+02 -0.10962856824E+02  0.20057852110E+02  0.00000000000E+00 0. -1.
</event>
<event>
 7    1  0.1538805E-008  0.4614232E+02  0.7816164E-02  0.1320468E+00
        -11   -1    0    0    0    0  0.00000000000E+00  0.00000000000E+00  0.45593999997E+02  0.45594000000E+02  0.51100000000E-03 0.  1.
         11   -1    0    0    0    0 -0.00000000000E+00 -0.00000000000E+00 -0.45593999997E+02  0.45594000000E+02  0.51100000000E-03 0. -1.
    9900012    2    1    2    0    0  0.16443046073E+02 -0.26913903399E+02 -0.32161802421E+02  0.46142317684E+02  0.99999993006E+01 0.  0.
        -12    1    1    2    0    0 -0.16443046073E+02  0.26913903399E+02  0.32161802421E+02  0.45045682316E+02  0.00000000000E+00 0.  1.
         11    1    3    3    0    0  0.70692648079E+01 -0.16069457517E+02 -0.12669198535E+02  0.21649724284E+02  0.51100000000E-03 0. -1.
        -11    1    3    3    0    0  0.89959732497E+01 -0.86926758191E+01 -0.17655906711E+02  0.21638419297E+02  0.51100000000E-03 0.  1.
        -12    1    3    3    0    0  0.37780801496E+00 -0.21517700630E+01 -0.18366971751E+01  0.28541741035E+01  0.00000000000E+00 0.  1.
</event>
<event>
 7    1  0.1538805E-008  0.4614232E+02  0.7816164E-02  0.1320468E+00
        -11   -1    0    0    0    0  0.00000000000E+00  0.00000000000E+00  0.45593999997E+02  0.45594000000E+02  0.51100000000E-03 0.  1.
         11   -1    0    0    0    0 -0.00000000000E+00 -0.00000000000E+00 -0.45593999997E+02  0.45594000000E+02  0.51100000000E-03 0. -1.
    9900012    2    1    2    0    0 -0.15137838006E+01  0.73257919234E+01 -0.44420206924E+02  0.46142317056E+02  0.99999935711E+01 0.  0.
        -12    1    1    2    0    0  0.15137838006E+01 -0.73257919234E+01  0.44420206924E+02  0.45045682944E+02  0.00000000000E+00 0.  1.
         11    1    3    3    0    0  0.11413541393E+01  0.37818916748E+01 -0.30826953411E+02  0.31079035551E+02  0.51100000000E-03 0. -1.
        -11    1    3    3    0    0 -0.27210508526E+01  0.46709545278E+00 -0.32120188511E+01  0.42354883148E+01  0.51100000000E-03 0.  1.
        -12    1    3    3    0    0  0.65912912673E-01  0.30768047958E+01 -0.10381234662E+02  0.10827793190E+02  0.00000000000E+00 0.  1.
</event>
<event>
 7    1  0.1538805E-008  0.4614232E+02  0.7816164E-02  0.1320468E+00
        -11   -1    0    0    0    0  0.00000000000E+00  0.00000000000E+00  0.45593999997E+02  0.45594000000E+02  0.51100000000E-03 0.  1.
         11   -1    0    0    0    0 -0.00000000000E+00 -0.00000000000E+00 -0.45593999997E+02  0.45594000000E+02  0.51100000000E-03 0. -1.
    9900012    2    1    2    0    0  0.27127371071E+02  0.31356921803E+02 -0.17605756043E+02  0.46142318165E+02  0.10000003683E+02 0.  0.
        -12    1    1    2    0    0 -0.27127371071E+02 -0.31356921803E+02  0.17605756043E+02  0.45045681835E+02  0.00000000000E+00 0.  1.
         11    1    3    3    0    0  0.99576405016E+00 -0.28814050801E+00  0.35464702388E+00  0.10956029247E+01  0.51100000000E-03 0. -1.
        -11    1    3    3    0    0  0.23484868240E+02  0.25973265599E+02 -0.15901035015E+02  0.38457671236E+02  0.51100000000E-03 0.  1.
         12    1    3    3    0    0  0.26467387806E+01  0.56717967119E+01 -0.20593680514E+01  0.65890440039E+01  0.00000000000E+00 0. -1.
</event>
<event>
 7    1  0.1538805E-008  0.4614232E+02  0.7816164E-02  0.1320468E+00
        -11   -1    0    0    0    0  0.00000000000E+00  0.00000000000E+00  0.45593999997E+02  0.45594000000E+02  0.51100000000E-03 0. -1.
         11   -1    0    0    0    0 -0.00000000000E+00 -0.00000000000E+00 -0.45593999997E+02  0.45594000000E+02  0.51100000000E-03 0.  1.
    9900012    2    1    2    0    0 -0.72487155940E-01  0.43574486463E+02 -0.11418070327E+02  0.46142318133E+02  0.10000003393E+02 0.  0.
        -12    1    1    2    0    0  0.72487155940E-01 -0.43574486463E+02  0.11418070327E+02  0.45045681867E+02  0.00000000000E+00 0.  1.
         11    1    3    3    0    0 -0.31610013137E+01  0.13803657209E+02 -0.54622252834E+01  0.15177904564E+02  0.51100000000E-03 0. -1.
        -11    1    3    3    0    0  0.32226704748E+01  0.22142108111E+02 -0.65416673376E+01  0.23312056288E+02  0.51100000000E-03 0.  1.
        -12    1    3    3    0    0 -0.13415631699E+00  0.76287211425E+01  0.58582229440E+00  0.76523572804E+01  0.00000000000E+00 0.  1.
</event>
<event>
 7    1  0.1538805E-008  0.4614231E+02  0.7816164E-02  0.1320468E+00
        -11   -1    0    0    0    0  0.00000000000E+00  0.00000000000E+00  0.45593999997E+02  0.45594000000E+02  0.51100000000E-03 0. -1.
         11   -1    0    0    0    0 -0.00000000000E+00 -0.00000000000E+00 -0.45593999997E+02  0.45594000000E+02  0.51100000000E-03 0.  1.
    9900012    2    1    2    0    0 -0.10210783870E+02 -0.22268755716E+01  0.43816604737E+02  0.46142312829E+02  0.99999550226E+01 0.  0.
        -12    1    1    2    0    0  0.10210783870E+02  0.22268755716E+01 -0.43816604737E+02  0.45045687171E+02  0.00000000000E+00 0.  1.
         11    1    3    3    0    0 -0.29089192075E+01  0.22749319976E+01  0.22435010425E+02  0.22736904354E+02  0.51100000000E-03 0. -1.
        -11    1    3    3    0    0  0.24413066997E+00 -0.12341900432E+01  0.21775084088E+01  0.25148296122E+01  0.51100000000E-03 0.  1.
         12    1    3    3    0    0 -0.75459953325E+01 -0.32676175260E+01  0.19204085903E+02  0.20890578863E+02  0.00000000000E+00 0. -1.
</event>
<event>
 7    1  0.1538805E-008  0.4614230E+02  0.7816164E-02  0.1320468E+00
        -11   -1    0    0    0    0  0.00000000000E+00  0.00000000000E+00  0.45593999997E+02  0.45594000000E+02  0.51100000000E-03 0.  1.
         11   -1    0    0    0    0 -0.00000000000E+00 -0.00000000000E+00 -0.45593999997E+02  0.45594000000E+02  0.51100000000E-03 0. -1.
    9900012    2    1    2    0    0  0.30389676319E+02  0.20852826876E+02 -0.25898684453E+02  0.46142304624E+02  0.99998802074E+01 0.  0.
        -12    1    1    2    0    0 -0.30389676319E+02 -0.20852826876E+02  0.25898684453E+02  0.45045695376E+02  0.00000000000E+00 0.  1.
         11    1    3    3    0    0  0.86830685569E+00  0.74921615944E+00 -0.98355188908E-01  0.11510671803E+01  0.51100000000E-03 0. -1.
        -11    1    3    3    0    0  0.17792464692E+02  0.66230442390E+01 -0.13647607223E+02  0.23381481946E+02  0.51100000000E-03 0.  1.
        -12    1    3    3    0    0  0.11728904772E+02  0.13480566478E+02 -0.12152722040E+02  0.21609755498E+02  0.00000000000E+00 0.  1.
</event>
<event>
 7    1  0.1538805E-008  0.4614232E+02  0.7816164E-02  0.1320468E+00
        -11   -1    0    0    0    0  0.00000000000E+00  0.00000000000E+00  0.45593999997E+02  0.45594000000E+02  0.51100000000E-03 0. -1.
         11   -1    0    0    0    0 -0.00000000000E+00 -0.00000000000E+00 -0.45593999997E+02  0.45594000000E+02  0.51100000000E-03 0.  1.
    9900012    2    1    2    0    0  0.30911429529E+02  0.25899733900E+02  0.20069894287E+02  0.46142319316E+02  0.10000014179E+02 0.  0.
        -12    1    1    2    0    0 -0.30911429529E+02 -0.25899733900E+02 -0.20069894287E+02  0.45045680684E+02  0.00000000000E+00 0.  1.
         11    1    3    3    0    0 -0.20347219536E-01  0.12500993235E+00  0.14018211152E+01  0.14075312404E+01  0.51100000000E-03 0. -1.
        -11    1    3    3    0    0  0.79472101730E+01  0.46820253568E+01  0.23037540218E+01  0.95071969491E+01  0.51100000000E-03 0.  1.
         12    1    3    3    0    0  0.22984566575E+02  0.21092698611E+02  0.16364319150E+02  0.35227591127E+02  0.00000000000E+00 0. -1.
</event>
<event>
 7    1  0.1538805E-008  0.4614231E+02  0.7816164E-02  0.1320468E+00
        -11   -1    0    0    0    0  0.00000000000E+00  0.00000000000E+00  0.45593999997E+02  0.45594000000E+02  0.51100000000E-03 0.  1.
         11   -1    0    0    0    0 -0.00000000000E+00 -0.00000000000E+00 -0.45593999997E+02  0.45594000000E+02  0.51100000000E-03 0. -1.
    9900012    2    1    2    0    0  0.98068985321E+01  0.32981159411E+02 -0.29072015673E+02  0.46142309527E+02  0.99999249167E+01 0.  0.
        -12    1    1    2    0    0 -0.98068985321E+01 -0.32981159411E+02  0.29072015673E+02  0.45045690473E+02  0.00000000000E+00 0.  1.
         11    1    3    3    0    0  0.16408532363E+01  0.12494283899E+02 -0.14783290005E+02  0.19425374980E+02  0.51100000000E-03 0. -1.
        -11    1    3    3    0    0  0.84099169390E+01  0.16809012245E+02 -0.12808763665E+02  0.22744977961E+02  0.51100000000E-03 0.  1.
        -12    1    3    3    0    0 -0.24387164317E+00  0.36778632675E+01 -0.14799620028E+01  0.39719565861E+01  0.00000000000E+00 0.  1.
</event>
<event>
 7    1  0.1538805E-008  0.4614232E+02  0.7816164E-02  0.1320468E+00
        -11   -1    0    0    0    0  0.00000000000E+00  0.00000000000E+00  0.45593999997E+02  0.45594000000E+02  0.51100000000E-03 0.  1.
         11   -1    0    0    0    0 -0.00000000000E+00 -0.00000000000E+00 -0.45593999997E+02  0.45594000000E+02  0.51100000000E-03 0. -1.
    9900012    2    1    2    0    0 -0.38832399215E+02 -0.21467377426E+02  0.77659550720E+01  0.46142316738E+02  0.99999906681E+01 0.  0.
        -12    1    1    2    0    0  0.38832399215E+02  0.21467377426E+02 -0.77659550720E+01  0.45045683262E+02  0.00000000000E+00 0.  1.
         11    1    3    3    0    0 -0.18882934743E+02 -0.89999321752E+01  0.56523336417E+01  0.21668245880E+02  0.51100000000E-03 0.  1.
        -11    1    3    3    0    0 -0.54790215018E+01 -0.63544945901E+01 -0.10316929506E+01  0.84536186760E+01  0.51100000000E-03 0. -1.
         12    1    3    3    0    0 -0.14470442970E+02 -0.61129506608E+01  0.31453143809E+01  0.16020452181E+02  0.00000000000E+00 0. -1.
</event>
<event>
 7    1  0.1538805E-008  0.4614232E+02  0.7816164E-02  0.1320468E+00
        -11   -1    0    0    0    0  0.00000000000E+00  0.00000000000E+00  0.45593999997E+02  0.45594000000E+02  0.51100000000E-03 0. -1.
         11   -1    0    0    0    0 -0.00000000000E+00 -0.00000000000E+00 -0.45593999997E+02  0.45594000000E+02  0.51100000000E-03 0.  1.
    9900012    2    1    2    0    0 -0.11619288623E+02 -0.33550449982E+02  0.27721343162E+02  0.46142318422E+02  0.10000006029E+02 0.  0.
        -12    1    1    2    0    0  0.11619288623E+02  0.33550449982E+02 -0.27721343162E+02  0.45045681578E+02  0.00000000000E+00 0.  1.
         11    1    3    3    0    0 -0.37321455005E+01 -0.10732335226E+02  0.39156909187E+01  0.12018509270E+02  0.51100000000E-03 0. -1.
        -11    1    3    3    0    0 -0.85520574137E+00 -0.38690476301E+00  0.10032998386E+01  0.13739297591E+01  0.51100000000E-03 0.  1.
         12    1    3    3    0    0 -0.70319373808E+01 -0.22431209993E+02  0.22802352405E+02  0.32749879393E+02  0.00000000000E+00 0. -1.
</event>
<event>
 7    1  0.1538805E-008  0.4614232E+02  0.7816164E-02  0.1320468E+00
        -11   -1    0    0    0    0  0.00000000000E+00  0.00000000000E+00  0.45593999997E+02  0.45594000000E+02  0.51100000000E-03 0. -1.
         11   -1    0    0    0    0 -0.00000000000E+00 -0.00000000000E+00 -0.45593999997E+02  0.45594000000E+02  0.51100000000E-03 0.  1.
    9900012    2    1    2    0    0 -0.32292661718E+02 -0.95158177314E+01  0.29929027846E+02  0.46142317680E+02  0.99999992565E+01 0.  0.
        -12    1    1    2    0    0  0.32292661718E+02  0.95158177314E+01 -0.29929027846E+02  0.45045682320E+02  0.00000000000E+00 0.  1.
         11    1    3    3    0    0 -0.14046536130E+02 -0.67947806178E+01  0.11436278319E+02  0.19345869920E+02  0.51100000000E-03 0. -1.
        -11    1    3    3    0    0 -0.17211313395E+02 -0.11366263844E+01  0.15160631119E+02  0.22964450015E+02  0.51100000000E-03 0.  1.
         12    1    3    3    0    0 -0.10348121931E+01 -0.15844107292E+01  0.33321184075E+01  0.38319977447E+01  0.00000000000E+00 0. -1.
</event>
<event>
 7    1  0.1538805E-008  0.4614232E+02  0.7816164E-02  0.1320468E+00
        -11   -1    0    0    0    0  0.00000000000E+00  0.00000000000E+00  0.45593999997E+02  0.45594000000E+02  0.51100000000E-03 0. -1.
         11   -1    0    0    0    0 -0.00000000000E+00 -0.00000000000E+00 -0.45593999997E+02  0.45594000000E+02  0.51100000000E-03 0.  1.
    9900012    2    1    2    0    0 -0.36506869856E+02 -0.23008522186E+02  0.12921681905E+02  0.46142317597E+02  0.99999985049E+01 0.  0.
        -12    1    1    2    0    0  0.36506869856E+02  0.23008522186E+02 -0.12921681905E+02  0.45045682403E+02  0.00000000000E+00 0.  1.
         11    1    3    3    0    0 -0.11689558335E+02 -0.10584666587E+02  0.48560260878E+01  0.16500361525E+02  0.51100000000E-03 0. -1.
        -11    1    3    3    0    0 -0.12830575162E+02 -0.64724742261E+01  0.75037150810E+00  0.14390261960E+02  0.51100000000E-03 0.  1.
        -12    1    3    3    0    0 -0.11986736359E+02 -0.59513813727E+01  0.73152843090E+01  0.15251694113E+02  0.00000000000E+00 0.  1.
</event>
<event>
 7    1  0.1538805E-008  0.4614232E+02  0.7816164E-02  0.1320468E+00
        -11   -1    0    0    0    0  0.00000000000E+00  0.00000000000E+00  0.45593999997E+02  0.45594000000E+02  0.51100000000E-03 0.  1.
         11   -1    0    0    0    0 -0.00000000000E+00 -0.00000000000E+00 -0.45593999997E+02  0.45594000000E+02  0.51100000000E-03 0. -1.
    9900012    2    1    2    0    0  0.28853671773E+02 -0.32902827291E+02 -0.10676284191E+02  0.46142318047E+02  0.10000002605E+02 0.  0.
        -12    1    1    2    0    0 -0.28853671773E+02  0.32902827291E+02  0.10676284191E+02  0.45045681953E+02  0.00000000000E+00 0.  1.
         11    1    3    3    0    0  0.19816188472E+02 -0.19907517831E+02 -0.47861979650E+01  0.28493828858E+02  0.51100000000E-03 0. -1.
        -11    1    3    3    0    0  0.73074939193E+00  0.27842094662E+00  0.26188771544E+00  0.82468074668E+00  0.51100000000E-03 0.  1.
        -12    1    3    3    0    0  0.83067339089E+01 -0.13273730407E+02 -0.61519739411E+01  0.16823808443E+02  0.00000000000E+00 0.  1.
</event>
<event>
 7    1  0.1538805E-008  0.4614232E+02  0.7816164E-02  0.1320468E+00
        -11   -1    0    0    0    0  0.00000000000E+00  0.00000000000E+00  0.45593999997E+02  0.45594000000E+02  0.51100000000E-03 0.  1.
         11   -1    0    0    0    0 -0.00000000000E+00 -0.00000000000E+00 -0.45593999997E+02  0.45594000000E+02  0.51100000000E-03 0. -1.
    9900012    2    1    2    0    0  0.19792088166E+02 -0.17085570076E+02 -0.36680647246E+02  0.46142319395E+02  0.10000014896E+02 0.  0.
        -12    1    1    2    0    0 -0.19792088166E+02  0.17085570076E+02  0.36680647246E+02  0.45045680605E+02  0.00000000000E+00 0.  1.
         11    1    3    3    0    0  0.48851682728E+01 -0.86594530912E+01 -0.16607747806E+02  0.19356349975E+02  0.51100000000E-03 0. -1.
        -11    1    3    3    0    0  0.17146886655E+01 -0.12869914747E+01 -0.53681856064E+01  0.57804775963E+01  0.51100000000E-03 0.  1.
         12    1    3    3    0    0  0.13192231228E+02 -0.71391255104E+01 -0.14704713833E+02  0.21005491824E+02  0.00000000000E+00 0. -1.
</event>
<event>
 7    1  0.1538805E-008  0.4614232E+02  0.7816164E-02  0.1320468E+00
        -11   -1    0    0    0    0  0.00000000000E+00  0.00000000000E+00  0.45593999997E+02  0.45594000000E+02  0.51100000000E-03 0.  1.
         11   -1    0    0    0    0 -0.00000000000E+00 -0.00000000000E+00 -0.45593999997E+02  0.45594000000E+02  0.51100000000E-03 0. -1.
    9900012    2    1    2    0    0 -0.43929824484E+02  0.90910582029E+01  0.40787943928E+01  0.46142318940E+02  0.10000010755E+02 0.  0.
        -12    1    1    2    0    0  0.43929824484E+02 -0.90910582029E+01 -0.40787943928E+01  0.45045681060E+02  0.00000000000E+00 0.  1.
         11    1    3    3    0    0 -0.30971170466E+01 -0.73869346898E+00  0.65967219090E-01  0.31846748620E+01  0.51100000000E-03 0. -1.
        -11    1    3    3    0    0 -0.38187108590E+01  0.20236256064E+01  0.27218171752E+01  0.51074359728E+01  0.51100000000E-03 0.  1.
        -12    1    3    3    0    0 -0.37013996578E+02  0.78061260655E+01  0.12910099986E+01  0.37850208106E+02  0.00000000000E+00 0.  1.
</event>
<event>
 7    1  0.1538805E-008  0.4614232E+02  0.7816164E-02  0.1320468E+00
        -11   -1    0    0    0    0  0.00000000000E+00  0.00000000000E+00  0.45593999997E+02  0.45594000000E+02  0.51100000000E-03 0.  1.
         11   -1    0    0    0    0 -0.00000000000E+00 -0.00000000000E+00 -0.45593999997E+02  0.45594000000E+02  0.51100000000E-03 0. -1.
    9900012    2    1    2    0    0 -0.20607496632E+02  0.34505789155E+02 -0.20341946797E+02  0.46142320938E+02  0.10000028968E+02 0.  0.
        -12    1    1    2    0    0  0.20607496632E+02 -0.34505789155E+02  0.20341946797E+02  0.45045679062E+02  0.00000000000E+00 0.  1.
         11    1    3    3    0    0 -0.98494482742E+01  0.11016297199E+02 -0.94025239390E+01  0.17515076134E+02  0.51100000000E-03 0. -1.
        -11    1    3    3    0    0 -0.12421020465E+01  0.33965455386E+00 -0.12296036137E+01  0.17804797157E+01  0.51100000000E-03 0.  1.
         12    1    3    3    0    0 -0.95159463114E+01  0.23149837402E+02 -0.97098192447E+01  0.26846765089E+02  0.00000000000E+00 0. -1.
</event>
<event>
 7    1  0.1538805E-008  0.4614232E+02  0.7816164E-02  0.1320468E+00
        -11   -1    0    0    0    0  0.00000000000E+00  0.00000000000E+00  0.45593999997E+02  0.45594000000E+02  0.51100000000E-03 0.  1.
         11   -1    0    0    0    0 -0.00000000000E+00 -0.00000000000E+00 -0.45593999997E+02  0.45594000000E+02  0.51100000000E-03 0. -1.
    9900012    2    1    2    0    0  0.35875979776E+02 -0.15458938618E+02 -0.22428753525E+02  0.46142315493E+02  0.99999793155E+01 0.  0.
        -12    1    1    2    0    0 -0.35875979776E+02  0.15458938618E+02  0.22428753525E+02  0.45045684507E+02  0.00000000000E+00 0.  1.
         11    1    3    3    0    0  0.17775569019E+02 -0.39109852461E+01 -0.69908299477E+01  0.19497137307E+02  0.51100000000E-03 0. -1.
        -11    1    3    3    0    0  0.75228803791E+01 -0.31993729640E+01 -0.68546909446E+01  0.10668481840E+02  0.51100000000E-03 0.  1.
        -12    1    3    3    0    0  0.10577530378E+02 -0.83485804077E+01 -0.85832326326E+01  0.15976696346E+02  0.00000000000E+00 0.  1.
</event>
<event>
 7    1  0.1538805E-008  0.4614232E+02  0.7816164E-02  0.1320468E+00
        -11   -1    0    0    0    0  0.00000000000E+00  0.00000000000E+00  0.45593999997E+02  0.45594000000E+02  0.51100000000E-03 0. -1.
         11   -1    0    0    0    0 -0.00000000000E+00 -0.00000000000E+00 -0.45593999997E+02  0.45594000000E+02  0.51100000000E-03 0.  1.
    9900012    2    1    2    0    0  0.23305844227E+02  0.24726372948E+01  0.38468651495E+02  0.46142318097E+02  0.10000003060E+02 0.  0.
        -12    1    1    2    0    0 -0.23305844227E+02 -0.24726372948E+01 -0.38468651495E+02  0.45045681903E+02  0.00000000000E+00 0.  1.
         11    1    3    3    0    0  0.38396728019E+01  0.20972699471E-01  0.14589984803E+01  0.41075788375E+01  0.51100000000E-03 0. -1.
        -11    1    3    3    0    0  0.21720860756E+01 -0.78731781249E+00  0.50043290071E+01  0.55119085923E+01  0.51100000000E-03 0.  1.
         12    1    3    3    0    0  0.17294085349E+02  0.32389824079E+01  0.32005324007E+02  0.36522830667E+02  0.00000000000E+00 0. -1.
</event>
<event>
 7    1  0.1538805E-008  0.4614232E+02  0.7816164E-02  0.1320468E+00
        -11   -1    0    0    0    0  0.00000000000E+00  0.00000000000E+00  0.45593999997E+02  0.45594000000E+02  0.51100000000E-03 0. -1.
         11   -1    0    0    0    0 -0.00000000000E+00 -0.00000000000E+00 -0.45593999997E+02  0.45594000000E+02  0.51100000000E-03 0.  1.
    9900012    2    1    2    0    0  0.20847531709E+02 -0.25393073598E+02  0.30816970993E+02  0.46142318006E+02  0.10000002234E+02 0.  0.
        -12    1    1    2    0    0 -0.20847531709E+02  0.25393073598E+02 -0.30816970993E+02  0.45045681994E+02  0.00000000000E+00 0.  1.
         11    1    3    3    0    0  0.91399371208E+01 -0.59020070065E+01  0.71574283704E+01  0.13023091738E+02  0.51100000000E-03 0. -1.
        -11    1    3    3    0    0  0.78720622009E+01 -0.90869689273E+01  0.11071968634E+02  0.16344138315E+02  0.51100000000E-03 0.  1.
         12    1    3    3    0    0  0.38355323870E+01 -0.10404097664E+02  0.12587573989E+02  0.16775087953E+02  0.00000000000E+00 0. -1.
</event>
<event>
 7    1  0.1538805E-008  0.4614232E+02  0.7816164E-02  0.1320468E+00
        -11   -1    0    0    0    0  0.00000000000E+00  0.00000000000E+00  0.45593999997E+02  0.45594000000E+02  0.51100000000E-03 0.  1.
         11   -1    0    0    0    0 -0.00000000000E+00 -0.00000000000E+00 -0.45593999997E+02  0.45594000000E+02  0.51100000000E-03 0. -1.
    9900012    2    1    2    0    0 -0.19563284084E+02 -0.32793403563E+02 -0.23895274646E+02  0.46142317057E+02  0.99999935778E+01 0.  0.
        -12    1    1    2    0    0  0.19563284084E+02  0.32793403563E+02  0.23895274646E+02  0.45045682943E+02  0.00000000000E+00 0.  1.
         11    1    3    3    0    0 -0.10502738622E+02 -0.21040765238E+02 -0.12151920931E+02  0.26470559173E+02  0.51100000000E-03 0. -1.
        -11    1    3    3    0    0 -0.91006772111E+01 -0.86287436921E+01 -0.10307867767E+02  0.16233597308E+02  0.51100000000E-03 0.  1.
        -12    1    3    3    0    0  0.40131748957E-01 -0.31238946334E+01 -0.14354859483E+01  0.34381605759E+01  0.00000000000E+00 0.  1.
</event>
<event>
 7    1  0.1538805E-008  0.4614232E+02  0.7816164E-02  0.1320468E+00
        -11   -1    0    0    0    0  0.00000000000E+00  0.00000000000E+00  0.45593999997E+02  0.45594000000E+02  0.51100000000E-03 0.  1.
         11   -1    0    0    0    0 -0.00000000000E+00 -0.00000000000E+00 -0.45593999997E+02  0.45594000000E+02  0.51100000000E-03 0. -1.
    9900012    2    1    2    0    0 -0.21335970219E+00 -0.12308464646E+02 -0.43330931583E+02  0.46142318119E+02  0.10000003263E+02 0.  0.
        -12    1    1    2    0    0  0.21335970219E+00  0.12308464646E+02  0.43330931583E+02  0.45045681881E+02  0.00000000000E+00 0.  1.
         11    1    3    3    0    0 -0.63947069984E+00 -0.77559286714E+01 -0.23274269104E+02  0.24540883336E+02  0.51100000000E-03 0. -1.
        -11    1    3    3    0    0 -0.15769993629E+01 -0.83421154608E-01 -0.87704023707E+00  0.18064013724E+01  0.51100000000E-03 0.  1.
         12    1    3    3    0    0  0.20031103605E+01 -0.44691148196E+01 -0.19179622242E+02  0.19795033411E+02  0.00000000000E+00 0. -1.
</event>
<event>
 7    1  0.1538805E-008  0.4614232E+02  0.7816164E-02  0.1320468E+00
        -11   -1    0    0    0    0  0.00000000000E+00  0.00000000000E+00  0.45593999997E+02  0.45594000000E+02  0.51100000000E-03 0.  1.
         11   -1    0    0    0    0 -0.00000000000E+00 -0.00000000000E+00 -0.45593999997E+02  0.45594000000E+02  0.51100000000E-03 0. -1.
    9900012    2    1    2    0    0  0.18687226076E+02 -0.28154666411E+02 -0.29786168470E+02  0.46142317729E+02  0.99999997094E+01 0.  0.
        -12    1    1    2    0    0 -0.18687226076E+02  0.28154666411E+02  0.29786168470E+02  0.45045682271E+02  0.00000000000E+00 0.  1.
         11    1    3    3    0    0  0.77716709319E+01 -0.17951740071E+02 -0.13360683770E+02  0.23689063125E+02  0.51100000000E-03 0. -1.
        -11    1    3    3    0    0  0.86085710408E+01 -0.89278459038E+01 -0.11741616888E+02  0.17078626855E+02  0.51100000000E-03 0.  1.
         12    1    3    3    0    0  0.23069841028E+01 -0.12750804361E+01 -0.46838678115E+01  0.53746277494E+01  0.00000000000E+00 0. -1.
</event>
<event>
 7    1  0.1795248E-008  0.4614232E+02  0.7816164E-02  0.1320468E+00
        -11   -1    0    0    0    0  0.00000000000E+00  0.00000000000E+00  0.45593999997E+02  0.45594000000E+02  0.51100000000E-03 0. -1.
         11   -1    0    0    0    0 -0.00000000000E+00 -0.00000000000E+00 -0.45593999997E+02  0.45594000000E+02  0.51100000000E-03 0.  1.
    9900012    2    1    2    0    0 -0.23934836905E+02 -0.29412312471E+02  0.24313637224E+02  0.46142317658E+02  0.99999990606E+01 0.  0.
        -12    1    1    2    0    0  0.23934836905E+02  0.29412312471E+02 -0.24313637224E+02  0.45045682342E+02  0.00000000000E+00 0.  1.
         11    1    3    3    0    0 -0.13013611994E+02 -0.18112975072E+02  0.16046894034E+02  0.27476112744E+02  0.51100000000E-03 0. -1.
        -11    1    3    3    0    0  0.11543226451E-01  0.56876184511E+00  0.88064006839E-01  0.57565511633E+00  0.51100000000E-03 0.  1.
        -12    1    3    3    0    0 -0.10932768137E+02 -0.11868099245E+02  0.81786791831E+01  0.18090549798E+02  0.00000000000E+00 0.  1.
</event>
<event>
 7    1  0.1538805E-008  0.4614232E+02  0.7816164E-02  0.1320468E+00
        -11   -1    0    0    0    0  0.00000000000E+00  0.00000000000E+00  0.45593999997E+02  0.45594000000E+02  0.51100000000E-03 0.  1.
         11   -1    0    0    0    0 -0.00000000000E+00 -0.00000000000E+00 -0.45593999997E+02  0.45594000000E+02  0.51100000000E-03 0. -1.
    9900012    2    1    2    0    0  0.27348178794E+02  0.16759548269E+02 -0.31627647709E+02  0.46142318285E+02  0.10000004779E+02 0.  0.
        -12    1    1    2    0    0 -0.27348178794E+02 -0.16759548269E+02  0.31627647709E+02  0.45045681715E+02  0.00000000000E+00 0.  1.
         11    1    3    3    0    0  0.13651253946E+02  0.11611399361E+02 -0.14757470994E+02  0.23215604231E+02  0.51100000000E-03 0. -1.
        -11    1    3    3    0    0  0.25534712522E+01  0.25882416920E+01 -0.67065992007E+01  0.76287406295E+01  0.51100000000E-03 0.  1.
         12    1    3    3    0    0  0.11143453596E+02  0.25599072153E+01 -0.10163577515E+02  0.15297973425E+02  0.00000000000E+00 0. -1.
</event>
<event>
 7    1  0.1538805E-008  0.4614230E+02  0.7816164E-02  0.1320468E+00
        -11   -1    0    0    0    0  0.00000000000E+00  0.00000000000E+00  0.45593999997E+02  0.45594000000E+02  0.51100000000E-03 0.  1.
         11   -1    0    0    0    0 -0.00000000000E+00 -0.00000000000E+00 -0.45593999997E+02  0.45594000000E+02  0.51100000000E-03 0. -1.
    9900012    2    1    2    0    0  0.12028804254E+02 -0.42976328757E+02 -0.61202809045E+01  0.46142303162E+02  0.99998668753E+01 0.  0.
        -12    1    1    2    0    0 -0.12028804254E+02  0.42976328757E+02  0.61202809045E+01  0.45045696838E+02  0.00000000000E+00 0.  1.
         11    1    3    3    0    0  0.42722417794E+01 -0.24046369477E+02 -0.20293878208E+01  0.24507108154E+02  0.51100000000E-03 0. -1.
        -11    1    3    3    0    0  0.70489331869E-01 -0.74006406658E+00 -0.15580489786E+01  0.17263199151E+01  0.51100000000E-03 0.  1.
         12    1    3    3    0    0  0.76860731425E+01 -0.18189895214E+02 -0.25328441051E+01  0.19908875094E+02  0.00000000000E+00 0. -1.
</event>
<event>
 7    1  0.1538805E-008  0.4614232E+02  0.7816164E-02  0.1320468E+00
        -11   -1    0    0    0    0  0.00000000000E+00  0.00000000000E+00  0.45593999997E+02  0.45594000000E+02  0.51100000000E-03 0. -1.
         11   -1    0    0    0    0 -0.00000000000E+00 -0.00000000000E+00 -0.45593999997E+02  0.45594000000E+02  0.51100000000E-03 0.  1.
    9900012    2    1    2    0    0 -0.39174923582E+02  0.21421001466E+02 -0.59648575805E+01  0.46142317994E+02  0.10000002124E+02 0.  0.
        -12    1    1    2    0    0  0.39174923582E+02 -0.21421001466E+02  0.59648575805E+01  0.45045682006E+02  0.00000000000E+00 0.  1.
         11    1    3    3    0    0 -0.31571689657E+02  0.19148107285E+02 -0.60111324872E+01  0.37410631036E+02  0.51100000000E-03 0. -1.
        -11    1    3    3    0    0  0.28945395982E-01 -0.39700325637E+00 -0.48633342495E+00  0.62846629414E+00  0.51100000000E-03 0.  1.
        -12    1    3    3    0    0 -0.76321793203E+01  0.26698974365E+01  0.53260833172E+00  0.81032206643E+01  0.00000000000E+00 0.  1.
</event>
<event>
 7    1  0.1538805E-008  0.4614232E+02  0.7816164E-02  0.1320468E+00
        -11   -1    0    0    0    0  0.00000000000E+00  0.00000000000E+00  0.45593999997E+02  0.45594000000E+02  0.51100000000E-03 0.  1.
         11   -1    0    0    0    0 -0.00000000000E+00 -0.00000000000E+00 -0.45593999997E+02  0.45594000000E+02  0.51100000000E-03 0. -1.
    9900012    2    1    2    0    0  0.14535647331E+02  0.38598358181E+02  0.18110642629E+02  0.46142315700E+02  0.99999812062E+01 0.  0.
        -12    1    1    2    0    0 -0.14535647331E+02 -0.38598358181E+02 -0.18110642629E+02  0.45045684300E+02  0.00000000000E+00 0.  1.
         11    1    3    3    0    0  0.82517556682E+00 -0.25069928336E+00  0.48796530560E+00  0.99089618394E+00  0.51100000000E-03 0. -1.
        -11    1    3    3    0    0  0.34241731609E+01  0.13893664984E+02  0.85810050579E+01  0.16685099238E+02  0.51100000000E-03 0.  1.
         12    1    3    3    0    0  0.10286298603E+02  0.24955392480E+02  0.90416722651E+01  0.28466320278E+02  0.00000000000E+00 0. -1.
</event>
<event>
 7    1  0.1538805E-008  0.4614232E+02  0.7816164E-02  0.1320468E+00
        -11   -1    0    0    0    0  0.00000000000E+00  0.00000000000E+00  0.45593999997E+02  0.45594000000E+02  0.51100000000E-03 0.  1.
         11   -1    0    0    0    0 -0.00000000000E+00 -0.00000000000E+00 -0.45593999997E+02  0.45594000000E+02  0.51100000000E-03 0. -1.
    9900012    2    1    2    0    0  0.37986969438E+02  0.24167799932E+01 -0.24088636239E+02  0.46142322422E+02  0.10000042500E+02 0.  0.
        -12    1    1    2    0    0 -0.37986969438E+02 -0.24167799932E+01  0.24088636239E+02  0.45045677578E+02  0.00000000000E+00 0.  1.
         11    1    3    3    0    0  0.86671087499E+01 -0.11457363245E+01 -0.34344854035E+01  0.93929322395E+01  0.51100000000E-03 0. -1.
        -11    1    3    3    0    0  0.24399261882E+02  0.37271630675E+01 -0.13702023263E+02  0.28230500645E+02  0.51100000000E-03 0.  1.
        -12    1    3    3    0    0  0.49205988061E+01 -0.16464674974E+00 -0.69521275723E+01  0.85188895371E+01  0.00000000000E+00 0.  1.
</event>
<event>
 7    1  0.1538805E-008  0.4614232E+02  0.7816164E-02  0.1320468E+00
        -11   -1    0    0    0    0  0.00000000000E+00  0.00000000000E+00  0.45593999997E+02  0.45594000000E+02  0.51100000000E-03 0.  1.
         11   -1    0    0    0    0 -0.00000000000E+00 -0.00000000000E+00 -0.45593999997E+02  0.45594000000E+02  0.51100000000E-03 0. -1.
    9900012    2    1    2    0    0 -0.20649344722E+02 -0.19181085571E+02 -0.35139780162E+02  0.46142316178E+02  0.99999855661E+01 0.  0.
        -12    1    1    2    0    0  0.20649344722E+02  0.19181085571E+02  0.35139780162E+02  0.45045683822E+02  0.00000000000E+00 0.  1.
         11    1    3    3    0    0 -0.84036652964E+01 -0.62765435415E+01 -0.98479403375E+01  0.14387443081E+02  0.51100000000E-03 0. -1.
        -11    1    3    3    0    0 -0.70914563435E+01 -0.56453888171E+01 -0.18346016038E+02  0.20463026968E+02  0.51100000000E-03 0.  1.
         12    1    3    3    0    0 -0.51542230817E+01 -0.72591532125E+01 -0.69458237866E+01  0.11291846130E+02  0.00000000000E+00 0. -1.
</event>
<event>
 7    1  0.1538805E-008  0.4614232E+02  0.7816164E-02  0.1320468E+00
        -11   -1    0    0    0    0  0.00000000000E+00  0.00000000000E+00  0.45593999997E+02  0.45594000000E+02  0.51100000000E-03 0. -1.
         11   -1    0    0    0    0 -0.00000000000E+00 -0.00000000000E+00 -0.45593999997E+02  0.45594000000E+02  0.51100000000E-03 0.  1.
    9900012    2    1    2    0    0  0.35926493454E+02 -0.23164074195E+02  0.14206556584E+02  0.46142317463E+02  0.99999972839E+01 0.  0.
        -12    1    1    2    0    0 -0.35926493454E+02  0.23164074195E+02 -0.14206556584E+02  0.45045682537E+02  0.00000000000E+00 0.  1.
         11    1    3    3    0    0  0.28658732231E+01  0.33525019503E+00  0.18394908523E+01  0.34218925876E+01  0.51100000000E-03 0.  1.
        -11    1    3    3    0    0  0.27102611900E+01 -0.20651697247E+01  0.26451587756E+01  0.43136187730E+01  0.51100000000E-03 0. -1.
         12    1    3    3    0    0  0.30350359041E+02 -0.21434154665E+02  0.97219069557E+01  0.38406806103E+02  0.00000000000E+00 0. -1.
</event>
<event>
 7    1  0.1538805E-008  0.4614232E+02  0.7816164E-02  0.1320468E+00
        -11   -1    0    0    0    0  0.00000000000E+00  0.00000000000E+00  0.45593999997E+02  0.45594000000E+02  0.51100000000E-03 0.  1.
         11   -1    0    0    0    0 -0.00000000000E+00 -0.00000000000E+00 -0.45593999997E+02  0.45594000000E+02  0.51100000000E-03 0. -1.
    9900012    2    1    2    0    0  0.36696698454E+02  0.21078541783E+02 -0.15432459666E+02  0.46142318603E+02  0.10000007680E+02 0.  0.
        -12    1    1    2    0    0 -0.36696698454E+02 -0.21078541783E+02  0.15432459666E+02  0.45045681397E+02  0.00000000000E+00 0.  1.
         11    1    3    3    0    0  0.32924907329E+02  0.20922767770E+02 -0.12097471713E+02  0.40843121280E+02  0.51100000000E-03 0. -1.
        -11    1    3    3    0    0  0.18603766475E+01 -0.74596667223E+00 -0.16587186366E+01  0.26016947021E+01  0.51100000000E-03 0.  1.
         12    1    3    3    0    0  0.19114144773E+01  0.90174068545E+00 -0.16762693166E+01  0.26975026209E+01  0.00000000000E+00 0. -1.
</event>
<event>
 7    1  0.1538805E-008  0.4614232E+02  0.7816164E-02  0.1320468E+00
        -11   -1    0    0    0    0  0.00000000000E+00  0.00000000000E+00  0.45593999997E+02  0.45594000000E+02  0.51100000000E-03 0.  1.
         11   -1    0    0    0    0 -0.00000000000E+00 -0.00000000000E+00 -0.45593999997E+02  0.45594000000E+02  0.51100000000E-03 0. -1.
    9900012    2    1    2    0    0  0.14930025561E+01  0.45015191800E+02  0.71890349287E+00  0.46142319057E+02  0.10000011817E+02 0.  0.
        -12    1    1    2    0    0 -0.14930025561E+01 -0.45015191800E+02 -0.71890349287E+00  0.45045680943E+02  0.00000000000E+00 0.  1.
         11    1    3    3    0    0 -0.14605469046E+01  0.13784605439E+02 -0.14370831338E+01  0.13936059434E+02  0.51100000000E-03 0. -1.
        -11    1    3    3    0    0  0.21579135388E+01  0.29789776917E+02  0.50079539000E+00  0.29872030327E+02  0.51100000000E-03 0.  1.
        -12    1    3    3    0    0  0.79563592194E+00  0.14408094443E+01  0.16551912366E+01  0.23342292957E+01  0.00000000000E+00 0.  1.
</event>
<event>
 7    1  0.1877583E-008  0.4614232E+02  0.7816164E-02  0.1320468E+00
        -11   -1    0    0    0    0  0.00000000000E+00  0.00000000000E+00  0.45593999997E+02  0.45594000000E+02  0.51100000000E-03 0. -1.
         11   -1    0    0    0    0 -0.00000000000E+00 -0.00000000000E+00 -0.45593999997E+02  0.45594000000E+02  0.51100000000E-03 0.  1.
    9900012    2    1    2    0    0  0.34107827893E+01 -0.42289979079E+02  0.15133993608E+02  0.46142317274E+02  0.99999955604E+01 0.  0.
        -12    1    1    2    0    0 -0.34107827893E+01  0.42289979079E+02 -0.15133993608E+02  0.45045682726E+02  0.00000000000E+00 0.  1.
         11    1    3    3    0    0  0.30459301820E+01 -0.26847790233E+02  0.10469313505E+02  0.28977371458E+02  0.51100000000E-03 0. -1.
        -11    1    3    3    0    0 -0.18548225409E+01 -0.14640190349E+01  0.77584708618E+00  0.24870981796E+01  0.51100000000E-03 0.  1.
        -12    1    3    3    0    0  0.22196751483E+01 -0.13978169810E+02  0.38888330164E+01  0.14677847637E+02  0.00000000000E+00 0.  1.
</event>
<event>
 7    1  0.1538805E-008  0.4614231E+02  0.7816164E-02  0.1320468E+00
        -11   -1    0    0    0    0  0.00000000000E+00  0.00000000000E+00  0.45593999997E+02  0.45594000000E+02  0.51100000000E-03 0.  1.
         11   -1    0    0    0    0 -0.00000000000E+00 -0.00000000000E+00 -0.45593999997E+02  0.45594000000E+02  0.51100000000E-03 0. -1.
    9900012    2    1    2    0    0 -0.93150960959E+01  0.43141145477E+02 -0.90102551463E+01  0.46142310460E+02  0.99999334246E+01 0.  0.
        -12    1    1    2    0    0  0.93150960959E+01 -0.43141145477E+02  0.90102551463E+01  0.45045689540E+02  0.00000000000E+00 0.  1.
         11    1    3    3    0    0 -0.14260286101E+00  0.40300752606E+01 -0.11525662417E+01  0.41940733643E+01  0.51100000000E-03 0. -1.
        -11    1    3    3    0    0 -0.20306763811E+01  0.22047071314E+01 -0.26449333436E+01  0.39975058165E+01  0.51100000000E-03 0.  1.
        -12    1    3    3    0    0 -0.71418168538E+01  0.36906363085E+02 -0.52127555609E+01  0.37950731279E+02  0.00000000000E+00 0.  1.
</event>
<event>
 7    1  0.1538805E-008  0.4614232E+02  0.7816164E-02  0.1320468E+00
        -11   -1    0    0    0    0  0.00000000000E+00  0.00000000000E+00  0.45593999997E+02  0.45594000000E+02  0.51100000000E-03 0.  1.
         11   -1    0    0    0    0 -0.00000000000E+00 -0.00000000000E+00 -0.45593999997E+02  0.45594000000E+02  0.51100000000E-03 0. -1.
    9900012    2    1    2    0    0 -0.30045989725E+02 -0.33526908917E+02  0.15160332803E+01  0.46142317887E+02  0.10000001151E+02 0.  0.
        -12    1    1    2    0    0  0.30045989725E+02  0.33526908917E+02 -0.15160332803E+01  0.45045682113E+02  0.00000000000E+00 0.  1.
         11    1    3    3    0    0 -0.28832052731E+01 -0.28201053414E+01 -0.11546744118E+01  0.41951328992E+01  0.51100000000E-03 0. -1.
        -11    1    3    3    0    0 -0.14697114194E+02 -0.11108443852E+02 -0.91277520123E+00  0.18445483167E+02  0.51100000000E-03 0.  1.
        -12    1    3    3    0    0 -0.12465670258E+02 -0.19598359723E+02  0.35834828934E+01  0.23501701821E+02  0.00000000000E+00 0.  1.
</event>
<event>
 7    1  0.1538805E-008  0.4614232E+02  0.7816164E-02  0.1320468E+00
        -11   -1    0    0    0    0  0.00000000000E+00  0.00000000000E+00  0.45593999997E+02  0.45594000000E+02  0.51100000000E-03 0. -1.
         11   -1    0    0    0    0 -0.00000000000E+00 -0.00000000000E+00 -0.45593999997E+02  0.45594000000E+02  0.51100000000E-03 0.  1.
    9900012    2    1    2    0    0  0.69992692893E+01 -0.26105578286E+02  0.36036406181E+02  0.46142316981E+02  0.99999928872E+01 0.  0.
        -12    1    1    2    0    0 -0.69992692893E+01  0.26105578286E+02 -0.36036406181E+02  0.45045683019E+02  0.00000000000E+00 0.  1.
         11    1    3    3    0    0  0.26938368548E+01 -0.17604379569E+02  0.26132036783E+02  0.31623634891E+02  0.51100000000E-03 0. -1.
        -11    1    3    3    0    0  0.50603934463E+01 -0.77577083357E+01  0.97496092455E+01  0.13447843736E+02  0.51100000000E-03 0.  1.
        -12    1    3    3    0    0 -0.75496101179E+00 -0.74349038106E+00  0.15476015221E+00  0.10708383542E+01  0.00000000000E+00 0.  1.
</event>
<event>
 7    1  0.1538805E-008  0.4614232E+02  0.7816164E-02  0.1320468E+00
        -11   -1    0    0    0    0  0.00000000000E+00  0.00000000000E+00  0.45593999997E+02  0.45594000000E+02  0.51100000000E-03 0.  1.
         11   -1    0    0    0    0 -0.00000000000E+00 -0.00000000000E+00 -0.45593999997E+02  0.45594000000E+02  0.51100000000E-03 0. -1.
    9900012    2    1    2    0    0 -0.36727023238E+02 -0.18319072109E+02 -0.18564775811E+02  0.46142317191E+02  0.99999947978E+01 0.  0.
        -12    1    1    2    0    0  0.36727023238E+02  0.18319072109E+02  0.18564775811E+02  0.45045682809E+02  0.00000000000E+00 0.  1.
         11    1    3    3    0    0 -0.19277085872E+02 -0.44406983843E+01 -0.10383411156E+02  0.22341465246E+02  0.51100000000E-03 0. -1.
        -11    1    3    3    0    0 -0.13911868465E+02 -0.11832563220E+02 -0.66447519429E+01  0.19434566247E+02  0.51100000000E-03 0.  1.
         12    1    3    3    0    0 -0.35380689010E+01 -0.20458105040E+01 -0.15366127118E+01  0.43662856976E+01  0.00000000000E+00 0. -1.
</event>
<event>
 7    1  0.1538805E-008  0.4614232E+02  0.7816164E-02  0.1320468E+00
        -11   -1    0    0    0    0  0.00000000000E+00  0.00000000000E+00  0.45593999997E+02  0.45594000000E+02  0.51100000000E-03 0.  1.
         11   -1    0    0    0    0 -0.00000000000E+00 -0.00000000000E+00 -0.45593999997E+02  0.45594000000E+02  0.51100000000E-03 0. -1.
    9900012    2    1    2    0    0  0.17911933240E+02 -0.26987928938E+02 -0.31303797979E+02  0.46142318424E+02  0.10000006042E+02 0.  0.
        -12    1    1    2    0    0 -0.17911933240E+02  0.26987928938E+02  0.31303797979E+02  0.45045681576E+02  0.00000000000E+00 0.  1.
         11    1    3    3    0    0  0.18642772226E+02 -0.24076559434E+02 -0.29810986822E+02  0.42613713825E+02  0.51100000000E-03 0. -1.
        -11    1    3    3    0    0 -0.58634188345E+00 -0.11872038056E+01 -0.11732853528E+01  0.17691377732E+01  0.51100000000E-03 0.  1.
         12    1    3    3    0    0 -0.14449710190E+00 -0.17241656988E+01 -0.31952580390E+00  0.17594668251E+01  0.00000000000E+00 0. -1.
</event>
<event>
 7    1  0.1538805E-008  0.4614232E+02  0.7816164E-02  0.1320468E+00
        -11   -1    0    0    0    0  0.00000000000E+00  0.00000000000E+00  0.45593999997E+02  0.45594000000E+02  0.51100000000E-03 0.  1.
         11   -1    0    0    0    0 -0.00000000000E+00 -0.00000000000E+00 -0.45593999997E+02  0.45594000000E+02  0.51100000000E-03 0. -1.
    9900012    2    1    2    0    0  0.16244467469E+02  0.54629925171E+01 -0.41657969752E+02  0.46142318138E+02  0.10000003437E+02 0.  0.
        -12    1    1    2    0    0 -0.16244467469E+02 -0.54629925171E+01  0.41657969752E+02  0.45045681862E+02  0.00000000000E+00 0.  1.
         11    1    3    3    0    0  0.63534163244E+01  0.33764442694E+00 -0.63124044110E+01  0.89624969991E+01  0.51100000000E-03 0. -1.
        -11    1    3    3    0    0  0.71884381422E+01  0.50155238083E+01 -0.28568796730E+02  0.29883193753E+02  0.51100000000E-03 0.  1.
         12    1    3    3    0    0  0.27026130024E+01  0.10982428187E+00 -0.67767686101E+01  0.72966273859E+01  0.00000000000E+00 0. -1.
</event>
<event>
 7    1  0.1538805E-008  0.4614232E+02  0.7816164E-02  0.1320468E+00
        -11   -1    0    0    0    0  0.00000000000E+00  0.00000000000E+00  0.45593999997E+02  0.45594000000E+02  0.51100000000E-03 0.  1.
         11   -1    0    0    0    0 -0.00000000000E+00 -0.00000000000E+00 -0.45593999997E+02  0.45594000000E+02  0.51100000000E-03 0. -1.
    9900012    2    1    2    0    0  0.15969100423E+02 -0.22242733934E+02 -0.35768172205E+02  0.46142317365E+02  0.99999963871E+01 0.  0.
        -12    1    1    2    0    0 -0.15969100423E+02  0.22242733934E+02  0.35768172205E+02  0.45045682635E+02  0.00000000000E+00 0.  1.
         11    1    3    3    0    0  0.63557350964E+01 -0.34546281048E+01 -0.76301407401E+01  0.10514222365E+02  0.51100000000E-03 0. -1.
        -11    1    3    3    0    0  0.68603176193E+00 -0.67143715135E+00 -0.41991737706E+01  0.43074967259E+01  0.51100000000E-03 0.  1.
         12    1    3    3    0    0  0.89273335645E+01 -0.18116668678E+02 -0.23938857694E+02  0.31320598274E+02  0.00000000000E+00 0. -1.
</event>
<event>
 7    1  0.1538805E-008  0.4614232E+02  0.7816164E-02  0.1320468E+00
        -11   -1    0    0    0    0  0.00000000000E+00  0.00000000000E+00  0.45593999997E+02  0.45594000000E+02  0.51100000000E-03 0. -1.
         11   -1    0    0    0    0 -0.00000000000E+00 -0.00000000000E+00 -0.45593999997E+02  0.45594000000E+02  0.51100000000E-03 0.  1.
    9900012    2    1    2    0    0  0.40602894493E+01 -0.44849450891E+02  0.10741171407E+01  0.46142324034E+02  0.10000057199E+02 0.  0.
        -12    1    1    2    0    0 -0.40602894493E+01  0.44849450891E+02 -0.10741171407E+01  0.45045675966E+02  0.00000000000E+00 0.  1.
         11    1    3    3    0    0  0.39170946388E+01 -0.37821229201E+02 -0.22403989559E+01  0.38089478815E+02  0.51100000000E-03 0. -1.
        -11    1    3    3    0    0 -0.52617924748E+00 -0.32961014145E+01  0.60416402652E+00  0.33920736382E+01  0.51100000000E-03 0.  1.
         12    1    3    3    0    0  0.66937405794E+00 -0.37321202753E+01  0.27103520700E+01  0.46607715802E+01  0.00000000000E+00 0. -1.
</event>
<event>
 7    1  0.1538805E-008  0.4614232E+02  0.7816164E-02  0.1320468E+00
        -11   -1    0    0    0    0  0.00000000000E+00  0.00000000000E+00  0.45593999997E+02  0.45594000000E+02  0.51100000000E-03 0.  1.
         11   -1    0    0    0    0 -0.00000000000E+00 -0.00000000000E+00 -0.45593999997E+02  0.45594000000E+02  0.51100000000E-03 0. -1.
    9900012    2    1    2    0    0  0.28924100171E+02  0.83364474136E+01 -0.33511392763E+02  0.46142319063E+02  0.10000011870E+02 0.  0.
        -12    1    1    2    0    0 -0.28924100171E+02 -0.83364474136E+01  0.33511392763E+02  0.45045680937E+02  0.00000000000E+00 0.  1.
         11    1    3    3    0    0  0.24697907876E+02  0.46634721162E+01 -0.29166048627E+02  0.38501857337E+02  0.51100000000E-03 0. -1.
        -11    1    3    3    0    0 -0.25894058528E+00 -0.96096428776E-01 -0.66950986744E+00  0.72424338040E+00  0.51100000000E-03 0.  1.
         12    1    3    3    0    0  0.44851328798E+01  0.37690717262E+01 -0.36758342687E+01  0.69162183451E+01  0.00000000000E+00 0. -1.
</event>
<event>
 7    1  0.1538805E-008  0.4614232E+02  0.7816164E-02  0.1320468E+00
        -11   -1    0    0    0    0  0.00000000000E+00  0.00000000000E+00  0.45593999997E+02  0.45594000000E+02  0.51100000000E-03 0.  1.
         11   -1    0    0    0    0 -0.00000000000E+00 -0.00000000000E+00 -0.45593999997E+02  0.45594000000E+02  0.51100000000E-03 0. -1.
    9900012    2    1    2    0    0  0.32826866841E+02  0.30121366656E+02 -0.66493156602E+01  0.46142319691E+02  0.10000017597E+02 0.  0.
        -12    1    1    2    0    0 -0.32826866841E+02 -0.30121366656E+02  0.66493156602E+01  0.45045680309E+02  0.00000000000E+00 0.  1.
         11    1    3    3    0    0  0.10199473843E+01  0.28693989109E+01 -0.20873215298E+01  0.36919715880E+01  0.51100000000E-03 0. -1.
        -11    1    3    3    0    0  0.16526079418E+01  0.46111452597E+00  0.52522853963E+00  0.17943257495E+01  0.51100000000E-03 0.  1.
         12    1    3    3    0    0  0.30154311514E+02  0.26790853219E+02 -0.50872226700E+01  0.40656022353E+02  0.00000000000E+00 0. -1.
</event>
<event>
 7    1  0.1538805E-008  0.4614232E+02  0.7816164E-02  0.1320468E+00
        -11   -1    0    0    0    0  0.00000000000E+00  0.00000000000E+00  0.45593999997E+02  0.45594000000E+02  0.51100000000E-03 0.  1.
         11   -1    0    0    0    0 -0.00000000000E+00 -0.00000000000E+00 -0.45593999997E+02  0.45594000000E+02  0.51100000000E-03 0. -1.
    9900012    2    1    2    0    0 -0.10237849699E+02 -0.28761224363E+02 -0.33122377855E+02  0.46142317542E+02  0.99999979998E+01 0.  0.
        -12    1    1    2    0    0  0.10237849699E+02  0.28761224363E+02  0.33122377855E+02  0.45045682458E+02  0.00000000000E+00 0.  1.
         11    1    3    3    0    0 -0.15840409051E+01 -0.10406350827E+02 -0.79297249781E+01  0.13178841437E+02  0.51100000000E-03 0. -1.
        -11    1    3    3    0    0 -0.73793251761E+00 -0.14475862388E+01 -0.58899307054E+01  0.61099373397E+01  0.51100000000E-03 0.  1.
         12    1    3    3    0    0 -0.79158762760E+01 -0.16907287297E+02 -0.19302722172E+02  0.26853538765E+02  0.00000000000E+00 0. -1.
</event>
<event>
 7    1  0.1538805E-008  0.4614232E+02  0.7816164E-02  0.1320468E+00
        -11   -1    0    0    0    0  0.00000000000E+00  0.00000000000E+00  0.45593999997E+02  0.45594000000E+02  0.51100000000E-03 0.  1.
         11   -1    0    0    0    0 -0.00000000000E+00 -0.00000000000E+00 -0.45593999997E+02  0.45594000000E+02  0.51100000000E-03 0. -1.
    9900012    2    1    2    0    0 -0.74487533652E+00  0.32234416856E+02 -0.31456335625E+02  0.46142317407E+02  0.99999967732E+01 0.  0.
        -12    1    1    2    0    0  0.74487533652E+00 -0.32234416856E+02  0.31456335625E+02  0.45045682593E+02  0.00000000000E+00 0.  1.
         11    1    3    3    0    0 -0.27874978629E+01  0.23523814662E+02 -0.24808994940E+02  0.34301985814E+02  0.51100000000E-03 0.  1.
        -11    1    3    3    0    0  0.17938654322E+01  0.78663896581E+01 -0.39116386220E+01  0.89665465154E+01  0.51100000000E-03 0. -1.
        -12    1    3    3    0    0  0.24875709414E+00  0.84421253582E+00 -0.27357020630E+01  0.28737850781E+01  0.00000000000E+00 0.  1.
</event>
<event>
 7    1  0.1538805E-008  0.4614232E+02  0.7816164E-02  0.1320468E+00
        -11   -1    0    0    0    0  0.00000000000E+00  0.00000000000E+00  0.45593999997E+02  0.45594000000E+02  0.51100000000E-03 0.  1.
         11   -1    0    0    0    0 -0.00000000000E+00 -0.00000000000E+00 -0.45593999997E+02  0.45594000000E+02  0.51100000000E-03 0. -1.
    9900012    2    1    2    0    0 -0.73117467817E+01 -0.41582526062E+02 -0.15701762095E+02  0.46142318214E+02  0.10000004129E+02 0.  0.
        -12    1    1    2    0    0  0.73117467817E+01  0.41582526062E+02  0.15701762095E+02  0.45045681786E+02  0.00000000000E+00 0.  1.
         11    1    3    3    0    0 -0.36687800688E+01 -0.36355235484E+02 -0.11588948496E+02  0.38333625211E+02  0.51100000000E-03 0. -1.
        -11    1    3    3    0    0 -0.24377004670E+01 -0.18750978214E+01 -0.19239760213E+01  0.36276796162E+01  0.51100000000E-03 0.  1.
        -12    1    3    3    0    0 -0.12052662460E+01 -0.33521927565E+01 -0.21888375777E+01  0.41810133870E+01  0.00000000000E+00 0.  1.
</event>
<event>
 7    1  0.1538805E-008  0.4614232E+02  0.7816164E-02  0.1320468E+00
        -11   -1    0    0    0    0  0.00000000000E+00  0.00000000000E+00  0.45593999997E+02  0.45594000000E+02  0.51100000000E-03 0. -1.
         11   -1    0    0    0    0 -0.00000000000E+00 -0.00000000000E+00 -0.45593999997E+02  0.45594000000E+02  0.51100000000E-03 0.  1.
    9900012    2    1    2    0    0  0.24715048765E+02  0.23317973581E+02 -0.29572824613E+02  0.46142317821E+02  0.10000000545E+02 0.  0.
        -12    1    1    2    0    0 -0.24715048765E+02 -0.23317973581E+02  0.29572824613E+02  0.45045682179E+02  0.00000000000E+00 0.  1.
         11    1    3    3    0    0  0.99949348321E+00  0.15712798600E+01 -0.11243517715E+00  0.18656231001E+01  0.51100000000E-03 0. -1.
        -11    1    3    3    0    0  0.15359850087E+02  0.18488862849E+02 -0.20372971782E+02  0.31509062564E+02  0.51100000000E-03 0.  1.
        -12    1    3    3    0    0  0.83557051943E+01  0.32578308728E+01 -0.90874176534E+01  0.12767632157E+02  0.00000000000E+00 0.  1.
</event>
<event>
 7    1  0.1538805E-008  0.4614232E+02  0.7816164E-02  0.1320468E+00
        -11   -1    0    0    0    0  0.00000000000E+00  0.00000000000E+00  0.45593999997E+02  0.45594000000E+02  0.51100000000E-03 0.  1.
         11   -1    0    0    0    0 -0.00000000000E+00 -0.00000000000E+00 -0.45593999997E+02  0.45594000000E+02  0.51100000000E-03 0. -1.
    9900012    2    1    2    0    0  0.50287077713E+01 -0.65139450297E+01 -0.44287628657E+02  0.46142318367E+02  0.10000005525E+02 0.  0.
        -12    1    1    2    0    0 -0.50287077713E+01  0.65139450297E+01  0.44287628657E+02  0.45045681633E+02  0.00000000000E+00 0.  1.
         11    1    3    3    0    0  0.34533038346E+01 -0.30439641387E+01 -0.18547691446E+02  0.19110412955E+02  0.51100000000E-03 0. -1.
        -11    1    3    3    0    0  0.29530240431E+01  0.11477064332E+01 -0.13740739034E+02  0.14101258473E+02  0.51100000000E-03 0.  1.
         12    1    3    3    0    0 -0.13776201064E+01 -0.46176873243E+01 -0.11999198177E+02  0.12930646940E+02  0.00000000000E+00 0. -1.
</event>
<event>
 7    1  0.1538805E-008  0.4614232E+02  0.7816164E-02  0.1320468E+00
        -11   -1    0    0    0    0  0.00000000000E+00  0.00000000000E+00  0.45593999997E+02  0.45594000000E+02  0.51100000000E-03 0.  1.
         11   -1    0    0    0    0 -0.00000000000E+00 -0.00000000000E+00 -0.45593999997E+02  0.45594000000E+02  0.51100000000E-03 0. -1.
    9900012    2    1    2    0    0 -0.24241118271E+02  0.21117450132E+02 -0.31552099243E+02  0.46142317835E+02  0.10000000671E+02 0.  0.
        -12    1    1    2    0    0  0.24241118271E+02 -0.21117450132E+02  0.31552099243E+02  0.45045682165E+02  0.00000000000E+00 0.  1.
         11    1    3    3    0    0 -0.21694037475E+02  0.19238562682E+02 -0.28531238022E+02  0.40679049883E+02  0.51100000000E-03 0. -1.
        -11    1    3    3    0    0 -0.40910751192E+00  0.16292699734E+01 -0.28445841264E+01  0.33035660605E+01  0.51100000000E-03 0.  1.
         12    1    3    3    0    0 -0.21379732834E+01  0.24961747668E+00 -0.17627709478E+00  0.21597018914E+01  0.00000000000E+00 0. -1.
</event>
<event>
 7    1  0.1538805E-008  0.4614232E+02  0.7816164E-02  0.1320468E+00
        -11   -1    0    0    0    0  0.00000000000E+00  0.00000000000E+00  0.45593999997E+02  0.45594000000E+02  0.51100000000E-03 0.  1.
         11   -1    0    0    0    0 -0.00000000000E+00 -0.00000000000E+00 -0.45593999997E+02  0.45594000000E+02  0.51100000000E-03 0. -1.
    9900012    2    1    2    0    0 -0.21044528711E+02  0.38205804108E+02 -0.11249795702E+02  0.46142316971E+02  0.99999927935E+01 0.  0.
        -12    1    1    2    0    0  0.21044528711E+02 -0.38205804108E+02  0.11249795702E+02  0.45045683029E+02  0.00000000000E+00 0.  1.
         11    1    3    3    0    0 -0.36654493648E+01  0.12645251992E+02 -0.14549445775E+01  0.13245934507E+02  0.51100000000E-03 0.  1.
        -11    1    3    3    0    0 -0.35912616467E+01  0.53325558982E+01  0.25384093968E+00  0.64341081826E+01  0.51100000000E-03 0. -1.
         12    1    3    3    0    0 -0.13787817699E+02  0.20227996218E+02 -0.10048692064E+02  0.26462274281E+02  0.00000000000E+00 0. -1.
</event>
<event>
 7    1  0.1538805E-008  0.4614232E+02  0.7816164E-02  0.1320468E+00
        -11   -1    0    0    0    0  0.00000000000E+00  0.00000000000E+00  0.45593999997E+02  0.45594000000E+02  0.51100000000E-03 0.  1.
         11   -1    0    0    0    0 -0.00000000000E+00 -0.00000000000E+00 -0.45593999997E+02  0.45594000000E+02  0.51100000000E-03 0. -1.
    9900012    2    1    2    0    0  0.12923432686E+02 -0.23028904225E+02 -0.36493395931E+02  0.46142317756E+02  0.99999999561E+01 0.  0.
        -12    1    1    2    0    0 -0.12923432686E+02  0.23028904225E+02  0.36493395931E+02  0.45045682244E+02  0.00000000000E+00 0.  1.
         11    1    3    3    0    0  0.75849231392E+01 -0.15640407200E+02 -0.30249632105E+02  0.34888302326E+02  0.51100000000E-03 0. -1.
        -11    1    3    3    0    0  0.49693083831E+01 -0.54784096936E+01 -0.52434708720E+01  0.90664759209E+01  0.51100000000E-03 0.  1.
         12    1    3    3    0    0  0.36920116383E+00 -0.19100873312E+01 -0.10002929543E+01  0.21875395097E+01  0.00000000000E+00 0. -1.
</event>
<event>
 7    1  0.1538805E-008  0.4614232E+02  0.7816164E-02  0.1320468E+00
        -11   -1    0    0    0    0  0.00000000000E+00  0.00000000000E+00  0.45593999997E+02  0.45594000000E+02  0.51100000000E-03 0.  1.
         11   -1    0    0    0    0 -0.00000000000E+00 -0.00000000000E+00 -0.45593999997E+02  0.45594000000E+02  0.51100000000E-03 0. -1.
    9900012    2    1    2    0    0  0.14808620830E+02  0.10060299383E+02 -0.41335318941E+02  0.46142318004E+02  0.10000002217E+02 0.  0.
        -12    1    1    2    0    0 -0.14808620830E+02 -0.10060299383E+02  0.41335318941E+02  0.45045681996E+02  0.00000000000E+00 0.  1.
         11    1    3    3    0    0  0.47188722238E+01 -0.41159513147E+00 -0.54052577419E+01  0.71870701356E+01  0.51100000000E-03 0. -1.
        -11    1    3    3    0    0  0.40016608717E+01  0.59204302907E+01 -0.21325530095E+02  0.22490954152E+02  0.51100000000E-03 0.  1.
         12    1    3    3    0    0  0.60880877341E+01  0.45514642234E+01 -0.14604531104E+02  0.16464293717E+02  0.00000000000E+00 0. -1.
</event>
<event>
 7    1  0.1538805E-008  0.4614232E+02  0.7816164E-02  0.1320468E+00
        -11   -1    0    0    0    0  0.00000000000E+00  0.00000000000E+00  0.45593999997E+02  0.45594000000E+02  0.51100000000E-03 0.  1.
         11   -1    0    0    0    0 -0.00000000000E+00 -0.00000000000E+00 -0.45593999997E+02  0.45594000000E+02  0.51100000000E-03 0. -1.
    9900012    2    1    2    0    0  0.39383569936E+02  0.20876953294E+02 -0.64962089291E+01  0.46142317741E+02  0.99999998190E+01 0.  0.
        -12    1    1    2    0    0 -0.39383569936E+02 -0.20876953294E+02  0.64962089291E+01  0.45045682259E+02  0.00000000000E+00 0.  1.
         11    1    3    3    0    0  0.13763110796E+02  0.45262987883E+01 -0.70409502072E+00  0.14505390362E+02  0.51100000000E-03 0. -1.
        -11    1    3    3    0    0  0.60664160335E+01  0.47171557658E+01  0.13224430896E+01  0.77975520515E+01  0.51100000000E-03 0.  1.
         12    1    3    3    0    0  0.19554043106E+02  0.11633498740E+02 -0.71145569980E+01  0.23839375327E+02  0.00000000000E+00 0. -1.
</event>
<event>
 7    1  0.1538805E-008  0.4614232E+02  0.7816164E-02  0.1320468E+00
        -11   -1    0    0    0    0  0.00000000000E+00  0.00000000000E+00  0.45593999997E+02  0.45594000000E+02  0.51100000000E-03 0.  1.
         11   -1    0    0    0    0 -0.00000000000E+00 -0.00000000000E+00 -0.45593999997E+02  0.45594000000E+02  0.51100000000E-03 0. -1.
    9900012    2    1    2    0    0 -0.38480830111E+02  0.22045027072E+02 -0.78965788678E+01  0.46142318048E+02  0.10000002620E+02 0.  0.
        -12    1    1    2    0    0  0.38480830111E+02 -0.22045027072E+02  0.78965788678E+01  0.45045681952E+02  0.00000000000E+00 0.  1.
         11    1    3    3    0    0 -0.21302921197E+02  0.15212245906E+02 -0.54583002522E+01  0.26739856375E+02  0.51100000000E-03 0. -1.
        -11    1    3    3    0    0 -0.14911502288E+02  0.74338257498E+01 -0.10892685154E+01  0.16697340265E+02  0.51100000000E-03 0.  1.
        -12    1    3    3    0    0 -0.22664066257E+01 -0.60104458352E+00 -0.13490101002E+01  0.27051214085E+01  0.00000000000E+00 0.  1.
</event>
<event>
 7    1  0.1538805E-008  0.4614232E+02  0.7816164E-02  0.1320468E+00
        -11   -1    0    0    0    0  0.00000000000E+00  0.00000000000E+00  0.45593999997E+02  0.45594000000E+02  0.51100000000E-03 0.  1.
         11   -1    0    0    0    0 -0.00000000000E+00 -0.00000000000E+00 -0.45593999997E+02  0.45594000000E+02  0.51100000000E-03 0. -1.
    9900012    2    1    2    0    0  0.11463133682E+02  0.43196825337E+02  0.56342228001E+01  0.46142316304E+02  0.99999867167E+01 0.  0.
        -12    1    1    2    0    0 -0.11463133682E+02 -0.43196825337E+02 -0.56342228001E+01  0.45045683696E+02  0.00000000000E+00 0.  1.
         11    1    3    3    0    0  0.95313675833E+01  0.16988601458E+02  0.23511397157E+01  0.19621095936E+02  0.51100000000E-03 0. -1.
        -11    1    3    3    0    0  0.73898377202E+00  0.37561941259E+01  0.66654855612E+00  0.38857918840E+01  0.51100000000E-03 0.  1.
         12    1    3    3    0    0  0.11927823263E+01  0.22452029754E+02  0.26165345283E+01  0.22635428484E+02  0.00000000000E+00 0. -1.
</event>
<event>
 7    1  0.1538805E-008  0.4614232E+02  0.7816164E-02  0.1320468E+00
        -11   -1    0    0    0    0  0.00000000000E+00  0.00000000000E+00  0.45593999997E+02  0.45594000000E+02  0.51100000000E-03 0.  1.
         11   -1    0    0    0    0 -0.00000000000E+00 -0.00000000000E+00 -0.45593999997E+02  0.45594000000E+02  0.51100000000E-03 0. -1.
    9900012    2    1    2    0    0  0.62997165895E+01  0.30923593221E+02 -0.32142780733E+02  0.46142318741E+02  0.10000008938E+02 0.  0.
        -12    1    1    2    0    0 -0.62997165895E+01 -0.30923593221E+02  0.32142780733E+02  0.45045681259E+02  0.00000000000E+00 0.  1.
         11    1    3    3    0    0  0.67308166240E+01  0.22270876672E+02 -0.21933548572E+02  0.31974621083E+02  0.51100000000E-03 0. -1.
        -11    1    3    3    0    0  0.12868945721E+01  0.37537082828E+00 -0.10444937292E+01  0.16994023390E+01  0.51100000000E-03 0.  1.
         12    1    3    3    0    0 -0.17179946066E+01  0.82773457210E+01 -0.91647384318E+01  0.12468295320E+02  0.00000000000E+00 0. -1.
</event>
<event>
 7    1  0.1538805E-008  0.4614232E+02  0.7816164E-02  0.1320468E+00
        -11   -1    0    0    0    0  0.00000000000E+00  0.00000000000E+00  0.45593999997E+02  0.45594000000E+02  0.51100000000E-03 0.  1.
         11   -1    0    0    0    0 -0.00000000000E+00 -0.00000000000E+00 -0.45593999997E+02  0.45594000000E+02  0.51100000000E-03 0. -1.
    9900012    2    1    2    0    0  0.28319461767E+00  0.41402400190E+02 -0.17744705612E+02  0.46142317433E+02  0.99999970071E+01 0.  0.
        -12    1    1    2    0    0 -0.28319461767E+00 -0.41402400190E+02  0.17744705612E+02  0.45045682567E+02  0.00000000000E+00 0.  1.
         11    1    3    3    0    0  0.57467073737E+00  0.21628792602E+02 -0.87317143913E+01  0.23331904173E+02  0.51100000000E-03 0. -1.
        -11    1    3    3    0    0  0.20572408083E+01  0.28389267534E+01 -0.32160332874E+01  0.47575850199E+01  0.51100000000E-03 0.  1.
         12    1    3    3    0    0 -0.23487169280E+01  0.16934680834E+02 -0.57969579334E+01  0.18052828240E+02  0.00000000000E+00 0. -1.
</event>
<event>
 7    1  0.1538805E-008  0.4614232E+02  0.7816164E-02  0.1320468E+00
        -11   -1    0    0    0    0  0.00000000000E+00  0.00000000000E+00  0.45593999997E+02  0.45594000000E+02  0.51100000000E-03 0.  1.
         11   -1    0    0    0    0 -0.00000000000E+00 -0.00000000000E+00 -0.45593999997E+02  0.45594000000E+02  0.51100000000E-03 0. -1.
    9900012    2    1    2    0    0  0.11384661233E+02  0.43192037620E+02 -0.58267373945E+01  0.46142317701E+02  0.99999994476E+01 0.  0.
        -12    1    1    2    0    0 -0.11384661233E+02 -0.43192037620E+02  0.58267373945E+01  0.45045682299E+02  0.00000000000E+00 0.  1.
         11    1    3    3    0    0  0.45013134823E+01  0.21659190303E+02 -0.48752643165E+01  0.22652826535E+02  0.51100000000E-03 0. -1.
        -11    1    3    3    0    0  0.23619236093E+01  0.49837387187E+01  0.23912948669E+01  0.60112083772E+01  0.51100000000E-03 0.  1.
        -12    1    3    3    0    0  0.45214241413E+01  0.16549108599E+02 -0.33427679449E+01  0.17478282788E+02  0.00000000000E+00 0.  1.
</event>
<event>
 7    1  0.1538805E-008  0.4614232E+02  0.7816164E-02  0.1320468E+00
        -11   -1    0    0    0    0  0.00000000000E+00  0.00000000000E+00  0.45593999997E+02  0.45594000000E+02  0.51100000000E-03 0.  1.
         11   -1    0    0    0    0 -0.00000000000E+00 -0.00000000000E+00 -0.45593999997E+02  0.45594000000E+02  0.51100000000E-03 0. -1.
    9900012    2    1    2    0    0 -0.35900980292E+02 -0.71235777995E+01 -0.26258099334E+02  0.46142317330E+02  0.99999960646E+01 0.  0.
        -12    1    1    2    0    0  0.35900980292E+02  0.71235777995E+01  0.26258099334E+02  0.45045682670E+02  0.00000000000E+00 0.  1.
         11    1    3    3    0    0 -0.17081496234E+02 -0.62888657845E+01 -0.15763202047E+02  0.24079158737E+02  0.51100000000E-03 0. -1.
        -11    1    3    3    0    0 -0.73562195224E+01  0.18692446140E+01 -0.34316456454E+01  0.83297198744E+01  0.51100000000E-03 0.  1.
        -12    1    3    3    0    0 -0.11463264536E+02 -0.27039566290E+01 -0.70632516415E+01  0.13733438718E+02  0.00000000000E+00 0.  1.
</event>
<event>
 7    1  0.1538805E-008  0.4614232E+02  0.7816164E-02  0.1320468E+00
        -11   -1    0    0    0    0  0.00000000000E+00  0.00000000000E+00  0.45593999997E+02  0.45594000000E+02  0.51100000000E-03 0.  1.
         11   -1    0    0    0    0 -0.00000000000E+00 -0.00000000000E+00 -0.45593999997E+02  0.45594000000E+02  0.51100000000E-03 0. -1.
    9900012    2    1    2    0    0  0.41240129467E+02  0.15779119306E+02 -0.89098030072E+01  0.46142317918E+02  0.10000001434E+02 0.  0.
        -12    1    1    2    0    0 -0.41240129467E+02 -0.15779119306E+02  0.89098030072E+01  0.45045682082E+02  0.00000000000E+00 0.  1.
         11    1    3    3    0    0  0.11250613787E+02  0.69860965021E+01 -0.58432462605E+01  0.14474991607E+02  0.51100000000E-03 0. -1.
        -11    1    3    3    0    0  0.54248609325E+01  0.23161032205E+01  0.86174371064E+00  0.59612123556E+01  0.51100000000E-03 0.  1.
         12    1    3    3    0    0  0.24564654748E+02  0.64769195839E+01 -0.39283004573E+01  0.25706113955E+02  0.00000000000E+00 0. -1.
</event>
<event>
 7    1  0.1538805E-008  0.4614232E+02  0.7816164E-02  0.1320468E+00
        -11   -1    0    0    0    0  0.00000000000E+00  0.00000000000E+00  0.45593999997E+02  0.45594000000E+02  0.51100000000E-03 0.  1.
         11   -1    0    0    0    0 -0.00000000000E+00 -0.00000000000E+00 -0.45593999997E+02  0.45594000000E+02  0.51100000000E-03 0. -1.
    9900012    2    1    2    0    0  0.34817187224E+02  0.17881137868E+02 -0.22296683216E+02  0.46142315411E+02  0.99999785658E+01 0.  0.
        -12    1    1    2    0    0 -0.34817187224E+02 -0.17881137868E+02  0.22296683216E+02  0.45045684589E+02  0.00000000000E+00 0.  1.
         11    1    3    3    0    0  0.19351905543E+02  0.71444544594E+01 -0.11863186761E+02  0.23796526597E+02  0.51100000000E-03 0. -1.
        -11    1    3    3    0    0  0.72835759336E+01  0.48500487921E+01 -0.82630494606E+01  0.12035424310E+02  0.51100000000E-03 0.  1.
        -12    1    3    3    0    0  0.81817057474E+01  0.58866346166E+01 -0.21704469945E+01  0.10310364504E+02  0.00000000000E+00 0.  1.
</event>
<event>
 7    1  0.1538805E-008  0.4614232E+02  0.7816164E-02  0.1320468E+00
        -11   -1    0    0    0    0  0.00000000000E+00  0.00000000000E+00  0.45593999997E+02  0.45594000000E+02  0.51100000000E-03 0. -1.
         11   -1    0    0    0    0 -0.00000000000E+00 -0.00000000000E+00 -0.45593999997E+02  0.45594000000E+02  0.51100000000E-03 0.  1.
    9900012    2    1    2    0    0  0.20927067804E+02 -0.57078052254E+01  0.39479010578E+02  0.46142317814E+02  0.10000000483E+02 0.  0.
        -12    1    1    2    0    0 -0.20927067804E+02  0.57078052254E+01 -0.39479010578E+02  0.45045682186E+02  0.00000000000E+00 0.  1.
         11    1    3    3    0    0  0.82435080960E+01 -0.68777099032E+01  0.18948379751E+02  0.21778416257E+02  0.51100000000E-03 0. -1.
        -11    1    3    3    0    0  0.37573334575E+00  0.27412414021E+00  0.70596509624E-01  0.47042929292E+00  0.51100000000E-03 0.  1.
         12    1    3    3    0    0  0.12307826363E+02  0.89578053759E+00  0.20460034318E+02  0.23893472264E+02  0.00000000000E+00 0. -1.
</event>
<event>
 7    1  0.1538805E-008  0.4614232E+02  0.7816164E-02  0.1320468E+00
        -11   -1    0    0    0    0  0.00000000000E+00  0.00000000000E+00  0.45593999997E+02  0.45594000000E+02  0.51100000000E-03 0.  1.
         11   -1    0    0    0    0 -0.00000000000E+00 -0.00000000000E+00 -0.45593999997E+02  0.45594000000E+02  0.51100000000E-03 0. -1.
    9900012    2    1    2    0    0 -0.37568400412E+01 -0.39126493756E+02 -0.22002660803E+02  0.46142318263E+02  0.10000004579E+02 0.  0.
        -12    1    1    2    0    0  0.37568400412E+01  0.39126493756E+02  0.22002660803E+02  0.45045681737E+02  0.00000000000E+00 0.  1.
         11    1    3    3    0    0  0.87197616639E+00 -0.22037918123E+02 -0.78868945931E+01  0.23422922196E+02  0.51100000000E-03 0. -1.
        -11    1    3    3    0    0 -0.28707273657E+01 -0.71244687406E+01 -0.62994920855E+01  0.99339182219E+01  0.51100000000E-03 0.  1.
         12    1    3    3    0    0 -0.17580888419E+01 -0.99641068921E+01 -0.78162741249E+01  0.12785477845E+02  0.00000000000E+00 0. -1.
</event>
<event>
 7    1  0.1538805E-008  0.4614232E+02  0.7816164E-02  0.1320468E+00
        -11   -1    0    0    0    0  0.00000000000E+00  0.00000000000E+00  0.45593999997E+02  0.45594000000E+02  0.51100000000E-03 0.  1.
         11   -1    0    0    0    0 -0.00000000000E+00 -0.00000000000E+00 -0.45593999997E+02  0.45594000000E+02  0.51100000000E-03 0. -1.
    9900012    2    1    2    0    0  0.35454918584E+02 -0.18823993643E+02 -0.20438184252E+02  0.46142319142E+02  0.10000012588E+02 0.  0.
        -12    1    1    2    0    0 -0.35454918584E+02  0.18823993643E+02  0.20438184252E+02  0.45045680858E+02  0.00000000000E+00 0.  1.
         11    1    3    3    0    0  0.14825294765E+02 -0.94942833505E+01 -0.12238644284E+02  0.21440970020E+02  0.51100000000E-03 0. -1.
        -11    1    3    3    0    0  0.22140272927E+01 -0.27071025155E+01 -0.25623184730E+01  0.43354119874E+01  0.51100000000E-03 0.  1.
         12    1    3    3    0    0  0.18415596526E+02 -0.66226077771E+01 -0.56372214953E+01  0.20365937134E+02  0.00000000000E+00 0. -1.
</event>
<event>
 7    1  0.1538805E-008  0.4614232E+02  0.7816164E-02  0.1320468E+00
        -11   -1    0    0    0    0  0.00000000000E+00  0.00000000000E+00  0.45593999997E+02  0.45594000000E+02  0.51100000000E-03 0. -1.
         11   -1    0    0    0    0 -0.00000000000E+00 -0.00000000000E+00 -0.45593999997E+02  0.45594000000E+02  0.51100000000E-03 0.  1.
    9900012    2    1    2    0    0  0.19592111443E+02  0.19546791969E+02  0.35541323356E+02  0.46142316822E+02  0.99999914338E+01 0.  0.
        -12    1    1    2    0    0 -0.19592111443E+02 -0.19546791969E+02 -0.35541323356E+02  0.45045683178E+02  0.00000000000E+00 0.  1.
         11    1    3    3    0    0  0.16962279214E+02  0.13831748946E+02  0.32156224263E+02  0.38898058489E+02  0.51100000000E-03 0. -1.
        -11    1    3    3    0    0  0.18082549524E+01  0.49861873776E+01  0.28796788493E+01  0.60352631321E+01  0.51100000000E-03 0.  1.
        -12    1    3    3    0    0  0.82157727671E+00  0.72885564539E+00  0.50542024338E+00  0.12089952009E+01  0.00000000000E+00 0.  1.
</event>
<event>
 7    1  0.1538805E-008  0.4614232E+02  0.7816164E-02  0.1320468E+00
        -11   -1    0    0    0    0  0.00000000000E+00  0.00000000000E+00  0.45593999997E+02  0.45594000000E+02  0.51100000000E-03 0.  1.
         11   -1    0    0    0    0 -0.00000000000E+00 -0.00000000000E+00 -0.45593999997E+02  0.45594000000E+02  0.51100000000E-03 0. -1.
    9900012    2    1    2    0    0  0.38818471915E+01 -0.43833137700E+02  0.96281271928E+01  0.46142317283E+02  0.99999956358E+01 0.  0.
        -12    1    1    2    0    0 -0.38818471915E+01  0.43833137700E+02 -0.96281271928E+01  0.45045682717E+02  0.00000000000E+00 0.  1.
         11    1    3    3    0    0 -0.22601342214E+00 -0.86215672642E+01 -0.27548760501E+00  0.86289279658E+01  0.51100000000E-03 0. -1.
        -11    1    3    3    0    0  0.57755636373E+01 -0.32006333846E+02  0.94724220571E+01  0.33874611754E+02  0.51100000000E-03 0.  1.
         12    1    3    3    0    0 -0.16677030236E+01 -0.32052365898E+01  0.43119274068E+00  0.36387775628E+01  0.00000000000E+00 0. -1.
</event>
<event>
 7    1  0.1538805E-008  0.4614232E+02  0.7816164E-02  0.1320468E+00
        -11   -1    0    0    0    0  0.00000000000E+00  0.00000000000E+00  0.45593999997E+02  0.45594000000E+02  0.51100000000E-03 0.  1.
         11   -1    0    0    0    0 -0.00000000000E+00 -0.00000000000E+00 -0.45593999997E+02  0.45594000000E+02  0.51100000000E-03 0. -1.
    9900012    2    1    2    0    0 -0.29160969527E+02 -0.23090886730E+02 -0.25407918213E+02  0.46142317614E+02  0.99999986564E+01 0.  0.
        -12    1    1    2    0    0  0.29160969527E+02  0.23090886730E+02  0.25407918213E+02  0.45045682386E+02  0.00000000000E+00 0.  1.
         11    1    3    3    0    0 -0.11467273670E+02 -0.14021237976E+02 -0.11236395030E+02  0.21315488578E+02  0.51100000000E-03 0. -1.
        -11    1    3    3    0    0 -0.90416270508E+01 -0.42068177146E+01 -0.44035443787E+01  0.10901354887E+02  0.51100000000E-03 0.  1.
         12    1    3    3    0    0 -0.86520688064E+01 -0.48628310389E+01 -0.97679788045E+01  0.13925474149E+02  0.00000000000E+00 0. -1.
</event>
<event>
 7    1  0.1538805E-008  0.4614232E+02  0.7816164E-02  0.1320468E+00
        -11   -1    0    0    0    0  0.00000000000E+00  0.00000000000E+00  0.45593999997E+02  0.45594000000E+02  0.51100000000E-03 0.  1.
         11   -1    0    0    0    0 -0.00000000000E+00 -0.00000000000E+00 -0.45593999997E+02  0.45594000000E+02  0.51100000000E-03 0. -1.
    9900012    2    1    2    0    0 -0.29999856725E+02 -0.24632415163E+02 -0.22855330655E+02  0.46142318524E+02  0.10000006954E+02 0.  0.
        -12    1    1    2    0    0  0.29999856725E+02  0.24632415163E+02  0.22855330655E+02  0.45045681476E+02  0.00000000000E+00 0.  1.
         11    1    3    3    0    0 -0.20836892946E+02 -0.12935903783E+02 -0.13365280169E+02  0.27931065655E+02  0.51100000000E-03 0. -1.
        -11    1    3    3    0    0  0.35436887508E+00 -0.13272650616E+01 -0.14692089937E+01  0.20114137246E+01  0.51100000000E-03 0.  1.
         12    1    3    3    0    0 -0.95173326540E+01 -0.10369246318E+02 -0.80208414924E+01  0.16199839144E+02  0.00000000000E+00 0. -1.
</event>
<event>
 7    1  0.1538805E-008  0.4614232E+02  0.7816164E-02  0.1320468E+00
        -11   -1    0    0    0    0  0.00000000000E+00  0.00000000000E+00  0.45593999997E+02  0.45594000000E+02  0.51100000000E-03 0.  1.
         11   -1    0    0    0    0 -0.00000000000E+00 -0.00000000000E+00 -0.45593999997E+02  0.45594000000E+02  0.51100000000E-03 0. -1.
    9900012    2    1    2    0    0 -0.25350016613E+00  0.16088030842E+02 -0.42074034250E+02  0.46142319222E+02  0.10000013320E+02 0.  0.
        -12    1    1    2    0    0  0.25350016613E+00 -0.16088030842E+02  0.42074034250E+02  0.45045680778E+02  0.00000000000E+00 0.  1.
         11    1    3    3    0    0  0.17024788424E+01  0.71952452740E+01 -0.21472020092E+02  0.22709417338E+02  0.51100000000E-03 0. -1.
        -11    1    3    3    0    0 -0.21262495837E+01  0.97186074580E+01 -0.20159587680E+02  0.22480686020E+02  0.51100000000E-03 0.  1.
        -12    1    3    3    0    0  0.17027057513E+00 -0.82582189016E+00 -0.44242647770E+00  0.95221586376E+00  0.00000000000E+00 0.  1.
</event>
<event>
 7    1  0.1538805E-008  0.4614232E+02  0.7816164E-02  0.1320468E+00
        -11   -1    0    0    0    0  0.00000000000E+00  0.00000000000E+00  0.45593999997E+02  0.45594000000E+02  0.51100000000E-03 0. -1.
         11   -1    0    0    0    0 -0.00000000000E+00 -0.00000000000E+00 -0.45593999997E+02  0.45594000000E+02  0.51100000000E-03 0.  1.
    9900012    2    1    2    0    0  0.27158450124E+02 -0.18218925092E+02  0.30977456110E+02  0.46142318390E+02  0.10000005734E+02 0.  0.
        -12    1    1    2    0    0 -0.27158450124E+02  0.18218925092E+02 -0.30977456110E+02  0.45045681610E+02  0.00000000000E+00 0.  1.
         11    1    3    3    0    0  0.61317371327E+01 -0.47289561968E+01  0.48326791091E+01  0.91277606568E+01  0.51100000000E-03 0. -1.
        -11    1    3    3    0    0  0.88235600274E+01 -0.13940351062E+01  0.10396193125E+02  0.13706909834E+02  0.51100000000E-03 0.  1.
        -12    1    3    3    0    0  0.12203152964E+02 -0.12095933789E+02  0.15748583876E+02  0.23307647899E+02  0.00000000000E+00 0.  1.
</event>
<event>
 7    1  0.1538805E-008  0.4614232E+02  0.7816164E-02  0.1320468E+00
        -11   -1    0    0    0    0  0.00000000000E+00  0.00000000000E+00  0.45593999997E+02  0.45594000000E+02  0.51100000000E-03 0.  1.
         11   -1    0    0    0    0 -0.00000000000E+00 -0.00000000000E+00 -0.45593999997E+02  0.45594000000E+02  0.51100000000E-03 0. -1.
    9900012    2    1    2    0    0  0.39671032709E+02 -0.21184815597E+02  0.25546498033E+01  0.46142317813E+02  0.10000000471E+02 0.  0.
        -12    1    1    2    0    0 -0.39671032709E+02  0.21184815597E+02 -0.25546498033E+01  0.45045682187E+02  0.00000000000E+00 0.  1.
         11    1    3    3    0    0  0.94599295879E+01 -0.53967271451E+01 -0.17745940304E+01  0.11034677880E+02  0.51100000000E-03 0. -1.
        -11    1    3    3    0    0  0.15216169057E+02 -0.39531117551E+01  0.24784166479E+01  0.15915446669E+02  0.51100000000E-03 0.  1.
         12    1    3    3    0    0  0.14994934064E+02 -0.11834976696E+02  0.18508271858E+01  0.19192193264E+02  0.00000000000E+00 0. -1.
</event>
<event>
 7    1  0.1538805E-008  0.4614231E+02  0.7816164E-02  0.1320468E+00
        -11   -1    0    0    0    0  0.00000000000E+00  0.00000000000E+00  0.45593999997E+02  0.45594000000E+02  0.51100000000E-03 0.  1.
         11   -1    0    0    0    0 -0.00000000000E+00 -0.00000000000E+00 -0.45593999997E+02  0.45594000000E+02  0.51100000000E-03 0. -1.
    9900012    2    1    2    0    0  0.13715707262E+02 -0.96242909792E+01 -0.41813470217E+02  0.46142313258E+02  0.99999589337E+01 0.  0.
        -12    1    1    2    0    0 -0.13715707262E+02  0.96242909792E+01  0.41813470217E+02  0.45045686742E+02  0.00000000000E+00 0.  1.
         11    1    3    3    0    0  0.65159334026E+01 -0.82130457216E+01 -0.22916518943E+02  0.25200760879E+02  0.51100000000E-03 0. -1.
        -11    1    3    3    0    0  0.45855409062E+01  0.25716305725E+00 -0.53815826596E+01  0.70749381922E+01  0.51100000000E-03 0.  1.
         12    1    3    3    0    0  0.26142329528E+01 -0.16684083149E+01 -0.13515368614E+02  0.13866614187E+02  0.00000000000E+00 0. -1.
</event>
<event>
 7    1  0.1538805E-008  0.4614232E+02  0.7816164E-02  0.1320468E+00
        -11   -1    0    0    0    0  0.00000000000E+00  0.00000000000E+00  0.45593999997E+02  0.45594000000E+02  0.51100000000E-03 0.  1.
         11   -1    0    0    0    0 -0.00000000000E+00 -0.00000000000E+00 -0.45593999997E+02  0.45594000000E+02  0.51100000000E-03 0. -1.
    9900012    2    1    2    0    0  0.31711466806E+02  0.31688652423E+02 -0.43960853373E+01  0.46142318901E+02  0.10000010391E+02 0.  0.
        -12    1    1    2    0    0 -0.31711466806E+02 -0.31688652423E+02  0.43960853373E+01  0.45045681099E+02  0.00000000000E+00 0.  1.
         11    1    3    3    0    0  0.62985360214E+01  0.77209230218E+01 -0.34480199773E+01  0.10543863160E+02  0.51100000000E-03 0. -1.
        -11    1    3    3    0    0  0.17911251336E+02  0.14126890963E+02  0.19323259827E+01  0.22893576756E+02  0.51100000000E-03 0.  1.
        -12    1    3    3    0    0  0.75016794492E+01  0.98408384383E+01 -0.28803913427E+01  0.12704878985E+02  0.00000000000E+00 0.  1.
</event>
<event>
 7    1  0.1538805E-008  0.4614232E+02  0.7816164E-02  0.1320468E+00
        -11   -1    0    0    0    0  0.00000000000E+00  0.00000000000E+00  0.45593999997E+02  0.45594000000E+02  0.51100000000E-03 0.  1.
         11   -1    0    0    0    0 -0.00000000000E+00 -0.00000000000E+00 -0.45593999997E+02  0.45594000000E+02  0.51100000000E-03 0. -1.
    9900012    2    1    2    0    0  0.16102832198E+02 -0.36492102866E+02 -0.20931759580E+02  0.46142319458E+02  0.10000015474E+02 0.  0.
        -12    1    1    2    0    0 -0.16102832198E+02  0.36492102866E+02  0.20931759580E+02  0.45045680542E+02  0.00000000000E+00 0.  1.
         11    1    3    3    0    0  0.60305669391E+01 -0.10768081166E+02 -0.11056776634E+02  0.16570202757E+02  0.51100000000E-03 0. -1.
        -11    1    3    3    0    0  0.53851547413E+01 -0.17265194104E+02 -0.51234650128E+01  0.18797252805E+02  0.51100000000E-03 0.  1.
        -12    1    3    3    0    0  0.46871105179E+01 -0.84588275961E+01 -0.47515179335E+01  0.10774863896E+02  0.00000000000E+00 0.  1.
</event>
<event>
 7    1  0.1538805E-008  0.4614232E+02  0.7816164E-02  0.1320468E+00
        -11   -1    0    0    0    0  0.00000000000E+00  0.00000000000E+00  0.45593999997E+02  0.45594000000E+02  0.51100000000E-03 0.  1.
         11   -1    0    0    0    0 -0.00000000000E+00 -0.00000000000E+00 -0.45593999997E+02  0.45594000000E+02  0.51100000000E-03 0. -1.
    9900012    2    1    2    0    0  0.44130200538E+02 -0.11445738223E+01 -0.89626205755E+01  0.46142320781E+02  0.10000027538E+02 0.  0.
        -12    1    1    2    0    0 -0.44130200538E+02  0.11445738223E+01  0.89626205755E+01  0.45045679219E+02  0.00000000000E+00 0.  1.
         11    1    3    3    0    0  0.59624356687E+01 -0.44809422279E+00  0.31959757926E+00  0.59877851005E+01  0.51100000000E-03 0. -1.
        -11    1    3    3    0    0  0.35382064089E+02 -0.28449206215E+01 -0.90341483522E+01  0.36627856465E+02  0.51100000000E-03 0.  1.
        -12    1    3    3    0    0  0.27857007800E+01  0.21484410221E+01 -0.24806980260E+00  0.35266792154E+01  0.00000000000E+00 0.  1.
</event>
<event>
 7    1  0.1538805E-008  0.4614232E+02  0.7816164E-02  0.1320468E+00
        -11   -1    0    0    0    0  0.00000000000E+00  0.00000000000E+00  0.45593999997E+02  0.45594000000E+02  0.51100000000E-03 0.  1.
         11   -1    0    0    0    0 -0.00000000000E+00 -0.00000000000E+00 -0.45593999997E+02  0.45594000000E+02  0.51100000000E-03 0. -1.
    9900012    2    1    2    0    0 -0.11472048551E+02 -0.20343451581E+02 -0.38518171718E+02  0.46142317935E+02  0.10000001584E+02 0.  0.
        -12    1    1    2    0    0  0.11472048551E+02  0.20343451581E+02  0.38518171718E+02  0.45045682065E+02  0.00000000000E+00 0.  1.
         11    1    3    3    0    0 -0.57928311772E+01 -0.45406109084E+01 -0.16744440659E+02  0.18290717146E+02  0.51100000000E-03 0. -1.
        -11    1    3    3    0    0 -0.52811762096E+01 -0.13176085220E+02 -0.15388722614E+02  0.20935921949E+02  0.51100000000E-03 0.  1.
        -12    1    3    3    0    0 -0.39804116475E+00 -0.26267554525E+01 -0.63850084456E+01  0.69156788406E+01  0.00000000000E+00 0.  1.
</event>
<event>
 7    1  0.1538805E-008  0.4614232E+02  0.7816164E-02  0.1320468E+00
        -11   -1    0    0    0    0  0.00000000000E+00  0.00000000000E+00  0.45593999997E+02  0.45594000000E+02  0.51100000000E-03 0.  1.
         11   -1    0    0    0    0 -0.00000000000E+00 -0.00000000000E+00 -0.45593999997E+02  0.45594000000E+02  0.51100000000E-03 0. -1.
    9900012    2    1    2    0    0  0.16940112449E+01  0.44587820525E+02 -0.61781803932E+01  0.46142319560E+02  0.10000016407E+02 0.  0.
        -12    1    1    2    0    0 -0.16940112449E+01 -0.44587820525E+02  0.61781803932E+01  0.45045680440E+02  0.00000000000E+00 0.  1.
         11    1    3    3    0    0 -0.12720435432E+01  0.18433967654E+02 -0.62621915773E+01  0.19510107685E+02  0.51100000000E-03 0. -1.
        -11    1    3    3    0    0  0.36553937872E+01  0.17075314337E+02  0.93940713439E+00  0.17487445481E+02  0.51100000000E-03 0.  1.
        -12    1    3    3    0    0 -0.68933899914E+00  0.90785385343E+01 -0.85539595024E+00  0.91447663943E+01  0.00000000000E+00 0.  1.
</event>
<event>
 7    1  0.1538805E-008  0.4614232E+02  0.7816164E-02  0.1320468E+00
        -11   -1    0    0    0    0  0.00000000000E+00  0.00000000000E+00  0.45593999997E+02  0.45594000000E+02  0.51100000000E-03 0.  1.
         11   -1    0    0    0    0 -0.00000000000E+00 -0.00000000000E+00 -0.45593999997E+02  0.45594000000E+02  0.51100000000E-03 0. -1.
    9900012    2    1    2    0    0  0.15217181978E+02  0.42203583275E+02 -0.40507286407E+01  0.46142317953E+02  0.10000001750E+02 0.  0.
        -12    1    1    2    0    0 -0.15217181978E+02 -0.42203583275E+02  0.40507286407E+01  0.45045682047E+02  0.00000000000E+00 0.  1.
         11    1    3    3    0    0  0.77048761177E+01  0.22863036592E+02  0.21279709058E+01  0.24220070575E+02  0.51100000000E-03 0. -1.
        -11    1    3    3    0    0  0.78786197929E+01  0.18751780967E+02 -0.59499244592E+01  0.21192063151E+02  0.51100000000E-03 0.  1.
         12    1    3    3    0    0 -0.36631393287E+00  0.58876571539E+00 -0.22877508724E+00  0.73018422714E+00  0.00000000000E+00 0. -1.
</event>
<event>
 7    1  0.1538805E-008  0.4614232E+02  0.7816164E-02  0.1320468E+00
        -11   -1    0    0    0    0  0.00000000000E+00  0.00000000000E+00  0.45593999997E+02  0.45594000000E+02  0.51100000000E-03 0.  1.
         11   -1    0    0    0    0 -0.00000000000E+00 -0.00000000000E+00 -0.45593999997E+02  0.45594000000E+02  0.51100000000E-03 0. -1.
    9900012    2    1    2    0    0  0.29976916579E+02 -0.29288809940E+02 -0.16512528610E+02  0.46142317451E+02  0.99999971677E+01 0.  0.
        -12    1    1    2    0    0 -0.29976916579E+02  0.29288809940E+02  0.16512528610E+02  0.45045682549E+02  0.00000000000E+00 0.  1.
         11    1    3    3    0    0  0.18650604850E+02 -0.20308680476E+02 -0.13619803332E+02  0.30753643801E+02  0.51100000000E-03 0. -1.
        -11    1    3    3    0    0  0.11654932976E+02 -0.81855308422E+01 -0.25818643727E+01  0.14474335969E+02  0.51100000000E-03 0.  1.
        -12    1    3    3    0    0 -0.32862124674E+00 -0.79459862141E+00 -0.31086090502E+00  0.91433768118E+00  0.00000000000E+00 0.  1.
</event>
<event>
 7    1  0.1538805E-008  0.4614232E+02  0.7816164E-02  0.1320468E+00
        -11   -1    0    0    0    0  0.00000000000E+00  0.00000000000E+00  0.45593999997E+02  0.45594000000E+02  0.51100000000E-03 0.  1.
         11   -1    0    0    0    0 -0.00000000000E+00 -0.00000000000E+00 -0.45593999997E+02  0.45594000000E+02  0.51100000000E-03 0. -1.
    9900012    2    1    2    0    0  0.21348056408E+02 -0.20656399814E+02 -0.33862771744E+02  0.46142315680E+02  0.99999810259E+01 0.  0.
        -12    1    1    2    0    0 -0.21348056408E+02  0.20656399814E+02  0.33862771744E+02  0.45045684320E+02  0.00000000000E+00 0.  1.
         11    1    3    3    0    0  0.12712066445E+02 -0.16793405461E+02 -0.21757361090E+02  0.30281972560E+02  0.51100000000E-03 0. -1.
        -11    1    3    3    0    0  0.19635126038E+01 -0.58688401902E+00 -0.56675357254E+01  0.60266720548E+01  0.51100000000E-03 0.  1.
         12    1    3    3    0    0  0.66724773590E+01 -0.32761103336E+01 -0.64378749288E+01  0.98336710655E+01  0.00000000000E+00 0. -1.
</event>
<event>
 7    1  0.1538805E-008  0.4614232E+02  0.7816164E-02  0.1320468E+00
        -11   -1    0    0    0    0  0.00000000000E+00  0.00000000000E+00  0.45593999997E+02  0.45594000000E+02  0.51100000000E-03 0. -1.
         11   -1    0    0    0    0 -0.00000000000E+00 -0.00000000000E+00 -0.45593999997E+02  0.45594000000E+02  0.51100000000E-03 0.  1.
    9900012    2    1    2    0    0 -0.30733769259E+02 -0.30236185048E+02  0.13050750977E+02  0.46142316964E+02  0.99999927339E+01 0.  0.
        -12    1    1    2    0    0  0.30733769259E+02  0.30236185048E+02 -0.13050750977E+02  0.45045683036E+02  0.00000000000E+00 0.  1.
         11    1    3    3    0    0 -0.22641661991E+02 -0.19513044821E+02  0.10618722751E+02  0.31720041756E+02  0.51100000000E-03 0. -1.
        -11    1    3    3    0    0 -0.35693304900E+01 -0.54976148886E+01 -0.11235615665E+01  0.66502842394E+01  0.51100000000E-03 0.  1.
         12    1    3    3    0    0 -0.45227767777E+01 -0.52255253381E+01  0.35555897931E+01  0.77719909686E+01  0.00000000000E+00 0. -1.
</event>
<event>
 7    1  0.1538805E-008  0.4614232E+02  0.7816164E-02  0.1320468E+00
        -11   -1    0    0    0    0  0.00000000000E+00  0.00000000000E+00  0.45593999997E+02  0.45594000000E+02  0.51100000000E-03 0.  1.
         11   -1    0    0    0    0 -0.00000000000E+00 -0.00000000000E+00 -0.45593999997E+02  0.45594000000E+02  0.51100000000E-03 0. -1.
    9900012    2    1    2    0    0 -0.23162367310E+02 -0.67197303528E+01 -0.38045543370E+02  0.46142318678E+02  0.10000008358E+02 0.  0.
        -12    1    1    2    0    0  0.23162367310E+02  0.67197303528E+01  0.38045543370E+02  0.45045681322E+02  0.00000000000E+00 0.  1.
         11    1    3    3    0    0 -0.39068995155E+01 -0.41404674505E+01 -0.11684486926E+02  0.12997483199E+02  0.51100000000E-03 0. -1.
        -11    1    3    3    0    0 -0.40570983784E+01  0.78054785494E+00 -0.31387813667E+01  0.51885692570E+01  0.51100000000E-03 0.  1.
         12    1    3    3    0    0 -0.15198369417E+02 -0.33598107572E+01 -0.23222275078E+02  0.27956266221E+02  0.00000000000E+00 0. -1.
</event>
<event>
 7    1  0.1538805E-008  0.4614232E+02  0.7816164E-02  0.1320468E+00
        -11   -1    0    0    0    0  0.00000000000E+00  0.00000000000E+00  0.45593999997E+02  0.45594000000E+02  0.51100000000E-03 0.  1.
         11   -1    0    0    0    0 -0.00000000000E+00 -0.00000000000E+00 -0.45593999997E+02  0.45594000000E+02  0.51100000000E-03 0. -1.
    9900012    2    1    2    0    0 -0.10692448491E+02  0.43364926276E+02 -0.58539082193E+01  0.46142317331E+02  0.99999960807E+01 0.  0.
        -12    1    1    2    0    0  0.10692448491E+02 -0.43364926276E+02  0.58539082193E+01  0.45045682669E+02  0.00000000000E+00 0.  1.
         11    1    3    3    0    0 -0.64573607315E+01  0.10690974007E+02 -0.17175413019E+00  0.12490954030E+02  0.51100000000E-03 0. -1.
        -11    1    3    3    0    0 -0.27884237282E+01  0.27307269971E+02 -0.59497261440E+01  0.28086679078E+02  0.51100000000E-03 0.  1.
        -12    1    3    3    0    0 -0.14466640309E+01  0.53666822977E+01  0.26757205484E+00  0.55646842235E+01  0.00000000000E+00 0.  1.
</event>
<event>
 7    1  0.1538805E-008  0.4614232E+02  0.7816164E-02  0.1320468E+00
        -11   -1    0    0    0    0  0.00000000000E+00  0.00000000000E+00  0.45593999997E+02  0.45594000000E+02  0.51100000000E-03 0. -1.
         11   -1    0    0    0    0 -0.00000000000E+00 -0.00000000000E+00 -0.45593999997E+02  0.45594000000E+02  0.51100000000E-03 0.  1.
    9900012    2    1    2    0    0  0.37169613969E+02  0.25153635208E+02  0.38507039173E+01  0.46142317771E+02  0.10000000094E+02 0.  0.
        -12    1    1    2    0    0 -0.37169613969E+02 -0.25153635208E+02 -0.38507039173E+01  0.45045682229E+02  0.00000000000E+00 0.  1.
         11    1    3    3    0    0  0.17660714508E+02  0.11026164302E+02  0.31721250172E+01  0.21060377811E+02  0.51100000000E-03 0. -1.
        -11    1    3    3    0    0  0.70389728136E+01  0.17257805414E+01  0.17723325984E+01  0.74610066244E+01  0.51100000000E-03 0.  1.
         12    1    3    3    0    0  0.12469926648E+02  0.12401690365E+02 -0.10937536984E+01  0.17620933336E+02  0.00000000000E+00 0. -1.
</event>
<event>
 7    1  0.1538805E-008  0.4614232E+02  0.7816164E-02  0.1320468E+00
        -11   -1    0    0    0    0  0.00000000000E+00  0.00000000000E+00  0.45593999997E+02  0.45594000000E+02  0.51100000000E-03 0.  1.
         11   -1    0    0    0    0 -0.00000000000E+00 -0.00000000000E+00 -0.45593999997E+02  0.45594000000E+02  0.51100000000E-03 0. -1.
    9900012    2    1    2    0    0 -0.47863654016E+00 -0.12182117468E+02 -0.43364505053E+02  0.46142318992E+02  0.10000011228E+02 0.  0.
        -12    1    1    2    0    0  0.47863654016E+00  0.12182117468E+02  0.43364505053E+02  0.45045681008E+02  0.00000000000E+00 0.  1.
         11    1    3    3    0    0 -0.14419373047E+01 -0.32668327989E+01 -0.10523702538E+02  0.11113041668E+02  0.51100000000E-03 0. -1.
        -11    1    3    3    0    0  0.12159931967E+01 -0.94370136741E+00 -0.35617367576E+00  0.15798960959E+01  0.51100000000E-03 0.  1.
        -12    1    3    3    0    0 -0.25269243220E+00 -0.79715833019E+01 -0.32484628839E+02  0.33449381229E+02  0.00000000000E+00 0.  1.
</event>
<event>
 7    1  0.1538805E-008  0.4614232E+02  0.7816164E-02  0.1320468E+00
        -11   -1    0    0    0    0  0.00000000000E+00  0.00000000000E+00  0.45593999997E+02  0.45594000000E+02  0.51100000000E-03 0.  1.
         11   -1    0    0    0    0 -0.00000000000E+00 -0.00000000000E+00 -0.45593999997E+02  0.45594000000E+02  0.51100000000E-03 0. -1.
    9900012    2    1    2    0    0 -0.29420447476E+02 -0.32093070623E+02 -0.11557924339E+02  0.46142317335E+02  0.99999961110E+01 0.  0.
        -12    1    1    2    0    0  0.29420447476E+02  0.32093070623E+02  0.11557924339E+02  0.45045682665E+02  0.00000000000E+00 0.  1.
         11    1    3    3    0    0 -0.12065066838E+02 -0.12210500754E+02 -0.31661177342E+00  0.17168646124E+02  0.51100000000E-03 0.  1.
        -11    1    3    3    0    0 -0.12704352521E+02 -0.11833326239E+02 -0.65050371225E+01  0.18540326078E+02  0.51100000000E-03 0. -1.
         12    1    3    3    0    0 -0.46510281176E+01 -0.80492436298E+01 -0.47362754436E+01  0.10433345132E+02  0.00000000000E+00 0. -1.
</event>
<event>
 7    1  0.1538805E-008  0.4614232E+02  0.7816164E-02  0.1320468E+00
        -11   -1    0    0    0    0  0.00000000000E+00  0.00000000000E+00  0.45593999997E+02  0.45594000000E+02  0.51100000000E-03 0.  1.
         11   -1    0    0    0    0 -0.00000000000E+00 -0.00000000000E+00 -0.45593999997E+02  0.45594000000E+02  0.51100000000E-03 0. -1.
    9900012    2    1    2    0    0 -0.11646465238E+02 -0.34536977061E+02 -0.26470181755E+02  0.46142318085E+02  0.10000002952E+02 0.  0.
        -12    1    1    2    0    0  0.11646465238E+02  0.34536977061E+02  0.26470181755E+02  0.45045681915E+02  0.00000000000E+00 0.  1.
         11    1    3    3    0    0 -0.55409182106E+01 -0.27701134970E+02 -0.20042660876E+02  0.34637593862E+02  0.51100000000E-03 0. -1.
        -11    1    3    3    0    0 -0.62155922593E+01 -0.67450859185E+01 -0.57796031127E+01  0.10841290679E+02  0.51100000000E-03 0.  1.
        -12    1    3    3    0    0  0.11004523149E+00 -0.90756171882E-01 -0.64791776629E+00  0.66343354421E+00  0.00000000000E+00 0.  1.
</event>
<event>
 7    1  0.1538805E-008  0.4614232E+02  0.7816164E-02  0.1320468E+00
        -11   -1    0    0    0    0  0.00000000000E+00  0.00000000000E+00  0.45593999997E+02  0.45594000000E+02  0.51100000000E-03 0.  1.
         11   -1    0    0    0    0 -0.00000000000E+00 -0.00000000000E+00 -0.45593999997E+02  0.45594000000E+02  0.51100000000E-03 0. -1.
    9900012    2    1    2    0    0 -0.11501852433E+01 -0.39013702351E+02  0.22488253981E+02  0.46142318027E+02  0.10000002429E+02 0.  0.
        -12    1    1    2    0    0  0.11501852433E+01  0.39013702351E+02 -0.22488253981E+02  0.45045681973E+02  0.00000000000E+00 0.  1.
         11    1    3    3    0    0  0.13718224587E+01 -0.72221695360E+01  0.75909039860E+01  0.10567092942E+02  0.51100000000E-03 0. -1.
        -11    1    3    3    0    0  0.14322438562E+01 -0.43602379150E+01  0.19958730859E+01  0.50046485167E+01  0.51100000000E-03 0.  1.
         12    1    3    3    0    0 -0.39542515583E+01 -0.27431294900E+02  0.12901476909E+02  0.30570576569E+02  0.00000000000E+00 0. -1.
</event>
<event>
 7    1  0.1538805E-008  0.4614232E+02  0.7816164E-02  0.1320468E+00
        -11   -1    0    0    0    0  0.00000000000E+00  0.00000000000E+00  0.45593999997E+02  0.45594000000E+02  0.51100000000E-03 0.  1.
         11   -1    0    0    0    0 -0.00000000000E+00 -0.00000000000E+00 -0.45593999997E+02  0.45594000000E+02  0.51100000000E-03 0. -1.
    9900012    2    1    2    0    0  0.54203876804E+01 -0.98351443759E+01 -0.43623422265E+02  0.46142316105E+02  0.99999848958E+01 0.  0.
        -12    1    1    2    0    0 -0.54203876804E+01  0.98351443759E+01  0.43623422265E+02  0.45045683895E+02  0.00000000000E+00 0.  1.
         11    1    3    3    0    0  0.22447687693E+01  0.15069784427E+00 -0.13039187356E+02  0.13231859424E+02  0.51100000000E-03 0. -1.
        -11    1    3    3    0    0  0.27178447665E+01 -0.22185628375E+01 -0.45934277481E+01  0.57799896173E+01  0.51100000000E-03 0.  1.
         12    1    3    3    0    0  0.45777414453E+00 -0.77672793827E+01 -0.25990807161E+02  0.27130467063E+02  0.00000000000E+00 0. -1.
</event>
<event>
 7    1  0.1538805E-008  0.4614232E+02  0.7816164E-02  0.1320468E+00
        -11   -1    0    0    0    0  0.00000000000E+00  0.00000000000E+00  0.45593999997E+02  0.45594000000E+02  0.51100000000E-03 0.  1.
         11   -1    0    0    0    0 -0.00000000000E+00 -0.00000000000E+00 -0.45593999997E+02  0.45594000000E+02  0.51100000000E-03 0. -1.
    9900012    2    1    2    0    0  0.71104382248E+01  0.48495779158E+01 -0.44215797272E+02  0.46142318008E+02  0.10000002252E+02 0.  0.
        -12    1    1    2    0    0 -0.71104382248E+01 -0.48495779158E+01  0.44215797272E+02  0.45045681992E+02  0.00000000000E+00 0.  1.
         11    1    3    3    0    0  0.25642194423E+01  0.11718658594E+01 -0.12595026390E+02  0.12906710695E+02  0.51100000000E-03 0. -1.
        -11    1    3    3    0    0  0.28878779911E+01  0.56357301034E+00 -0.23845930311E+01  0.37873127696E+01  0.51100000000E-03 0.  1.
        -12    1    3    3    0    0  0.16583407914E+01  0.31141390460E+01 -0.29236177851E+02  0.29448294543E+02  0.00000000000E+00 0.  1.
</event>
<event>
 7    1  0.1538805E-008  0.4614232E+02  0.7816164E-02  0.1320468E+00
        -11   -1    0    0    0    0  0.00000000000E+00  0.00000000000E+00  0.45593999997E+02  0.45594000000E+02  0.51100000000E-03 0.  1.
         11   -1    0    0    0    0 -0.00000000000E+00 -0.00000000000E+00 -0.45593999997E+02  0.45594000000E+02  0.51100000000E-03 0. -1.
    9900012    2    1    2    0    0 -0.72569463140E+01  0.26393790226E+02 -0.35774544168E+02  0.46142318268E+02  0.10000004625E+02 0.  0.
        -12    1    1    2    0    0  0.72569463140E+01 -0.26393790226E+02  0.35774544168E+02  0.45045681732E+02  0.00000000000E+00 0.  1.
         11    1    3    3    0    0 -0.22952486554E+01  0.13541339665E+02 -0.16398498039E+02  0.21390343254E+02  0.51100000000E-03 0. -1.
        -11    1    3    3    0    0 -0.56023628905E+01  0.10934818515E+02 -0.12270520404E+02  0.17364400282E+02  0.51100000000E-03 0.  1.
        -12    1    3    3    0    0  0.64066523202E+00  0.19176320453E+01 -0.71055257249E+01  0.73875747325E+01  0.00000000000E+00 0.  1.
</event>
<event>
 7    1  0.1538805E-008  0.4614232E+02  0.7816164E-02  0.1320468E+00
        -11   -1    0    0    0    0  0.00000000000E+00  0.00000000000E+00  0.45593999997E+02  0.45594000000E+02  0.51100000000E-03 0.  1.
         11   -1    0    0    0    0 -0.00000000000E+00 -0.00000000000E+00 -0.45593999997E+02  0.45594000000E+02  0.51100000000E-03 0. -1.
    9900012    2    1    2    0    0 -0.25731609426E+02 -0.12229752082E+02 -0.34891702773E+02  0.46142317831E+02  0.10000000639E+02 0.  0.
        -12    1    1    2    0    0  0.25731609426E+02  0.12229752082E+02  0.34891702773E+02  0.45045682169E+02  0.00000000000E+00 0.  1.
         11    1    3    3    0    0 -0.14650640659E+02 -0.10158584670E+02 -0.19040069072E+02  0.26083756339E+02  0.51100000000E-03 0. -1.
        -11    1    3    3    0    0 -0.35622202494E+01  0.16215549042E+01 -0.51379887560E+01  0.64589304169E+01  0.51100000000E-03 0.  1.
         12    1    3    3    0    0 -0.75187485172E+01 -0.36927223163E+01 -0.10713644945E+02  0.13599631075E+02  0.00000000000E+00 0. -1.
</event>
<event>
 7    1  0.1538805E-008  0.4614232E+02  0.7816164E-02  0.1320468E+00
        -11   -1    0    0    0    0  0.00000000000E+00  0.00000000000E+00  0.45593999997E+02  0.45594000000E+02  0.51100000000E-03 0. -1.
         11   -1    0    0    0    0 -0.00000000000E+00 -0.00000000000E+00 -0.45593999997E+02  0.45594000000E+02  0.51100000000E-03 0.  1.
    9900012    2    1    2    0    0  0.23432265843E+02  0.36304745328E+02  0.12728231527E+02  0.46142317702E+02  0.99999994651E+01 0.  0.
        -12    1    1    2    0    0 -0.23432265843E+02 -0.36304745328E+02 -0.12728231527E+02  0.45045682298E+02  0.00000000000E+00 0.  1.
         11    1    3    3    0    0  0.15671451954E+02  0.23825071597E+02  0.35156980409E+01  0.28733057198E+02  0.51100000000E-03 0. -1.
        -11    1    3    3    0    0  0.40236909316E+01  0.51766784078E+01  0.44388817402E+01  0.79178127924E+01  0.51100000000E-03 0.  1.
         12    1    3    3    0    0  0.37371229576E+01  0.73029953227E+01  0.47736517460E+01  0.94914477123E+01  0.00000000000E+00 0. -1.
</event>
<event>
 7    1  0.1538805E-008  0.4614232E+02  0.7816164E-02  0.1320468E+00
        -11   -1    0    0    0    0  0.00000000000E+00  0.00000000000E+00  0.45593999997E+02  0.45594000000E+02  0.51100000000E-03 0.  1.
         11   -1    0    0    0    0 -0.00000000000E+00 -0.00000000000E+00 -0.45593999997E+02  0.45594000000E+02  0.51100000000E-03 0. -1.
    9900012    2    1    2    0    0  0.13593330857E+01 -0.23008792021E+02 -0.38702207184E+02  0.46142321654E+02  0.10000035500E+02 0.  0.
        -12    1    1    2    0    0 -0.13593330857E+01  0.23008792021E+02  0.38702207184E+02  0.45045678346E+02  0.00000000000E+00 0.  1.
         11    1    3    3    0    0  0.27256486061E+00 -0.21643649472E+02 -0.31203017008E+02  0.37975651736E+02  0.51100000000E-03 0. -1.
        -11    1    3    3    0    0  0.17284318979E+01 -0.11585118636E+01 -0.32138782301E+01  0.38286603535E+01  0.51100000000E-03 0.  1.
         12    1    3    3    0    0 -0.64166367277E+00 -0.20663068462E+00 -0.42853119462E+01  0.43380095649E+01  0.00000000000E+00 0. -1.
</event>
<event>
 7    1  0.1538805E-008  0.4614232E+02  0.7816164E-02  0.1320468E+00
        -11   -1    0    0    0    0  0.00000000000E+00  0.00000000000E+00  0.45593999997E+02  0.45594000000E+02  0.51100000000E-03 0. -1.
         11   -1    0    0    0    0 -0.00000000000E+00 -0.00000000000E+00 -0.45593999997E+02  0.45594000000E+02  0.51100000000E-03 0.  1.
    9900012    2    1    2    0    0 -0.32689654380E+02 -0.24076917763E+02 -0.19514148739E+02  0.46142317927E+02  0.10000001508E+02 0.  0.
        -12    1    1    2    0    0  0.32689654380E+02  0.24076917763E+02  0.19514148739E+02  0.45045682073E+02  0.00000000000E+00 0.  1.
         11    1    3    3    0    0 -0.84358532515E+01 -0.30137276099E+01 -0.18727439584E+01  0.91516853302E+01  0.51100000000E-03 0. -1.
        -11    1    3    3    0    0 -0.18193769092E+02 -0.18130793827E+02 -0.15097186830E+02  0.29793690087E+02  0.51100000000E-03 0.  1.
        -12    1    3    3    0    0 -0.60600320371E+01 -0.29323963253E+01 -0.25442179512E+01  0.71969425093E+01  0.00000000000E+00 0.  1.
</event>
<event>
 7    1  0.1538805E-008  0.4614232E+02  0.7816164E-02  0.1320468E+00
        -11   -1    0    0    0    0  0.00000000000E+00  0.00000000000E+00  0.45593999997E+02  0.45594000000E+02  0.51100000000E-03 0. -1.
         11   -1    0    0    0    0 -0.00000000000E+00 -0.00000000000E+00 -0.45593999997E+02  0.45594000000E+02  0.51100000000E-03 0.  1.
    9900012    2    1    2    0    0  0.44446210017E+02 -0.70259922515E+01 -0.20695783819E+01  0.46142319777E+02  0.10000018386E+02 0.  0.
        -12    1    1    2    0    0 -0.44446210017E+02  0.70259922515E+01  0.20695783819E+01  0.45045680223E+02  0.00000000000E+00 0.  1.
         11    1    3    3    0    0  0.11669419610E+02 -0.15312014516E+00 -0.10835819683E+01  0.11720620715E+02  0.51100000000E-03 0. -1.
        -11    1    3    3    0    0  0.90615726356E+01 -0.45775347939E+01  0.21878087971E+01  0.10385202502E+02  0.51100000000E-03 0.  1.
        -12    1    3    3    0    0  0.23715217772E+02 -0.22953373125E+01 -0.31738052107E+01  0.24036496560E+02  0.00000000000E+00 0.  1.
</event>
<event>
 7    1  0.1538805E-008  0.4614232E+02  0.7816164E-02  0.1320468E+00
        -11   -1    0    0    0    0  0.00000000000E+00  0.00000000000E+00  0.45593999997E+02  0.45594000000E+02  0.51100000000E-03 0.  1.
         11   -1    0    0    0    0 -0.00000000000E+00 -0.00000000000E+00 -0.45593999997E+02  0.45594000000E+02  0.51100000000E-03 0. -1.
    9900012    2    1    2    0    0 -0.37546548875E+02  0.21900511129E+02  0.11821071102E+02  0.46142318274E+02  0.10000004675E+02 0.  0.
        -12    1    1    2    0    0  0.37546548875E+02 -0.21900511129E+02 -0.11821071102E+02  0.45045681726E+02  0.00000000000E+00 0.  1.
         11    1    3    3    0    0 -0.30827429887E+02  0.16751459813E+02  0.93159020982E+01  0.36300521642E+02  0.51100000000E-03 0. -1.
        -11    1    3    3    0    0 -0.37878705190E+00  0.26888240559E+01  0.64081132687E+00  0.27899630557E+01  0.51100000000E-03 0.  1.
        -12    1    3    3    0    0 -0.63403319369E+01  0.24602272601E+01  0.18643576773E+01  0.70518335765E+01  0.00000000000E+00 0.  1.
</event>
<event>
 7    1  0.1538805E-008  0.4614232E+02  0.7816164E-02  0.1320468E+00
        -11   -1    0    0    0    0  0.00000000000E+00  0.00000000000E+00  0.45593999997E+02  0.45594000000E+02  0.51100000000E-03 0. -1.
         11   -1    0    0    0    0 -0.00000000000E+00 -0.00000000000E+00 -0.45593999997E+02  0.45594000000E+02  0.51100000000E-03 0.  1.
    9900012    2    1    2    0    0  0.66070603832E+01 -0.27328010666E+02  0.35194318509E+02  0.46142317974E+02  0.10000001942E+02 0.  0.
        -12    1    1    2    0    0 -0.66070603832E+01  0.27328010666E+02 -0.35194318509E+02  0.45045682026E+02  0.00000000000E+00 0.  1.
         11    1    3    3    0    0  0.34840969958E+01 -0.78329741803E+01  0.12699123950E+02  0.15321950455E+02  0.51100000000E-03 0. -1.
        -11    1    3    3    0    0  0.45505288136E+00 -0.10318509571E+02  0.65488726631E+01  0.12229736150E+02  0.51100000000E-03 0.  1.
        -12    1    3    3    0    0  0.26679105061E+01 -0.91765269154E+01  0.15946321896E+02  0.18590631369E+02  0.00000000000E+00 0.  1.
</event>
<event>
 7    1  0.1538805E-008  0.4614232E+02  0.7816164E-02  0.1320468E+00
        -11   -1    0    0    0    0  0.00000000000E+00  0.00000000000E+00  0.45593999997E+02  0.45594000000E+02  0.51100000000E-03 0.  1.
         11   -1    0    0    0    0 -0.00000000000E+00 -0.00000000000E+00 -0.45593999997E+02  0.45594000000E+02  0.51100000000E-03 0. -1.
    9900012    2    1    2    0    0  0.12143530755E+02  0.86842873886E+01 -0.42499781899E+02  0.46142315988E+02  0.99999838312E+01 0.  0.
        -12    1    1    2    0    0 -0.12143530755E+02 -0.86842873886E+01  0.42499781899E+02  0.45045684012E+02  0.00000000000E+00 0.  1.
         11    1    3    3    0    0  0.10213085782E+02  0.68441801827E+01 -0.34993923951E+02  0.37090762156E+02  0.51100000000E-03 0. -1.
        -11    1    3    3    0    0 -0.99968358846E+00 -0.46224110776E-01 -0.29587588339E+00  0.10435740247E+01  0.51100000000E-03 0.  1.
        -12    1    3    3    0    0  0.29301285609E+01  0.18863313167E+01 -0.72099820650E+01  0.80079798075E+01  0.00000000000E+00 0.  1.
</event>
<event>
 7    1  0.1778236E-008  0.4614232E+02  0.7816164E-02  0.1320468E+00
        -11   -1    0    0    0    0  0.00000000000E+00  0.00000000000E+00  0.45593999997E+02  0.45594000000E+02  0.51100000000E-03 0. -1.
         11   -1    0    0    0    0 -0.00000000000E+00 -0.00000000000E+00 -0.45593999997E+02  0.45594000000E+02  0.51100000000E-03 0.  1.
    9900012    2    1    2    0    0  0.74736814852E+01 -0.40993650429E+02  0.17110761499E+02  0.46142318193E+02  0.10000003936E+02 0.  0.
        -12    1    1    2    0    0 -0.74736814852E+01  0.40993650429E+02 -0.17110761499E+02  0.45045681807E+02  0.00000000000E+00 0.  1.
         11    1    3    3    0    0  0.40907704717E+01 -0.20332291366E+02  0.10227232377E+02  0.23124289342E+02  0.51100000000E-03 0. -1.
        -11    1    3    3    0    0 -0.47452015369E+00 -0.42296621798E+01 -0.10262163662E+01  0.43781653490E+01  0.51100000000E-03 0.  1.
        -12    1    3    3    0    0  0.38574311671E+01 -0.16431696883E+02  0.79097454879E+01  0.18639863501E+02  0.00000000000E+00 0.  1.
</event>
<event>
 7    1  0.1538805E-008  0.4614232E+02  0.7816164E-02  0.1320468E+00
        -11   -1    0    0    0    0  0.00000000000E+00  0.00000000000E+00  0.45593999997E+02  0.45594000000E+02  0.51100000000E-03 0.  1.
         11   -1    0    0    0    0 -0.00000000000E+00 -0.00000000000E+00 -0.45593999997E+02  0.45594000000E+02  0.51100000000E-03 0. -1.
    9900012    2    1    2    0    0  0.35143484926E+01  0.83162654162E+01 -0.44131650300E+02  0.46142317920E+02  0.10000001453E+02 0.  0.
        -12    1    1    2    0    0 -0.35143484926E+01 -0.83162654162E+01  0.44131650300E+02  0.45045682080E+02  0.00000000000E+00 0.  1.
         11    1    3    3    0    0  0.19109133153E+01  0.28510521094E+01 -0.23702795950E+02  0.23950002587E+02  0.51100000000E-03 0. -1.
        -11    1    3    3    0    0 -0.59603505511E+00  0.48887012188E+01 -0.18695224771E+02  0.19333030981E+02  0.51100000000E-03 0.  1.
        -12    1    3    3    0    0  0.21994702323E+01  0.57651208792E+00 -0.17336295789E+01  0.28592843523E+01  0.00000000000E+00 0.  1.
</event>
<event>
 7    1  0.1538805E-008  0.4614232E+02  0.7816164E-02  0.1320468E+00
        -11   -1    0    0    0    0  0.00000000000E+00  0.00000000000E+00  0.45593999997E+02  0.45594000000E+02  0.51100000000E-03 0. -1.
         11   -1    0    0    0    0 -0.00000000000E+00 -0.00000000000E+00 -0.45593999997E+02  0.45594000000E+02  0.51100000000E-03 0.  1.
    9900012    2    1    2    0    0  0.14799991159E+02 -0.41545912652E+02 -0.91657428550E+01  0.46142318315E+02  0.10000005047E+02 0.  0.
        -12    1    1    2    0    0 -0.14799991159E+02  0.41545912652E+02  0.91657428550E+01  0.45045681685E+02  0.00000000000E+00 0.  1.
         11    1    3    3    0    0  0.11735047964E+02 -0.27014501134E+02 -0.53748424430E+01  0.29939665225E+02  0.51100000000E-03 0. -1.
        -11    1    3    3    0    0  0.11132715250E+01 -0.11465547453E+02 -0.47239195223E+01  0.12450444482E+02  0.51100000000E-03 0.  1.
         12    1    3    3    0    0  0.19516716700E+01 -0.30658640647E+01  0.93301911036E+00  0.37522086071E+01  0.00000000000E+00 0. -1.
</event>
<event>
 7    1  0.1538805E-008  0.4614232E+02  0.7816164E-02  0.1320468E+00
        -11   -1    0    0    0    0  0.00000000000E+00  0.00000000000E+00  0.45593999997E+02  0.45594000000E+02  0.51100000000E-03 0.  1.
         11   -1    0    0    0    0 -0.00000000000E+00 -0.00000000000E+00 -0.45593999997E+02  0.45594000000E+02  0.51100000000E-03 0. -1.
    9900012    2    1    2    0    0 -0.56649300532E+01  0.44660264176E+02 -0.15756574858E+01  0.46142319571E+02  0.10000016508E+02 0.  0.
        -12    1    1    2    0    0  0.56649300532E+01 -0.44660264176E+02  0.15756574858E+01  0.45045680429E+02  0.00000000000E+00 0.  1.
         11    1    3    3    0    0 -0.23608754931E+01  0.29143082224E+02 -0.21040841607E+01  0.29314162875E+02  0.51100000000E-03 0. -1.
        -11    1    3    3    0    0 -0.17848325659E+01  0.11739900807E+02  0.27515080243E+01  0.12189409129E+02  0.51100000000E-03 0.  1.
         12    1    3    3    0    0 -0.15192219942E+01  0.37772811446E+01 -0.22230813494E+01  0.46387475679E+01  0.00000000000E+00 0. -1.
</event>
<event>
 7    1  0.1538805E-008  0.4614232E+02  0.7816164E-02  0.1320468E+00
        -11   -1    0    0    0    0  0.00000000000E+00  0.00000000000E+00  0.45593999997E+02  0.45594000000E+02  0.51100000000E-03 0.  1.
         11   -1    0    0    0    0 -0.00000000000E+00 -0.00000000000E+00 -0.45593999997E+02  0.45594000000E+02  0.51100000000E-03 0. -1.
    9900012    2    1    2    0    0  0.37622564242E+02 -0.19714762691E+02 -0.14999474795E+02  0.46142318162E+02  0.10000003656E+02 0.  0.
        -12    1    1    2    0    0 -0.37622564242E+02  0.19714762691E+02  0.14999474795E+02  0.45045681838E+02  0.00000000000E+00 0.  1.
         11    1    3    3    0    0  0.15458804444E+02 -0.65931008981E+01 -0.37993828932E+01  0.17230174838E+02  0.51100000000E-03 0. -1.
        -11    1    3    3    0    0  0.72866273665E+01 -0.81938586329E+01 -0.40965515615E+01  0.11705383062E+02  0.51100000000E-03 0.  1.
         12    1    3    3    0    0  0.14877132431E+02 -0.49278031602E+01 -0.71035403398E+01  0.17206760262E+02  0.00000000000E+00 0. -1.
</event>
<event>
 7    1  0.1538805E-008  0.4614232E+02  0.7816164E-02  0.1320468E+00
        -11   -1    0    0    0    0  0.00000000000E+00  0.00000000000E+00  0.45593999997E+02  0.45594000000E+02  0.51100000000E-03 0.  1.
         11   -1    0    0    0    0 -0.00000000000E+00 -0.00000000000E+00 -0.45593999997E+02  0.45594000000E+02  0.51100000000E-03 0. -1.
    9900012    2    1    2    0    0  0.41068698830E+02  0.10853189952E+02 -0.14989454089E+02  0.46142317747E+02  0.99999998703E+01 0.  0.
        -12    1    1    2    0    0 -0.41068698830E+02 -0.10853189952E+02  0.14989454089E+02  0.45045682253E+02  0.00000000000E+00 0.  1.
         11    1    3    3    0    0  0.98869613789E+01  0.66110593597E+01 -0.39536468097E+01  0.12533532404E+02  0.51100000000E-03 0. -1.
        -11    1    3    3    0    0  0.28514851683E+02  0.38639893810E+01 -0.87509624416E+01  0.30076677415E+02  0.51100000000E-03 0.  1.
        -12    1    3    3    0    0  0.26668857688E+01  0.37814121121E+00 -0.22848448378E+01  0.35321079276E+01  0.00000000000E+00 0.  1.
</event>
<event>
 7    1  0.1538805E-008  0.4614232E+02  0.7816164E-02  0.1320468E+00
        -11   -1    0    0    0    0  0.00000000000E+00  0.00000000000E+00  0.45593999997E+02  0.45594000000E+02  0.51100000000E-03 0. -1.
         11   -1    0    0    0    0 -0.00000000000E+00 -0.00000000000E+00 -0.45593999997E+02  0.45594000000E+02  0.51100000000E-03 0.  1.
    9900012    2    1    2    0    0 -0.37532787353E+02  0.23703943569E+02  0.76502616433E+01  0.46142316850E+02  0.99999916919E+01 0.  0.
        -12    1    1    2    0    0  0.37532787353E+02 -0.23703943569E+02 -0.76502616433E+01  0.45045683150E+02  0.00000000000E+00 0.  1.
         11    1    3    3    0    0 -0.12904338250E+02  0.94480679142E+01  0.65652500886E+01  0.17288448223E+02  0.51100000000E-03 0. -1.
        -11    1    3    3    0    0 -0.14593135343E+02  0.10189246025E+02 -0.10023873027E+01  0.17826528385E+02  0.51100000000E-03 0.  1.
         12    1    3    3    0    0 -0.10035313761E+02  0.40666296299E+01  0.20873988574E+01  0.11027340242E+02  0.00000000000E+00 0. -1.
</event>
<event>
 7    1  0.1538805E-008  0.4614232E+02  0.7816164E-02  0.1320468E+00
        -11   -1    0    0    0    0  0.00000000000E+00  0.00000000000E+00  0.45593999997E+02  0.45594000000E+02  0.51100000000E-03 0.  1.
         11   -1    0    0    0    0 -0.00000000000E+00 -0.00000000000E+00 -0.45593999997E+02  0.45594000000E+02  0.51100000000E-03 0. -1.
    9900012    2    1    2    0    0  0.30263900810E+02  0.46348660228E+01 -0.33041304561E+02  0.46142317828E+02  0.10000000606E+02 0.  0.
        -12    1    1    2    0    0 -0.30263900810E+02 -0.46348660228E+01  0.33041304561E+02  0.45045682172E+02  0.00000000000E+00 0.  1.
         11    1    3    3    0    0  0.97975895579E+01 -0.15569462935E+01 -0.88236012630E+01  0.13276776055E+02  0.51100000000E-03 0. -1.
        -11    1    3    3    0    0  0.30648891209E+01  0.11536796538E+00 -0.70019538285E+01  0.76442274148E+01  0.51100000000E-03 0.  1.
         12    1    3    3    0    0  0.17401422131E+02  0.60764443510E+01 -0.17215749470E+02  0.25221314358E+02  0.00000000000E+00 0. -1.
</event>
<event>
 7    1  0.1538805E-008  0.4614232E+02  0.7816164E-02  0.1320468E+00
        -11   -1    0    0    0    0  0.00000000000E+00  0.00000000000E+00  0.45593999997E+02  0.45594000000E+02  0.51100000000E-03 0.  1.
         11   -1    0    0    0    0 -0.00000000000E+00 -0.00000000000E+00 -0.45593999997E+02  0.45594000000E+02  0.51100000000E-03 0. -1.
    9900012    2    1    2    0    0  0.62672313252E+01  0.41922004097E+02 -0.15244044771E+02  0.46142317444E+02  0.99999971062E+01 0.  0.
        -12    1    1    2    0    0 -0.62672313252E+01 -0.41922004097E+02  0.15244044771E+02  0.45045682556E+02  0.00000000000E+00 0.  1.
         11    1    3    3    0    0  0.24272222210E+01  0.14459878395E+02 -0.68968220147E+01  0.16203260322E+02  0.51100000000E-03 0. -1.
        -11    1    3    3    0    0  0.49789328546E+01  0.10699856393E+02 -0.19507645945E+01  0.11961696450E+02  0.51100000000E-03 0.  1.
        -12    1    3    3    0    0 -0.11389237504E+01  0.16762269309E+02 -0.63964581620E+01  0.17977360672E+02  0.00000000000E+00 0.  1.
</event>
<event>
 7    1  0.1538805E-008  0.4614232E+02  0.7816164E-02  0.1320468E+00
        -11   -1    0    0    0    0  0.00000000000E+00  0.00000000000E+00  0.45593999997E+02  0.45594000000E+02  0.51100000000E-03 0. -1.
         11   -1    0    0    0    0 -0.00000000000E+00 -0.00000000000E+00 -0.45593999997E+02  0.45594000000E+02  0.51100000000E-03 0.  1.
    9900012    2    1    2    0    0 -0.43008506826E+02 -0.13300785893E+02 -0.15719293910E+01  0.46142317335E+02  0.99999961140E+01 0.  0.
        -12    1    1    2    0    0  0.43008506826E+02  0.13300785893E+02  0.15719293910E+01  0.45045682665E+02  0.00000000000E+00 0.  1.
         11    1    3    3    0    0 -0.19158734346E+02 -0.34943789082E+01 -0.15626886460E+01  0.19537394447E+02  0.51100000000E-03 0. -1.
        -11    1    3    3    0    0 -0.16042872768E+02 -0.94267299033E+01 -0.14237447056E+01  0.18661834115E+02  0.51100000000E-03 0.  1.
        -12    1    3    3    0    0 -0.78068997120E+01 -0.37967708191E+00  0.14145039605E+01  0.79430887729E+01  0.00000000000E+00 0.  1.
</event>
<event>
 7    1  0.1538805E-008  0.4614232E+02  0.7816164E-02  0.1320468E+00
        -11   -1    0    0    0    0  0.00000000000E+00  0.00000000000E+00  0.45593999997E+02  0.45594000000E+02  0.51100000000E-03 0.  1.
         11   -1    0    0    0    0 -0.00000000000E+00 -0.00000000000E+00 -0.45593999997E+02  0.45594000000E+02  0.51100000000E-03 0. -1.
    9900012    2    1    2    0    0  0.52055821553E+01  0.41120243032E+02 -0.17639190315E+02  0.46142317548E+02  0.99999980557E+01 0.  0.
        -12    1    1    2    0    0 -0.52055821553E+01 -0.41120243032E+02  0.17639190315E+02  0.45045682452E+02  0.00000000000E+00 0.  1.
         11    1    3    3    0    0  0.59350780037E+01  0.20001867253E+02 -0.12530424175E+02  0.24337447992E+02  0.51100000000E-03 0. -1.
        -11    1    3    3    0    0 -0.19163624439E+00  0.15592096343E+02 -0.44352674174E+01  0.16211779364E+02  0.51100000000E-03 0.  1.
         12    1    3    3    0    0 -0.53785960396E+00  0.55262794368E+01 -0.67349872276E+00  0.55930901920E+01  0.00000000000E+00 0. -1.
</event>
<event>
 7    1  0.1538805E-008  0.4614232E+02  0.7816164E-02  0.1320468E+00
        -11   -1    0    0    0    0  0.00000000000E+00  0.00000000000E+00  0.45593999997E+02  0.45594000000E+02  0.51100000000E-03 0.  1.
         11   -1    0    0    0    0 -0.00000000000E+00 -0.00000000000E+00 -0.45593999997E+02  0.45594000000E+02  0.51100000000E-03 0. -1.
    9900012    2    1    2    0    0  0.29051408892E+02  0.28731578847E+01 -0.34305598464E+02  0.46142317845E+02  0.10000000764E+02 0.  0.
        -12    1    1    2    0    0 -0.29051408892E+02 -0.28731578847E+01  0.34305598464E+02  0.45045682155E+02  0.00000000000E+00 0.  1.
         11    1    3    3    0    0  0.25271201290E+02  0.14597179479E+01 -0.24034015270E+02  0.34905562328E+02  0.51100000000E-03 0. -1.
        -11    1    3    3    0    0  0.46205070748E+00  0.80463335970E+00 -0.40962930251E+01  0.42000645839E+01  0.51100000000E-03 0.  1.
         12    1    3    3    0    0  0.33181568939E+01  0.60880657712E+00 -0.61752901688E+01  0.70366909332E+01  0.00000000000E+00 0. -1.
</event>
<event>
 7    1  0.1538805E-008  0.4614231E+02  0.7816164E-02  0.1320468E+00
        -11   -1    0    0    0    0  0.00000000000E+00  0.00000000000E+00  0.45593999997E+02  0.45594000000E+02  0.51100000000E-03 0. -1.
         11   -1    0    0    0    0 -0.00000000000E+00 -0.00000000000E+00 -0.45593999997E+02  0.45594000000E+02  0.51100000000E-03 0.  1.
    9900012    2    1    2    0    0 -0.36922203937E+02 -0.20834843717E+02 -0.15224123691E+02  0.46142314319E+02  0.99999686150E+01 0.  0.
        -12    1    1    2    0    0  0.36922203937E+02  0.20834843717E+02  0.15224123691E+02  0.45045685681E+02  0.00000000000E+00 0.  1.
         11    1    3    3    0    0 -0.10400137365E+02 -0.10201121744E+02 -0.47444844938E+01  0.15321092501E+02  0.51100000000E-03 0. -1.
        -11    1    3    3    0    0 -0.46281970788E+01 -0.87295596113E+00 -0.34577901654E+01  0.58428223830E+01  0.51100000000E-03 0.  1.
         12    1    3    3    0    0 -0.21893869493E+02 -0.97607660113E+01 -0.70218490316E+01  0.24978399435E+02  0.00000000000E+00 0. -1.
</event>
<event>
 7    1  0.1538805E-008  0.4614232E+02  0.7816164E-02  0.1320468E+00
        -11   -1    0    0    0    0  0.00000000000E+00  0.00000000000E+00  0.45593999997E+02  0.45594000000E+02  0.51100000000E-03 0. -1.
         11   -1    0    0    0    0 -0.00000000000E+00 -0.00000000000E+00 -0.45593999997E+02  0.45594000000E+02  0.51100000000E-03 0.  1.
    9900012    2    1    2    0    0 -0.42464466931E+02  0.29975290102E+00 -0.15026399030E+02  0.46142317950E+02  0.10000001726E+02 0.  0.
        -12    1    1    2    0    0  0.42464466931E+02 -0.29975290102E+00  0.15026399030E+02  0.45045682050E+02  0.00000000000E+00 0.  1.
         11    1    3    3    0    0 -0.26486885891E+02  0.23197172915E+01 -0.12561407310E+02  0.29406209657E+02  0.51100000000E-03 0. -1.
        -11    1    3    3    0    0 -0.49511987270E+01  0.57157323520E+00 -0.20858030027E+01  0.54029287636E+01  0.51100000000E-03 0.  1.
         12    1    3    3    0    0 -0.11026382313E+02 -0.25915376257E+01 -0.37918871673E+00  0.11333179530E+02  0.00000000000E+00 0. -1.
</event>
<event>
 7    1  0.1538805E-008  0.4614232E+02  0.7816164E-02  0.1320468E+00
        -11   -1    0    0    0    0  0.00000000000E+00  0.00000000000E+00  0.45593999997E+02  0.45594000000E+02  0.51100000000E-03 0.  1.
         11   -1    0    0    0    0 -0.00000000000E+00 -0.00000000000E+00 -0.45593999997E+02  0.45594000000E+02  0.51100000000E-03 0. -1.
    9900012    2    1    2    0    0  0.12844663649E+02 -0.14494422584E+02 -0.40669885557E+02  0.46142320280E+02  0.10000022965E+02 0.  0.
        -12    1    1    2    0    0 -0.12844663649E+02  0.14494422584E+02  0.40669885557E+02  0.45045679720E+02  0.00000000000E+00 0.  1.
         11    1    3    3    0    0 -0.75743956950E+00  0.34143278449E+00 -0.49054408605E+00  0.96484444821E+00  0.51100000000E-03 0.  1.
        -11    1    3    3    0    0  0.35598295917E+01 -0.31816571242E+01 -0.14242161151E+02  0.15021134554E+02  0.51100000000E-03 0. -1.
         12    1    3    3    0    0  0.10042273627E+02 -0.11654198244E+02 -0.25937180319E+02  0.30156341277E+02  0.00000000000E+00 0. -1.
</event>
<event>
 7    1  0.1538805E-008  0.4614232E+02  0.7816164E-02  0.1320468E+00
        -11   -1    0    0    0    0  0.00000000000E+00  0.00000000000E+00  0.45593999997E+02  0.45594000000E+02  0.51100000000E-03 0.  1.
         11   -1    0    0    0    0 -0.00000000000E+00 -0.00000000000E+00 -0.45593999997E+02  0.45594000000E+02  0.51100000000E-03 0. -1.
    9900012    2    1    2    0    0 -0.17756245436E+02 -0.39839079020E+02  0.11255086309E+02  0.46142318331E+02  0.10000005201E+02 0.  0.
        -12    1    1    2    0    0  0.17756245436E+02  0.39839079020E+02 -0.11255086309E+02  0.45045681669E+02  0.00000000000E+00 0.  1.
         11    1    3    3    0    0 -0.26848931242E+01 -0.12984851914E+02  0.13111636871E+00  0.13260174285E+02  0.51100000000E-03 0. -1.
        -11    1    3    3    0    0 -0.13363179529E+02 -0.21538589750E+02  0.87502362769E+01  0.26815145920E+02  0.51100000000E-03 0.  1.
         12    1    3    3    0    0 -0.17081727834E+01 -0.53156373562E+01  0.23737336636E+01  0.60669981264E+01  0.00000000000E+00 0. -1.
</event>
<event>
 7    1  0.1538805E-008  0.4614232E+02  0.7816164E-02  0.1320468E+00
        -11   -1    0    0    0    0  0.00000000000E+00  0.00000000000E+00  0.45593999997E+02  0.45594000000E+02  0.51100000000E-03 0.  1.
         11   -1    0    0    0    0 -0.00000000000E+00 -0.00000000000E+00 -0.45593999997E+02  0.45594000000E+02  0.51100000000E-03 0. -1.
    9900012    2    1    2    0    0 -0.94707446223E+01 -0.30392459717E+02 -0.31870313348E+02  0.46142317806E+02  0.10000000413E+02 0.  0.
        -12    1    1    2    0    0  0.94707446223E+01  0.30392459717E+02  0.31870313348E+02  0.45045682194E+02  0.00000000000E+00 0.  1.
         11    1    3    3    0    0 -0.29851196713E+01 -0.32667527617E+01 -0.70124232174E+01  0.82919655510E+01  0.51100000000E-03 0. -1.
        -11    1    3    3    0    0 -0.29257107237E+01 -0.20600320910E+02 -0.15759941776E+02  0.26101892075E+02  0.51100000000E-03 0.  1.
        -12    1    3    3    0    0 -0.35599142273E+01 -0.65253860458E+01 -0.90979483546E+01  0.11748460181E+02  0.00000000000E+00 0.  1.
</event>
<event>
 7    1  0.1538805E-008  0.4614232E+02  0.7816164E-02  0.1320468E+00
        -11   -1    0    0    0    0  0.00000000000E+00  0.00000000000E+00  0.45593999997E+02  0.45594000000E+02  0.51100000000E-03 0.  1.
         11   -1    0    0    0    0 -0.00000000000E+00 -0.00000000000E+00 -0.45593999997E+02  0.45594000000E+02  0.51100000000E-03 0. -1.
    9900012    2    1    2    0    0  0.29600237983E+02  0.33772577530E+02  0.35145978810E+01  0.46142317855E+02  0.10000000854E+02 0.  0.
        -12    1    1    2    0    0 -0.29600237983E+02 -0.33772577530E+02 -0.35145978810E+01  0.45045682145E+02  0.00000000000E+00 0.  1.
         11    1    3    3    0    0  0.11881838953E+02  0.16074324681E+02 -0.11867369945E+01  0.20024244200E+02  0.51100000000E-03 0. -1.
        -11    1    3    3    0    0  0.17920905523E+02  0.17575949670E+02  0.40509912352E+01  0.25426037675E+02  0.51100000000E-03 0.  1.
        -12    1    3    3    0    0 -0.20250649265E+00  0.12230317898E+00  0.65034364030E+00  0.69203598001E+00  0.00000000000E+00 0.  1.
</event>
<event>
 7    1  0.1538805E-008  0.4614232E+02  0.7816164E-02  0.1320468E+00
        -11   -1    0    0    0    0  0.00000000000E+00  0.00000000000E+00  0.45593999997E+02  0.45594000000E+02  0.51100000000E-03 0.  1.
         11   -1    0    0    0    0 -0.00000000000E+00 -0.00000000000E+00 -0.45593999997E+02  0.45594000000E+02  0.51100000000E-03 0. -1.
    9900012    2    1    2    0    0  0.26773996603E+02  0.91491271087E+01 -0.35050822399E+02  0.46142316835E+02  0.99999915554E+01 0.  0.
        -12    1    1    2    0    0 -0.26773996603E+02 -0.91491271087E+01  0.35050822399E+02  0.45045683165E+02  0.00000000000E+00 0.  1.
         11    1    3    3    0    0  0.10898585809E+02  0.59684291744E+01 -0.13997714711E+02  0.18717300469E+02  0.51100000000E-03 0. -1.
        -11    1    3    3    0    0  0.76884046182E+01 -0.33263349105E+00 -0.14323706432E+02  0.16260097688E+02  0.51100000000E-03 0.  1.
        -12    1    3    3    0    0  0.81870061760E+01  0.35133314254E+01 -0.67294012561E+01  0.11164918678E+02  0.00000000000E+00 0.  1.
</event>
<event>
 7    1  0.1538805E-008  0.4614232E+02  0.7816164E-02  0.1320468E+00
        -11   -1    0    0    0    0  0.00000000000E+00  0.00000000000E+00  0.45593999997E+02  0.45594000000E+02  0.51100000000E-03 0. -1.
         11   -1    0    0    0    0 -0.00000000000E+00 -0.00000000000E+00 -0.45593999997E+02  0.45594000000E+02  0.51100000000E-03 0.  1.
    9900012    2    1    2    0    0  0.19282674830E+02  0.38379286278E+01  0.40528537019E+02  0.46142316992E+02  0.99999929854E+01 0.  0.
        -12    1    1    2    0    0 -0.19282674830E+02 -0.38379286278E+01 -0.40528537019E+02  0.45045683008E+02  0.00000000000E+00 0.  1.
         11    1    3    3    0    0  0.82865488652E+01  0.54113016217E+01  0.18176115353E+02  0.20695899278E+02  0.51100000000E-03 0. -1.
        -11    1    3    3    0    0  0.42192163321E+01 -0.16188039915E+01  0.46183737601E+01  0.64615547099E+01  0.51100000000E-03 0.  1.
         12    1    3    3    0    0  0.67769096326E+01  0.45430997691E-01  0.17734047906E+02  0.18984863004E+02  0.00000000000E+00 0. -1.
</event>
<event>
 7    1  0.1538805E-008  0.4614232E+02  0.7816164E-02  0.1320468E+00
        -11   -1    0    0    0    0  0.00000000000E+00  0.00000000000E+00  0.45593999997E+02  0.45594000000E+02  0.51100000000E-03 0.  1.
         11   -1    0    0    0    0 -0.00000000000E+00 -0.00000000000E+00 -0.45593999997E+02  0.45594000000E+02  0.51100000000E-03 0. -1.
    9900012    2    1    2    0    0  0.29079211017E+02  0.28729306658E+02 -0.18924573103E+02  0.46142322721E+02  0.10000045225E+02 0.  0.
        -12    1    1    2    0    0 -0.29079211017E+02 -0.28729306658E+02  0.18924573103E+02  0.45045677279E+02  0.00000000000E+00 0.  1.
         11    1    3    3    0    0  0.74588142110E+01  0.11496985469E+02 -0.58962933029E+01  0.14919144053E+02  0.51100000000E-03 0. -1.
        -11    1    3    3    0    0  0.27397047953E+01  0.30332725266E+01  0.30059106036E+00  0.40984240670E+01  0.51100000000E-03 0.  1.
        -12    1    3    3    0    0  0.18880692011E+02  0.14199048663E+02 -0.13328870861E+02  0.27124754601E+02  0.00000000000E+00 0.  1.
</event>
<event>
 7    1  0.1538805E-008  0.4614232E+02  0.7816164E-02  0.1320468E+00
        -11   -1    0    0    0    0  0.00000000000E+00  0.00000000000E+00  0.45593999997E+02  0.45594000000E+02  0.51100000000E-03 0.  1.
         11   -1    0    0    0    0 -0.00000000000E+00 -0.00000000000E+00 -0.45593999997E+02  0.45594000000E+02  0.51100000000E-03 0. -1.
    9900012    2    1    2    0    0  0.30472353745E+02 -0.64929167720E+01 -0.32532925168E+02  0.46142317288E+02  0.99999956901E+01 0.  0.
        -12    1    1    2    0    0 -0.30472353745E+02  0.64929167720E+01  0.32532925168E+02  0.45045682712E+02  0.00000000000E+00 0.  1.
         11    1    3    3    0    0  0.76269286968E+01  0.60875380090E+00 -0.38813425069E+01  0.85793614245E+01  0.51100000000E-03 0. -1.
        -11    1    3    3    0    0  0.56537469383E+00 -0.10547907003E+01 -0.12068812632E+01  0.16996454367E+01  0.51100000000E-03 0.  1.
         12    1    3    3    0    0  0.22280050355E+02 -0.60468798726E+01 -0.27444701398E+02  0.35863310427E+02  0.00000000000E+00 0. -1.
</event>
<event>
 7    1  0.1538805E-008  0.4614232E+02  0.7816164E-02  0.1320468E+00
        -11   -1    0    0    0    0  0.00000000000E+00  0.00000000000E+00  0.45593999997E+02  0.45594000000E+02  0.51100000000E-03 0.  1.
         11   -1    0    0    0    0 -0.00000000000E+00 -0.00000000000E+00 -0.45593999997E+02  0.45594000000E+02  0.51100000000E-03 0. -1.
    9900012    2    1    2    0    0  0.33375822204E+02 -0.19458614394E+02 -0.23163124806E+02  0.46142317269E+02  0.99999955107E+01 0.  0.
        -12    1    1    2    0    0 -0.33375822204E+02  0.19458614394E+02  0.23163124806E+02  0.45045682731E+02  0.00000000000E+00 0.  1.
         11    1    3    3    0    0  0.17270709096E+02 -0.66175117473E+01 -0.98769438263E+01  0.20967185649E+02  0.51100000000E-03 0. -1.
        -11    1    3    3    0    0  0.11508359359E+02 -0.10313400040E+02 -0.12488678803E+02  0.19868962077E+02  0.51100000000E-03 0.  1.
        -12    1    3    3    0    0  0.45967537493E+01 -0.25277026068E+01 -0.79750217680E+00  0.53061695433E+01  0.00000000000E+00 0.  1.
</event>
<event>
 7    1  0.1538805E-008  0.4614232E+02  0.7816164E-02  0.1320468E+00
        -11   -1    0    0    0    0  0.00000000000E+00  0.00000000000E+00  0.45593999997E+02  0.45594000000E+02  0.51100000000E-03 0. -1.
         11   -1    0    0    0    0 -0.00000000000E+00 -0.00000000000E+00 -0.45593999997E+02  0.45594000000E+02  0.51100000000E-03 0.  1.
    9900012    2    1    2    0    0 -0.24807530053E+02  0.36548942630E+02  0.88246682634E+01  0.46142317358E+02  0.99999963253E+01 0.  0.
        -12    1    1    2    0    0  0.24807530053E+02 -0.36548942630E+02 -0.88246682634E+01  0.45045682642E+02  0.00000000000E+00 0.  1.
         11    1    3    3    0    0 -0.52218719799E+00  0.44860966595E+01  0.11676195847E+01  0.46648771113E+01  0.51100000000E-03 0. -1.
        -11    1    3    3    0    0 -0.16591510132E+02  0.16534876095E+02  0.39228066529E+01  0.23750131541E+02  0.51100000000E-03 0.  1.
        -12    1    3    3    0    0 -0.76938327234E+01  0.15527969876E+02  0.37342420258E+01  0.17727308706E+02  0.00000000000E+00 0.  1.
</event>
<event>
 7    1  0.1538805E-008  0.4614232E+02  0.7816164E-02  0.1320468E+00
        -11   -1    0    0    0    0  0.00000000000E+00  0.00000000000E+00  0.45593999997E+02  0.45594000000E+02  0.51100000000E-03 0.  1.
         11   -1    0    0    0    0 -0.00000000000E+00 -0.00000000000E+00 -0.45593999997E+02  0.45594000000E+02  0.51100000000E-03 0. -1.
    9900012    2    1    2    0    0  0.25830301420E+02 -0.36812647549E+02 -0.25957696176E+01  0.46142317511E+02  0.99999977201E+01 0.  0.
        -12    1    1    2    0    0 -0.25830301420E+02  0.36812647549E+02  0.25957696176E+01  0.45045682489E+02  0.00000000000E+00 0.  1.
         11    1    3    3    0    0  0.58513184268E+01 -0.72280165529E+01 -0.26256007537E+01  0.96631221766E+01  0.51100000000E-03 0. -1.
        -11    1    3    3    0    0 -0.46727705890E+00 -0.18875612265E+01  0.64070331543E+00  0.20473730078E+01  0.51100000000E-03 0.  1.
         12    1    3    3    0    0  0.20446260052E+02 -0.27697069769E+02 -0.61087217926E+00  0.34431822327E+02  0.00000000000E+00 0. -1.
</event>
<event>
 7    1  0.1538805E-008  0.4614232E+02  0.7816164E-02  0.1320468E+00
        -11   -1    0    0    0    0  0.00000000000E+00  0.00000000000E+00  0.45593999997E+02  0.45594000000E+02  0.51100000000E-03 0.  1.
         11   -1    0    0    0    0 -0.00000000000E+00 -0.00000000000E+00 -0.45593999997E+02  0.45594000000E+02  0.51100000000E-03 0. -1.
    9900012    2    1    2    0    0 -0.15217894119E+01 -0.37200105779E+02 -0.25356453434E+02  0.46142318256E+02  0.10000004514E+02 0.  0.
        -12    1    1    2    0    0  0.15217894119E+01  0.37200105779E+02  0.25356453434E+02  0.45045681744E+02  0.00000000000E+00 0.  1.
         11    1    3    3    0    0  0.37869666293E+00 -0.15111100000E+02 -0.65648380165E+01  0.16479862039E+02  0.51100000000E-03 0. -1.
        -11    1    3    3    0    0 -0.16222543515E+01 -0.11724942620E+01 -0.20965635664E+01  0.28986257130E+01  0.51100000000E-03 0.  1.
         12    1    3    3    0    0 -0.27823172338E+00 -0.20916511517E+02 -0.16695051851E+02  0.26763830504E+02  0.00000000000E+00 0. -1.
</event>
<event>
 7    1  0.1538805E-008  0.4614232E+02  0.7816164E-02  0.1320468E+00
        -11   -1    0    0    0    0  0.00000000000E+00  0.00000000000E+00  0.45593999997E+02  0.45594000000E+02  0.51100000000E-03 0.  1.
         11   -1    0    0    0    0 -0.00000000000E+00 -0.00000000000E+00 -0.45593999997E+02  0.45594000000E+02  0.51100000000E-03 0. -1.
    9900012    2    1    2    0    0 -0.34869927588E+02  0.22827561241E+02 -0.17091052270E+02  0.46142317966E+02  0.10000001864E+02 0.  0.
        -12    1    1    2    0    0  0.34869927588E+02 -0.22827561241E+02  0.17091052270E+02  0.45045682034E+02  0.00000000000E+00 0.  1.
         11    1    3    3    0    0 -0.14724347931E+02  0.12270623975E+02 -0.11075248026E+02  0.22136751203E+02  0.51100000000E-03 0. -1.
        -11    1    3    3    0    0 -0.14890003412E+02  0.72298951990E+01 -0.21739308067E+01  0.16694596779E+02  0.51100000000E-03 0.  1.
        -12    1    3    3    0    0 -0.52555762446E+01  0.33270420675E+01 -0.38418734375E+01  0.73109699829E+01  0.00000000000E+00 0.  1.
</event>
<event>
 7    1  0.1538805E-008  0.4614232E+02  0.7816164E-02  0.1320468E+00
        -11   -1    0    0    0    0  0.00000000000E+00  0.00000000000E+00  0.45593999997E+02  0.45594000000E+02  0.51100000000E-03 0.  1.
         11   -1    0    0    0    0 -0.00000000000E+00 -0.00000000000E+00 -0.45593999997E+02  0.45594000000E+02  0.51100000000E-03 0. -1.
    9900012    2    1    2    0    0  0.29205703338E+02 -0.32907145923E+02  0.96571271515E+01  0.46142318019E+02  0.10000002354E+02 0.  0.
        -12    1    1    2    0    0 -0.29205703338E+02  0.32907145923E+02 -0.96571271515E+01  0.45045681981E+02  0.00000000000E+00 0.  1.
         11    1    3    3    0    0  0.19331994577E+02 -0.22090957333E+02  0.64785476337E+01  0.30061736309E+02  0.51100000000E-03 0. -1.
        -11    1    3    3    0    0  0.18298679185E+01 -0.27144524056E+01 -0.16723078957E+01  0.36760416783E+01  0.51100000000E-03 0.  1.
         12    1    3    3    0    0  0.80438408424E+01 -0.81017361851E+01  0.48508874135E+01  0.12404540032E+02  0.00000000000E+00 0. -1.
</event>
<event>
 7    1  0.1538805E-008  0.4614232E+02  0.7816164E-02  0.1320468E+00
        -11   -1    0    0    0    0  0.00000000000E+00  0.00000000000E+00  0.45593999997E+02  0.45594000000E+02  0.51100000000E-03 0. -1.
         11   -1    0    0    0    0 -0.00000000000E+00 -0.00000000000E+00 -0.45593999997E+02  0.45594000000E+02  0.51100000000E-03 0.  1.
    9900012    2    1    2    0    0  0.41389384483E+02  0.43453116770E+00  0.17771986873E+02  0.46142317825E+02  0.10000000580E+02 0.  0.
        -12    1    1    2    0    0 -0.41389384483E+02 -0.43453116770E+00 -0.17771986873E+02  0.45045682175E+02  0.00000000000E+00 0.  1.
         11    1    3    3    0    0  0.58007752245E+01 -0.31338139377E+01  0.25896406069E+01  0.70835034930E+01  0.51100000000E-03 0. -1.
        -11    1    3    3    0    0  0.31651522178E+02  0.44204603060E+01  0.13538194126E+02  0.34707953353E+02  0.51100000000E-03 0.  1.
        -12    1    3    3    0    0  0.39370870811E+01 -0.85211520056E+00  0.16441521397E+01  0.43508609789E+01  0.00000000000E+00 0.  1.
</event>
<event>
 7    1  0.1538805E-008  0.4614232E+02  0.7816164E-02  0.1320468E+00
        -11   -1    0    0    0    0  0.00000000000E+00  0.00000000000E+00  0.45593999997E+02  0.45594000000E+02  0.51100000000E-03 0.  1.
         11   -1    0    0    0    0 -0.00000000000E+00 -0.00000000000E+00 -0.45593999997E+02  0.45594000000E+02  0.51100000000E-03 0. -1.
    9900012    2    1    2    0    0  0.35137847206E+02 -0.13718392360E+02 -0.24622161569E+02  0.46142318348E+02  0.10000005350E+02 0.  0.
        -12    1    1    2    0    0 -0.35137847206E+02  0.13718392360E+02  0.24622161569E+02  0.45045681652E+02  0.00000000000E+00 0.  1.
         11    1    3    3    0    0  0.18985721080E+02 -0.42806484065E+01 -0.92837877611E+01  0.21563169321E+02  0.51100000000E-03 0. -1.
        -11    1    3    3    0    0  0.63348447807E+01 -0.33794322202E+01 -0.86603397532E+01  0.11249546899E+02  0.51100000000E-03 0.  1.
        -12    1    3    3    0    0  0.98172813453E+01 -0.60583117334E+01 -0.66780340545E+01  0.13329602129E+02  0.00000000000E+00 0.  1.
</event>
<event>
 7    1  0.1538805E-008  0.4614232E+02  0.7816164E-02  0.1320468E+00
        -11   -1    0    0    0    0  0.00000000000E+00  0.00000000000E+00  0.45593999997E+02  0.45594000000E+02  0.51100000000E-03 0.  1.
         11   -1    0    0    0    0 -0.00000000000E+00 -0.00000000000E+00 -0.45593999997E+02  0.45594000000E+02  0.51100000000E-03 0. -1.
    9900012    2    1    2    0    0 -0.25415436751E+02 -0.36675590252E+02  0.61700953603E+01  0.46142318494E+02  0.10000006679E+02 0.  0.
        -12    1    1    2    0    0  0.25415436751E+02  0.36675590252E+02 -0.61700953603E+01  0.45045681506E+02  0.00000000000E+00 0.  1.
         11    1    3    3    0    0 -0.12677987196E+02 -0.14979939051E+02  0.18567205788E+01  0.19712365278E+02  0.51100000000E-03 0. -1.
        -11    1    3    3    0    0 -0.58828864939E+01 -0.16265180622E+02  0.35025340615E+01  0.17647441720E+02  0.51100000000E-03 0.  1.
         12    1    3    3    0    0 -0.68545630616E+01 -0.54304705801E+01  0.81084072005E+00  0.87825114950E+01  0.00000000000E+00 0. -1.
</event>
<event>
 7    1  0.1538805E-008  0.4614232E+02  0.7816164E-02  0.1320468E+00
        -11   -1    0    0    0    0  0.00000000000E+00  0.00000000000E+00  0.45593999997E+02  0.45594000000E+02  0.51100000000E-03 0.  1.
         11   -1    0    0    0    0 -0.00000000000E+00 -0.00000000000E+00 -0.45593999997E+02  0.45594000000E+02  0.51100000000E-03 0. -1.
    9900012    2    1    2    0    0  0.43288412755E+02  0.16758730761E+01 -0.12345779760E+02  0.46142317551E+02  0.99999980861E+01 0.  0.
        -12    1    1    2    0    0 -0.43288412755E+02 -0.16758730761E+01  0.12345779760E+02  0.45045682449E+02  0.00000000000E+00 0.  1.
         11    1    3    3    0    0  0.35422082345E+02  0.26897089790E+01 -0.10989953090E+02  0.37185178784E+02  0.51100000000E-03 0. -1.
        -11    1    3    3    0    0  0.88543891117E+00  0.10004624476E+01 -0.10250205547E+01  0.16839223774E+01  0.51100000000E-03 0.  1.
        -12    1    3    3    0    0  0.69808914987E+01 -0.20142983505E+01 -0.33080611496E+00  0.72732163894E+01  0.00000000000E+00 0.  1.
</event>
<event>
 7    1  0.1538805E-008  0.4614232E+02  0.7816164E-02  0.1320468E+00
        -11   -1    0    0    0    0  0.00000000000E+00  0.00000000000E+00  0.45593999997E+02  0.45594000000E+02  0.51100000000E-03 0. -1.
         11   -1    0    0    0    0 -0.00000000000E+00 -0.00000000000E+00 -0.45593999997E+02  0.45594000000E+02  0.51100000000E-03 0.  1.
    9900012    2    1    2    0    0 -0.23886747620E+02  0.48553882075E+01  0.37880892111E+02  0.46142317703E+02  0.99999994689E+01 0.  0.
        -12    1    1    2    0    0  0.23886747620E+02 -0.48553882075E+01 -0.37880892111E+02  0.45045682297E+02  0.00000000000E+00 0.  1.
         11    1    3    3    0    0 -0.14289371380E+02  0.45312855320E+01  0.21481474746E+02  0.26194893406E+02  0.51100000000E-03 0.  1.
        -11    1    3    3    0    0 -0.40792419228E+01 -0.26428990012E+01  0.52232642561E+01  0.71349575714E+01  0.51100000000E-03 0. -1.
         12    1    3    3    0    0 -0.55181343170E+01  0.29670016768E+01  0.11176153109E+02  0.12812466726E+02  0.00000000000E+00 0. -1.
</event>
<event>
 7    1  0.1538805E-008  0.4614232E+02  0.7816164E-02  0.1320468E+00
        -11   -1    0    0    0    0  0.00000000000E+00  0.00000000000E+00  0.45593999997E+02  0.45594000000E+02  0.51100000000E-03 0. -1.
         11   -1    0    0    0    0 -0.00000000000E+00 -0.00000000000E+00 -0.45593999997E+02  0.45594000000E+02  0.51100000000E-03 0.  1.
    9900012    2    1    2    0    0  0.35633005751E+02  0.16432599888E+02  0.22121745583E+02  0.46142322454E+02  0.10000042793E+02 0.  0.
        -12    1    1    2    0    0 -0.35633005751E+02 -0.16432599888E+02 -0.22121745583E+02  0.45045677546E+02  0.00000000000E+00 0.  1.
         11    1    3    3    0    0  0.83103660452E+01  0.41701083575E+01  0.43564274667E+01  0.10267932998E+02  0.51100000000E-03 0. -1.
        -11    1    3    3    0    0  0.34691312249E+01  0.39074922234E+00  0.55652993968E+01  0.65696357622E+01  0.51100000000E-03 0.  1.
        -12    1    3    3    0    0  0.23853508481E+02  0.11871742309E+02  0.12200018719E+02  0.29304753694E+02  0.00000000000E+00 0.  1.
</event>
<event>
 7    1  0.1538805E-008  0.4614232E+02  0.7816164E-02  0.1320468E+00
        -11   -1    0    0    0    0  0.00000000000E+00  0.00000000000E+00  0.45593999997E+02  0.45594000000E+02  0.51100000000E-03 0.  1.
         11   -1    0    0    0    0 -0.00000000000E+00 -0.00000000000E+00 -0.45593999997E+02  0.45594000000E+02  0.51100000000E-03 0. -1.
    9900012    2    1    2    0    0 -0.30247815691E+02  0.27108041580E+02 -0.19476581253E+02  0.46142317747E+02  0.99999998678E+01 0.  0.
        -12    1    1    2    0    0  0.30247815691E+02 -0.27108041580E+02  0.19476581253E+02  0.45045682253E+02  0.00000000000E+00 0.  1.
         11    1    3    3    0    0 -0.21212610606E+02  0.16138210296E+02 -0.14263370663E+02  0.30230124433E+02  0.51100000000E-03 0. -1.
        -11    1    3    3    0    0 -0.13292112514E+01 -0.31486017457E+00 -0.56885021556E+00  0.14797061564E+01  0.51100000000E-03 0.  1.
         12    1    3    3    0    0 -0.77059938343E+01  0.11284691458E+02 -0.46443603743E+01  0.14432487158E+02  0.00000000000E+00 0. -1.
</event>
<event>
 7    1  0.1538805E-008  0.4614232E+02  0.7816164E-02  0.1320468E+00
        -11   -1    0    0    0    0  0.00000000000E+00  0.00000000000E+00  0.45593999997E+02  0.45594000000E+02  0.51100000000E-03 0.  1.
         11   -1    0    0    0    0 -0.00000000000E+00 -0.00000000000E+00 -0.45593999997E+02  0.45594000000E+02  0.51100000000E-03 0. -1.
    9900012    2    1    2    0    0 -0.30493090861E+02 -0.26024284337E+02 -0.20543159782E+02  0.46142318971E+02  0.10000011035E+02 0.  0.
        -12    1    1    2    0    0  0.30493090861E+02  0.26024284337E+02  0.20543159782E+02  0.45045681029E+02  0.00000000000E+00 0.  1.
         11    1    3    3    0    0 -0.88665025398E+01 -0.10626859460E+02 -0.10423158710E+02  0.17325912588E+02  0.51100000000E-03 0. -1.
        -11    1    3    3    0    0 -0.13847406157E+02 -0.10247077558E+02 -0.40825495040E+01  0.17703685110E+02  0.51100000000E-03 0.  1.
        -12    1    3    3    0    0 -0.77791821642E+01 -0.51503473193E+01 -0.60374515685E+01  0.11112721273E+02  0.00000000000E+00 0.  1.
</event>
<event>
 7    1  0.1538805E-008  0.4614231E+02  0.7816164E-02  0.1320468E+00
        -11   -1    0    0    0    0  0.00000000000E+00  0.00000000000E+00  0.45593999997E+02  0.45594000000E+02  0.51100000000E-03 0.  1.
         11   -1    0    0    0    0 -0.00000000000E+00 -0.00000000000E+00 -0.45593999997E+02  0.45594000000E+02  0.51100000000E-03 0. -1.
    9900012    2    1    2    0    0  0.29586405841E+02 -0.18419839886E+02 -0.28538886836E+02  0.46142312372E+02  0.99999508575E+01 0.  0.
        -12    1    1    2    0    0 -0.29586405841E+02  0.18419839886E+02  0.28538886836E+02  0.45045687628E+02  0.00000000000E+00 0.  1.
         11    1    3    3    0    0  0.56060295253E+01 -0.57819373985E+01 -0.61666129711E+01  0.10143248144E+02  0.51100000000E-03 0. -1.
        -11    1    3    3    0    0  0.12668044171E+02 -0.29270748582E+01 -0.78576107597E+01  0.15191746359E+02  0.51100000000E-03 0.  1.
        -12    1    3    3    0    0  0.11312332145E+02 -0.97108276298E+01 -0.14514663105E+02  0.20807317868E+02  0.00000000000E+00 0.  1.
</event>
<event>
 7    1  0.1538805E-008  0.4614232E+02  0.7816164E-02  0.1320468E+00
        -11   -1    0    0    0    0  0.00000000000E+00  0.00000000000E+00  0.45593999997E+02  0.45594000000E+02  0.51100000000E-03 0.  1.
         11   -1    0    0    0    0 -0.00000000000E+00 -0.00000000000E+00 -0.45593999997E+02  0.45594000000E+02  0.51100000000E-03 0. -1.
    9900012    2    1    2    0    0  0.34146998897E+02  0.20424801666E+02 -0.21116902756E+02  0.46142316092E+02  0.99999847820E+01 0.  0.
        -12    1    1    2    0    0 -0.34146998897E+02 -0.20424801666E+02  0.21116902756E+02  0.45045683908E+02  0.00000000000E+00 0.  1.
         11    1    3    3    0    0  0.62717828315E+01  0.34123571150E+01 -0.65685223906E+01  0.97018002259E+01  0.51100000000E-03 0. -1.
        -11    1    3    3    0    0  0.23451052199E+02  0.15282075110E+02 -0.14839109514E+02  0.31681111728E+02  0.51100000000E-03 0.  1.
        -12    1    3    3    0    0  0.44241638656E+01  0.17303694404E+01  0.29072914840E+00  0.47594041379E+01  0.00000000000E+00 0.  1.
</event>
<event>
 7    1  0.1538805E-008  0.4614232E+02  0.7816164E-02  0.1320468E+00
        -11   -1    0    0    0    0  0.00000000000E+00  0.00000000000E+00  0.45593999997E+02  0.45594000000E+02  0.51100000000E-03 0.  1.
         11   -1    0    0    0    0 -0.00000000000E+00 -0.00000000000E+00 -0.45593999997E+02  0.45594000000E+02  0.51100000000E-03 0. -1.
    9900012    2    1    2    0    0 -0.17155324657E+02  0.10957008405E+01 -0.41636616111E+02  0.46142317348E+02  0.99999962309E+01 0.  0.
        -12    1    1    2    0    0  0.17155324657E+02 -0.10957008405E+01  0.41636616111E+02  0.45045682652E+02  0.00000000000E+00 0.  1.
         11    1    3    3    0    0 -0.11041348774E+02 -0.16084656892E+01 -0.24469472545E+02  0.26893375234E+02  0.51100000000E-03 0. -1.
        -11    1    3    3    0    0 -0.29511777843E+01  0.42596840520E+01 -0.10151573911E+02  0.11397754676E+02  0.51100000000E-03 0.  1.
        -12    1    3    3    0    0 -0.31627980992E+01 -0.15555175224E+01 -0.70155696554E+01  0.78511874369E+01  0.00000000000E+00 0.  1.
</event>
<event>
 7    1  0.1538805E-008  0.4614232E+02  0.7816164E-02  0.1320468E+00
        -11   -1    0    0    0    0  0.00000000000E+00  0.00000000000E+00  0.45593999997E+02  0.45594000000E+02  0.51100000000E-03 0.  1.
         11   -1    0    0    0    0 -0.00000000000E+00 -0.00000000000E+00 -0.45593999997E+02  0.45594000000E+02  0.51100000000E-03 0. -1.
    9900012    2    1    2    0    0  0.34774474479E+02  0.17360289388E+02 -0.22769929938E+02  0.46142318383E+02  0.10000005672E+02 0.  0.
        -12    1    1    2    0    0 -0.34774474479E+02 -0.17360289388E+02  0.22769929938E+02  0.45045681617E+02  0.00000000000E+00 0.  1.
         11    1    3    3    0    0  0.28063145698E+02  0.10767439217E+02 -0.19636265325E+02  0.35903493005E+02  0.51100000000E-03 0. -1.
        -11    1    3    3    0    0  0.64592617018E+01  0.52015011549E+01 -0.29973825027E+01  0.88182752353E+01  0.51100000000E-03 0.  1.
         12    1    3    3    0    0  0.25206707900E+00  0.13913490155E+01 -0.13628211117E+00  0.14205501431E+01  0.00000000000E+00 0. -1.
</event>
<event>
 7    1  0.1538805E-008  0.4614232E+02  0.7816164E-02  0.1320468E+00
        -11   -1    0    0    0    0  0.00000000000E+00  0.00000000000E+00  0.45593999997E+02  0.45594000000E+02  0.51100000000E-03 0. -1.
         11   -1    0    0    0    0 -0.00000000000E+00 -0.00000000000E+00 -0.45593999997E+02  0.45594000000E+02  0.51100000000E-03 0.  1.
    9900012    2    1    2    0    0 -0.35585110103E+02  0.16396890420E+02  0.22225106993E+02  0.46142318106E+02  0.10000003144E+02 0.  0.
        -12    1    1    2    0    0  0.35585110103E+02 -0.16396890420E+02 -0.22225106993E+02  0.45045681894E+02  0.00000000000E+00 0.  1.
         11    1    3    3    0    0 -0.11636133484E+02  0.55561708875E+01  0.79821500780E+01  0.15165268132E+02  0.51100000000E-03 0. -1.
        -11    1    3    3    0    0 -0.10143532173E+02  0.15893059153E+01  0.23264787172E+01  0.10527565802E+02  0.51100000000E-03 0.  1.
        -12    1    3    3    0    0 -0.13805444446E+02  0.92514136168E+01  0.11916478198E+02  0.20449484172E+02  0.00000000000E+00 0.  1.
</event>
<event>
 7    1  0.1538805E-008  0.4614232E+02  0.7816164E-02  0.1320468E+00
        -11   -1    0    0    0    0  0.00000000000E+00  0.00000000000E+00  0.45593999997E+02  0.45594000000E+02  0.51100000000E-03 0.  1.
         11   -1    0    0    0    0 -0.00000000000E+00 -0.00000000000E+00 -0.45593999997E+02  0.45594000000E+02  0.51100000000E-03 0. -1.
    9900012    2    1    2    0    0 -0.10913993932E+02 -0.36724914659E+02 -0.23691325666E+02  0.46142317275E+02  0.99999955713E+01 0.  0.
        -12    1    1    2    0    0  0.10913993932E+02  0.36724914659E+02  0.23691325666E+02  0.45045682725E+02  0.00000000000E+00 0.  1.
         11    1    3    3    0    0 -0.64305169332E+01 -0.24700868637E+02 -0.14130967172E+02  0.29174795508E+02  0.51100000000E-03 0. -1.
        -11    1    3    3    0    0 -0.18254749255E+01 -0.10145021862E+02 -0.89594075354E+01  0.13657408646E+02  0.51100000000E-03 0.  1.
        -12    1    3    3    0    0 -0.26580020738E+01 -0.18790241601E+01 -0.60095095849E+00  0.33101131209E+01  0.00000000000E+00 0.  1.
</event>
<event>
 7    1  0.1538805E-008  0.4614232E+02  0.7816164E-02  0.1320468E+00
        -11   -1    0    0    0    0  0.00000000000E+00  0.00000000000E+00  0.45593999997E+02  0.45594000000E+02  0.51100000000E-03 0. -1.
         11   -1    0    0    0    0 -0.00000000000E+00 -0.00000000000E+00 -0.45593999997E+02  0.45594000000E+02  0.51100000000E-03 0.  1.
    9900012    2    1    2    0    0 -0.12779113270E+02  0.11946079116E+02  0.41510227124E+02  0.46142317654E+02  0.99999990211E+01 0.  0.
        -12    1    1    2    0    0  0.12779113270E+02 -0.11946079116E+02 -0.41510227124E+02  0.45045682346E+02  0.00000000000E+00 0.  1.
         11    1    3    3    0    0 -0.22508919058E+01  0.57146190492E+01  0.14409981287E+02  0.15664320803E+02  0.51100000000E-03 0. -1.
        -11    1    3    3    0    0 -0.10573178198E+02  0.65435308646E+01  0.21259656620E+02  0.24628903615E+02  0.51100000000E-03 0.  1.
        -12    1    3    3    0    0  0.44956834345E-01 -0.31207079809E+00  0.58405892157E+01  0.58490932362E+01  0.00000000000E+00 0.  1.
</event>
<event>
 7    1  0.1538805E-008  0.4614232E+02  0.7816164E-02  0.1320468E+00
        -11   -1    0    0    0    0  0.00000000000E+00  0.00000000000E+00  0.45593999997E+02  0.45594000000E+02  0.51100000000E-03 0.  1.
         11   -1    0    0    0    0 -0.00000000000E+00 -0.00000000000E+00 -0.45593999997E+02  0.45594000000E+02  0.51100000000E-03 0. -1.
    9900012    2    1    2    0    0 -0.23076019925E+02 -0.26331045325E+02 -0.28342318479E+02  0.46142315853E+02  0.99999826047E+01 0.  0.
        -12    1    1    2    0    0  0.23076019925E+02  0.26331045325E+02  0.28342318479E+02  0.45045684147E+02  0.00000000000E+00 0.  1.
         11    1    3    3    0    0 -0.95435116235E+01 -0.85740560671E+01 -0.11677028965E+02  0.17347796899E+02  0.51100000000E-03 0. -1.
        -11    1    3    3    0    0  0.31972708162E+00 -0.19863736182E+01 -0.31081070972E-01  0.20121808696E+01  0.51100000000E-03 0.  1.
        -12    1    3    3    0    0 -0.13852235383E+02 -0.15770615639E+02 -0.16634208443E+02  0.26782338085E+02  0.00000000000E+00 0.  1.
</event>
<event>
 7    1  0.1538805E-008  0.4614232E+02  0.7816164E-02  0.1320468E+00
        -11   -1    0    0    0    0  0.00000000000E+00  0.00000000000E+00  0.45593999997E+02  0.45594000000E+02  0.51100000000E-03 0.  1.
         11   -1    0    0    0    0 -0.00000000000E+00 -0.00000000000E+00 -0.45593999997E+02  0.45594000000E+02  0.51100000000E-03 0. -1.
    9900012    2    1    2    0    0  0.29467858071E+02  0.24262395307E+02 -0.23918507407E+02  0.46142317833E+02  0.10000000659E+02 0.  0.
        -12    1    1    2    0    0 -0.29467858071E+02 -0.24262395307E+02  0.23918507407E+02  0.45045682167E+02  0.00000000000E+00 0.  1.
         11    1    3    3    0    0  0.19710787790E+02  0.14919308151E+02 -0.15358888082E+02  0.29103201789E+02  0.51100000000E-03 0. -1.
        -11    1    3    3    0    0  0.40665670175E+01  0.61529900720E+01 -0.73342857394E+01  0.10401346149E+02  0.51100000000E-03 0.  1.
         12    1    3    3    0    0  0.56905032630E+01  0.31900970836E+01 -0.12253335851E+01  0.66377698954E+01  0.00000000000E+00 0. -1.
</event>
<event>
 7    1  0.1538805E-008  0.4614232E+02  0.7816164E-02  0.1320468E+00
        -11   -1    0    0    0    0  0.00000000000E+00  0.00000000000E+00  0.45593999997E+02  0.45594000000E+02  0.51100000000E-03 0.  1.
         11   -1    0    0    0    0 -0.00000000000E+00 -0.00000000000E+00 -0.45593999997E+02  0.45594000000E+02  0.51100000000E-03 0. -1.
    9900012    2    1    2    0    0 -0.33134183272E+02  0.27333670418E+02 -0.13568710562E+02  0.46142317122E+02  0.99999941708E+01 0.  0.
        -12    1    1    2    0    0  0.33134183272E+02 -0.27333670418E+02  0.13568710562E+02  0.45045682878E+02  0.00000000000E+00 0.  1.
         11    1    3    3    0    0 -0.68580499006E+01  0.55830846764E+01  0.25299941115E-01  0.88433208293E+01  0.51100000000E-03 0. -1.
        -11    1    3    3    0    0 -0.23647307277E+01  0.35135894490E+01  0.14312407784E+00  0.42376581969E+01  0.51100000000E-03 0.  1.
         12    1    3    3    0    0 -0.23911402644E+02  0.18236996293E+02 -0.13737134581E+02  0.33061338096E+02  0.00000000000E+00 0. -1.
</event>
<event>
 7    1  0.1538805E-008  0.4614232E+02  0.7816164E-02  0.1320468E+00
        -11   -1    0    0    0    0  0.00000000000E+00  0.00000000000E+00  0.45593999997E+02  0.45594000000E+02  0.51100000000E-03 0.  1.
         11   -1    0    0    0    0 -0.00000000000E+00 -0.00000000000E+00 -0.45593999997E+02  0.45594000000E+02  0.51100000000E-03 0. -1.
    9900012    2    1    2    0    0 -0.32854943939E+02  0.35657672768E+01 -0.30609662485E+02  0.46142317910E+02  0.10000001361E+02 0.  0.
        -12    1    1    2    0    0  0.32854943939E+02 -0.35657672768E+01  0.30609662485E+02  0.45045682090E+02  0.00000000000E+00 0.  1.
         11    1    3    3    0    0 -0.15903927962E+02  0.43569459629E+01 -0.20418268834E+02  0.26245449228E+02  0.51100000000E-03 0. -1.
        -11    1    3    3    0    0 -0.11509519910E+02 -0.11979040931E+01 -0.61333079965E+01  0.13096621321E+02  0.51100000000E-03 0.  1.
         12    1    3    3    0    0 -0.54414960671E+01  0.40672540702E+00 -0.40580856547E+01  0.68002473621E+01  0.00000000000E+00 0. -1.
</event>
<event>
 7    1  0.1538805E-008  0.4614233E+02  0.7816164E-02  0.1320468E+00
        -11   -1    0    0    0    0  0.00000000000E+00  0.00000000000E+00  0.45593999997E+02  0.45594000000E+02  0.51100000000E-03 0. -1.
         11   -1    0    0    0    0 -0.00000000000E+00 -0.00000000000E+00 -0.45593999997E+02  0.45594000000E+02  0.51100000000E-03 0.  1.
    9900012    2    1    2    0    0  0.53285484702E+01 -0.10707377643E+01  0.44716579686E+02  0.46142329764E+02  0.10000109451E+02 0.  0.
        -12    1    1    2    0    0 -0.53285484702E+01  0.10707377643E+01 -0.44716579686E+02  0.45045670236E+02  0.00000000000E+00 0.  1.
         11    1    3    3    0    0 -0.17930896186E+01 -0.10844483409E+01  0.47714409106E+01  0.52113191429E+01  0.51100000000E-03 0.  1.
        -11    1    3    3    0    0  0.38584134216E+01 -0.16214341408E+01  0.30821440752E+02  0.31104302164E+02  0.51100000000E-03 0. -1.
        -12    1    3    3    0    0  0.32632246673E+01  0.16351447174E+01  0.91236980236E+01  0.98267084571E+01  0.00000000000E+00 0.  1.
</event>
<event>
 7    1  0.1538805E-008  0.4614232E+02  0.7816164E-02  0.1320468E+00
        -11   -1    0    0    0    0  0.00000000000E+00  0.00000000000E+00  0.45593999997E+02  0.45594000000E+02  0.51100000000E-03 0.  1.
         11   -1    0    0    0    0 -0.00000000000E+00 -0.00000000000E+00 -0.45593999997E+02  0.45594000000E+02  0.51100000000E-03 0. -1.
    9900012    2    1    2    0    0 -0.24017082061E+02  0.37337715515E+02 -0.76281188491E+01  0.46142318433E+02  0.10000006126E+02 0.  0.
        -12    1    1    2    0    0  0.24017082061E+02 -0.37337715515E+02  0.76281188491E+01  0.45045681567E+02  0.00000000000E+00 0.  1.
         11    1    3    3    0    0 -0.81036487350E+01  0.89264234468E+01  0.64792319688E+00  0.12073523227E+02  0.51100000000E-03 0. -1.
        -11    1    3    3    0    0 -0.13659051282E+02  0.26237378801E+02 -0.88700113994E+01  0.30881172755E+02  0.51100000000E-03 0.  1.
        -12    1    3    3    0    0 -0.22543820440E+01  0.21739132682E+01  0.59396935336E+00  0.31876224511E+01  0.00000000000E+00 0.  1.
</event>
<event>
 7    1  0.1538805E-008  0.4614232E+02  0.7816164E-02  0.1320468E+00
        -11   -1    0    0    0    0  0.00000000000E+00  0.00000000000E+00  0.45593999997E+02  0.45594000000E+02  0.51100000000E-03 0.  1.
         11   -1    0    0    0    0 -0.00000000000E+00 -0.00000000000E+00 -0.45593999997E+02  0.45594000000E+02  0.51100000000E-03 0. -1.
    9900012    2    1    2    0    0  0.44657326532E+02  0.67953486515E+00  0.58630089473E+01  0.46142318136E+02  0.10000003422E+02 0.  0.
        -12    1    1    2    0    0 -0.44657326532E+02 -0.67953486515E+00 -0.58630089473E+01  0.45045681864E+02  0.00000000000E+00 0.  1.
         11    1    3    3    0    0  0.24061155375E+02  0.10497996222E+01  0.69586451351E+01  0.25069184661E+02  0.51100000000E-03 0. -1.
        -11    1    3    3    0    0  0.10839494685E+02  0.16314569164E+01  0.56317692915E+00  0.10976040507E+02  0.51100000000E-03 0.  1.
         12    1    3    3    0    0  0.97566764724E+01 -0.20017216734E+01 -0.16588131170E+01  0.10097092968E+02  0.00000000000E+00 0. -1.
</event>
<event>
 7    1  0.1538805E-008  0.4614232E+02  0.7816164E-02  0.1320468E+00
        -11   -1    0    0    0    0  0.00000000000E+00  0.00000000000E+00  0.45593999997E+02  0.45594000000E+02  0.51100000000E-03 0.  1.
         11   -1    0    0    0    0 -0.00000000000E+00 -0.00000000000E+00 -0.45593999997E+02  0.45594000000E+02  0.51100000000E-03 0. -1.
    9900012    2    1    2    0    0  0.82829224828E+01  0.23994345363E+02 -0.37212606568E+02  0.46142317612E+02  0.99999986385E+01 0.  0.
        -12    1    1    2    0    0 -0.82829224828E+01 -0.23994345363E+02  0.37212606568E+02  0.45045682388E+02  0.00000000000E+00 0.  1.
         11    1    3    3    0    0  0.49829717167E+01  0.13372461881E+02 -0.16200315384E+02  0.21589417841E+02  0.51100000000E-03 0. -1.
        -11    1    3    3    0    0  0.25119933465E+01  0.10104981853E+01 -0.73257423783E+01  0.78101036363E+01  0.51100000000E-03 0.  1.
        -12    1    3    3    0    0  0.78795741970E+00  0.96113852963E+01 -0.13686548806E+02  0.16742796135E+02  0.00000000000E+00 0.  1.
</event>
<event>
 7    1  0.1538805E-008  0.4614232E+02  0.7816164E-02  0.1320468E+00
        -11   -1    0    0    0    0  0.00000000000E+00  0.00000000000E+00  0.45593999997E+02  0.45594000000E+02  0.51100000000E-03 0. -1.
         11   -1    0    0    0    0 -0.00000000000E+00 -0.00000000000E+00 -0.45593999997E+02  0.45594000000E+02  0.51100000000E-03 0.  1.
    9900012    2    1    2    0    0  0.31449798039E+02  0.25919514177E+02  0.19188601535E+02  0.46142318290E+02  0.10000004827E+02 0.  0.
        -12    1    1    2    0    0 -0.31449798039E+02 -0.25919514177E+02 -0.19188601535E+02  0.45045681710E+02  0.00000000000E+00 0.  1.
         11    1    3    3    0    0  0.68231926129E+01  0.10468886172E+02  0.86749350399E+01  0.15212101542E+02  0.51100000000E-03 0. -1.
        -11    1    3    3    0    0  0.64440792935E+01  0.36711514356E+01  0.29855140659E+01  0.79947986406E+01  0.51100000000E-03 0.  1.
         12    1    3    3    0    0  0.18182526132E+02  0.11779476569E+02  0.75281524290E+01  0.22935418108E+02  0.00000000000E+00 0. -1.
</event>
<event>
 7    1  0.1538805E-008  0.4614232E+02  0.7816164E-02  0.1320468E+00
        -11   -1    0    0    0    0  0.00000000000E+00  0.00000000000E+00  0.45593999997E+02  0.45594000000E+02  0.51100000000E-03 0.  1.
         11   -1    0    0    0    0 -0.00000000000E+00 -0.00000000000E+00 -0.45593999997E+02  0.45594000000E+02  0.51100000000E-03 0. -1.
    9900012    2    1    2    0    0 -0.38137224463E+02 -0.14409392052E+02 -0.19158157876E+02  0.46142317829E+02  0.10000000615E+02 0.  0.
        -12    1    1    2    0    0  0.38137224463E+02  0.14409392052E+02  0.19158157876E+02  0.45045682171E+02  0.00000000000E+00 0.  1.
         11    1    3    3    0    0 -0.79270910706E+01 -0.49665072074E+01 -0.19116214121E+01  0.95477360336E+01  0.51100000000E-03 0. -1.
        -11    1    3    3    0    0 -0.44249060910E+00  0.44838547718E+00  0.24902498791E+00  0.67739292956E+00  0.51100000000E-03 0.  1.
         12    1    3    3    0    0 -0.29767642784E+02 -0.98912703221E+01 -0.17495561452E+02  0.35917188865E+02  0.00000000000E+00 0. -1.
</event>
<event>
 7    1  0.1538805E-008  0.4614232E+02  0.7816164E-02  0.1320468E+00
        -11   -1    0    0    0    0  0.00000000000E+00  0.00000000000E+00  0.45593999997E+02  0.45594000000E+02  0.51100000000E-03 0. -1.
         11   -1    0    0    0    0 -0.00000000000E+00 -0.00000000000E+00 -0.45593999997E+02  0.45594000000E+02  0.51100000000E-03 0.  1.
    9900012    2    1    2    0    0  0.41698515662E+02 -0.17022052998E+02 -0.77263005592E+00  0.46142318144E+02  0.10000003488E+02 0.  0.
        -12    1    1    2    0    0 -0.41698515662E+02  0.17022052998E+02  0.77263005592E+00  0.45045681856E+02  0.00000000000E+00 0.  1.
         11    1    3    3    0    0  0.15766886532E+02 -0.66970276104E+01  0.18651132546E+01  0.17231469393E+02  0.51100000000E-03 0. -1.
        -11    1    3    3    0    0  0.91776097741E+00 -0.19903061787E+01 -0.12164436380E+01  0.25066589880E+01  0.51100000000E-03 0.  1.
        -12    1    3    3    0    0  0.25013868153E+02 -0.83347192085E+01 -0.14212996725E+01  0.26404189762E+02  0.00000000000E+00 0.  1.
</event>
<event>
 7    1  0.1538805E-008  0.4614232E+02  0.7816164E-02  0.1320468E+00
        -11   -1    0    0    0    0  0.00000000000E+00  0.00000000000E+00  0.45593999997E+02  0.45594000000E+02  0.51100000000E-03 0.  1.
         11   -1    0    0    0    0 -0.00000000000E+00 -0.00000000000E+00 -0.45593999997E+02  0.45594000000E+02  0.51100000000E-03 0. -1.
    9900012    2    1    2    0    0 -0.14280142122E+02 -0.13318538526E+02 -0.40593196070E+02  0.46142317691E+02  0.99999993592E+01 0.  0.
        -12    1    1    2    0    0  0.14280142122E+02  0.13318538526E+02  0.40593196070E+02  0.45045682309E+02  0.00000000000E+00 0.  1.
         11    1    3    3    0    0 -0.12614588269E+02 -0.13378557620E+02 -0.39080966471E+02  0.43190688601E+02  0.51100000000E-03 0. -1.
        -11    1    3    3    0    0  0.33414481863E+00  0.38081813310E+00 -0.36028337425E+00  0.62167481950E+00  0.51100000000E-03 0.  1.
        -12    1    3    3    0    0 -0.19996986711E+01 -0.32079903914E+00 -0.11519462247E+01  0.23299542706E+01  0.00000000000E+00 0.  1.
</event>
<event>
 7    1  0.1538805E-008  0.4614232E+02  0.7816164E-02  0.1320468E+00
        -11   -1    0    0    0    0  0.00000000000E+00  0.00000000000E+00  0.45593999997E+02  0.45594000000E+02  0.51100000000E-03 0. -1.
         11   -1    0    0    0    0 -0.00000000000E+00 -0.00000000000E+00 -0.45593999997E+02  0.45594000000E+02  0.51100000000E-03 0.  1.
    9900012    2    1    2    0    0 -0.37499429846E+02 -0.18755324687E+02  0.16466453417E+02  0.46142317287E+02  0.99999956785E+01 0.  0.
        -12    1    1    2    0    0  0.37499429846E+02  0.18755324687E+02 -0.16466453417E+02  0.45045682713E+02  0.00000000000E+00 0.  1.
         11    1    3    3    0    0 -0.29408485155E+02 -0.10073618066E+02  0.11118104717E+02  0.33014376154E+02  0.51100000000E-03 0. -1.
        -11    1    3    3    0    0 -0.14398151659E+01 -0.24621420628E+01  0.16838619389E+01  0.33121899915E+01  0.51100000000E-03 0.  1.
         12    1    3    3    0    0 -0.66511295254E+01 -0.62195645585E+01  0.36644867609E+01  0.98157511421E+01  0.00000000000E+00 0. -1.
</event>
<event>
 7    1  0.1538805E-008  0.4614232E+02  0.7816164E-02  0.1320468E+00
        -11   -1    0    0    0    0  0.00000000000E+00  0.00000000000E+00  0.45593999997E+02  0.45594000000E+02  0.51100000000E-03 0.  1.
         11   -1    0    0    0    0 -0.00000000000E+00 -0.00000000000E+00 -0.45593999997E+02  0.45594000000E+02  0.51100000000E-03 0. -1.
    9900012    2    1    2    0    0 -0.15531081137E+02 -0.32592880053E+02 -0.26937022512E+02  0.46142317707E+02  0.99999995059E+01 0.  0.
        -12    1    1    2    0    0  0.15531081137E+02  0.32592880053E+02  0.26937022512E+02  0.45045682293E+02  0.00000000000E+00 0.  1.
         11    1    3    3    0    0 -0.27619737530E+01 -0.11717599482E+02 -0.65686207550E+01  0.13714131964E+02  0.51100000000E-03 0.  1.
        -11    1    3    3    0    0 -0.87934981187E+01 -0.16721783047E+02 -0.12387349340E+02  0.22591814035E+02  0.51100000000E-03 0. -1.
        -12    1    3    3    0    0 -0.39756092652E+01 -0.41534975240E+01 -0.79810524165E+01  0.98363717085E+01  0.00000000000E+00 0.  1.
</event>
<event>
 7    1  0.1538805E-008  0.4614232E+02  0.7816164E-02  0.1320468E+00
        -11   -1    0    0    0    0  0.00000000000E+00  0.00000000000E+00  0.45593999997E+02  0.45594000000E+02  0.51100000000E-03 0. -1.
         11   -1    0    0    0    0 -0.00000000000E+00 -0.00000000000E+00 -0.45593999997E+02  0.45594000000E+02  0.51100000000E-03 0.  1.
    9900012    2    1    2    0    0  0.96811993892E+01 -0.35018736448E+01  0.43853443481E+02  0.46142320454E+02  0.10000024553E+02 0.  0.
        -12    1    1    2    0    0 -0.96811993892E+01  0.35018736448E+01 -0.43853443481E+02  0.45045679546E+02  0.00000000000E+00 0.  1.
         11    1    3    3    0    0  0.64802622043E+01 -0.35799336327E+01  0.20293652128E+02  0.21601898990E+02  0.51100000000E-03 0. -1.
        -11    1    3    3    0    0  0.26585363321E+01 -0.14144747107E+01  0.22329301958E+02  0.22531450915E+02  0.51100000000E-03 0.  1.
        -12    1    3    3    0    0  0.54240085284E+00  0.14925346985E+01  0.12304893950E+01  0.20089705480E+01  0.00000000000E+00 0.  1.
</event>
<event>
 7    1  0.1538805E-008  0.4614232E+02  0.7816164E-02  0.1320468E+00
        -11   -1    0    0    0    0  0.00000000000E+00  0.00000000000E+00  0.45593999997E+02  0.45594000000E+02  0.51100000000E-03 0.  1.
         11   -1    0    0    0    0 -0.00000000000E+00 -0.00000000000E+00 -0.45593999997E+02  0.45594000000E+02  0.51100000000E-03 0. -1.
    9900012    2    1    2    0    0 -0.43069513521E+02  0.12728536908E+02 -0.34806482713E+01  0.46142316975E+02  0.99999928349E+01 0.  0.
        -12    1    1    2    0    0  0.43069513521E+02 -0.12728536908E+02  0.34806482713E+01  0.45045683025E+02  0.00000000000E+00 0.  1.
         11    1    3    3    0    0 -0.12755654290E+02  0.36940820727E+01 -0.19837417682E+01  0.13427143791E+02  0.51100000000E-03 0. -1.
        -11    1    3    3    0    0 -0.32404835659E+01  0.95279919578E+00 -0.28637369956E+01  0.44282671430E+01  0.51100000000E-03 0.  1.
        -12    1    3    3    0    0 -0.27073375665E+02  0.80816556397E+01  0.13668304925E+01  0.28286906041E+02  0.00000000000E+00 0.  1.
</event>
<event>
 7    1  0.1538805E-008  0.4614232E+02  0.7816164E-02  0.1320468E+00
        -11   -1    0    0    0    0  0.00000000000E+00  0.00000000000E+00  0.45593999997E+02  0.45594000000E+02  0.51100000000E-03 0.  1.
         11   -1    0    0    0    0 -0.00000000000E+00 -0.00000000000E+00 -0.45593999997E+02  0.45594000000E+02  0.51100000000E-03 0. -1.
    9900012    2    1    2    0    0 -0.37174807728E+02  0.25401446978E+02 -0.13833124547E+01  0.46142318836E+02  0.10000009801E+02 0.  0.
        -12    1    1    2    0    0  0.37174807728E+02 -0.25401446978E+02  0.13833124547E+01  0.45045681164E+02  0.00000000000E+00 0.  1.
         11    1    3    3    0    0 -0.27732772606E+02  0.18563700725E+02 -0.38667911154E+01  0.33595680300E+02  0.51100000000E-03 0. -1.
        -11    1    3    3    0    0 -0.83673609523E+00  0.24836738549E+01  0.91402877087E+00  0.27756462248E+01  0.51100000000E-03 0.  1.
         12    1    3    3    0    0 -0.86052990271E+01  0.43540723979E+01  0.15694498898E+01  0.97709923113E+01  0.00000000000E+00 0. -1.
</event>
<event>
 7    1  0.1538805E-008  0.4614231E+02  0.7816164E-02  0.1320468E+00
        -11   -1    0    0    0    0  0.00000000000E+00  0.00000000000E+00  0.45593999997E+02  0.45594000000E+02  0.51100000000E-03 0.  1.
         11   -1    0    0    0    0 -0.00000000000E+00 -0.00000000000E+00 -0.45593999997E+02  0.45594000000E+02  0.51100000000E-03 0. -1.
    9900012    2    1    2    0    0  0.42650455127E+01 -0.53694298189E+01 -0.44520702378E+02  0.46142308419E+02  0.99999148065E+01 0.  0.
        -12    1    1    2    0    0 -0.42650455127E+01  0.53694298189E+01  0.44520702378E+02  0.45045691581E+02  0.00000000000E+00 0.  1.
         11    1    3    3    0    0  0.34298076436E+01 -0.43145804831E+01 -0.16062942136E+02  0.16982264146E+02  0.51100000000E-03 0. -1.
        -11    1    3    3    0    0 -0.26597045813E+01 -0.34492861924E+00 -0.95783270060E+01  0.99467257279E+01  0.51100000000E-03 0.  1.
        -12    1    3    3    0    0  0.34949424504E+01 -0.70992071657E+00 -0.18879433236E+02  0.19213318544E+02  0.00000000000E+00 0.  1.
</event>
<event>
 7    1  0.1538805E-008  0.4614232E+02  0.7816164E-02  0.1320468E+00
        -11   -1    0    0    0    0  0.00000000000E+00  0.00000000000E+00  0.45593999997E+02  0.45594000000E+02  0.51100000000E-03 0.  1.
         11   -1    0    0    0    0 -0.00000000000E+00 -0.00000000000E+00 -0.45593999997E+02  0.45594000000E+02  0.51100000000E-03 0. -1.
    9900012    2    1    2    0    0  0.29851699839E+02 -0.15620514441E+02 -0.29899647655E+02  0.46142318913E+02  0.10000010505E+02 0.  0.
        -12    1    1    2    0    0 -0.29851699839E+02  0.15620514441E+02  0.29899647655E+02  0.45045681087E+02  0.00000000000E+00 0.  1.
         11    1    3    3    0    0  0.23628541240E+02 -0.15129307062E+02 -0.23355995595E+02  0.36506251846E+02  0.51100000000E-03 0. -1.
        -11    1    3    3    0    0 -0.19933459608E-01 -0.64027921223E+00 -0.75181402378E-01  0.64498629196E+00  0.51100000000E-03 0.  1.
         12    1    3    3    0    0  0.62430920587E+01  0.14907183381E+00 -0.64684706576E+01  0.89910807755E+01  0.00000000000E+00 0. -1.
</event>
<event>
 7    1  0.1538805E-008  0.4614232E+02  0.7816164E-02  0.1320468E+00
        -11   -1    0    0    0    0  0.00000000000E+00  0.00000000000E+00  0.45593999997E+02  0.45594000000E+02  0.51100000000E-03 0.  1.
         11   -1    0    0    0    0 -0.00000000000E+00 -0.00000000000E+00 -0.45593999997E+02  0.45594000000E+02  0.51100000000E-03 0. -1.
    9900012    2    1    2    0    0 -0.22769573021E+02  0.25993757615E+02 -0.28896101152E+02  0.46142317051E+02  0.99999935290E+01 0.  0.
        -12    1    1    2    0    0  0.22769573021E+02 -0.25993757615E+02  0.28896101152E+02  0.45045682949E+02  0.00000000000E+00 0.  1.
         11    1    3    3    0    0 -0.13688946391E+02  0.16210596989E+02 -0.20993230910E+02  0.29847721058E+02  0.51100000000E-03 0. -1.
        -11    1    3    3    0    0 -0.82843140762E+01  0.56333689658E+01 -0.57754811460E+01  0.11563774831E+02  0.51100000000E-03 0.  1.
        -12    1    3    3    0    0 -0.79631255338E+00  0.41497916600E+01 -0.21273890965E+01  0.47308211625E+01  0.00000000000E+00 0.  1.
</event>
<event>
 7    1  0.1538805E-008  0.4614232E+02  0.7816164E-02  0.1320468E+00
        -11   -1    0    0    0    0  0.00000000000E+00  0.00000000000E+00  0.45593999997E+02  0.45594000000E+02  0.51100000000E-03 0.  1.
         11   -1    0    0    0    0 -0.00000000000E+00 -0.00000000000E+00 -0.45593999997E+02  0.45594000000E+02  0.51100000000E-03 0. -1.
    9900012    2    1    2    0    0 -0.17351184847E+02  0.20603269841E+02 -0.36104777590E+02  0.46142319757E+02  0.10000018201E+02 0.  0.
        -12    1    1    2    0    0  0.17351184847E+02 -0.20603269841E+02  0.36104777590E+02  0.45045680243E+02  0.00000000000E+00 0.  1.
         11    1    3    3    0    0 -0.13755315278E+02  0.13155896400E+02 -0.21363875254E+02  0.28612959907E+02  0.51100000000E-03 0. -1.
        -11    1    3    3    0    0  0.59051683461E+00 -0.17757729261E+00 -0.20707273716E+01  0.21605915707E+01  0.51100000000E-03 0.  1.
        -12    1    3    3    0    0 -0.41863864031E+01  0.76249507330E+01 -0.12670174965E+02  0.15368768280E+02  0.00000000000E+00 0.  1.
</event>
<event>
 7    1  0.1538805E-008  0.4614232E+02  0.7816164E-02  0.1320468E+00
        -11   -1    0    0    0    0  0.00000000000E+00  0.00000000000E+00  0.45593999997E+02  0.45594000000E+02  0.51100000000E-03 0.  1.
         11   -1    0    0    0    0 -0.00000000000E+00 -0.00000000000E+00 -0.45593999997E+02  0.45594000000E+02  0.51100000000E-03 0. -1.
    9900012    2    1    2    0    0  0.25218926972E+02 -0.24038254957E+02 -0.28553135059E+02  0.46142317625E+02  0.99999987550E+01 0.  0.
        -12    1    1    2    0    0 -0.25218926972E+02  0.24038254957E+02  0.28553135059E+02  0.45045682375E+02  0.00000000000E+00 0.  1.
         11    1    3    3    0    0  0.19164152361E+02 -0.20276182042E+02 -0.21668377949E+02  0.35325725712E+02  0.51100000000E-03 0. -1.
        -11    1    3    3    0    0  0.45653205597E+01 -0.74277647223E+00 -0.24064046598E+01  0.52138903276E+01  0.51100000000E-03 0.  1.
         12    1    3    3    0    0  0.14894540516E+01 -0.30192964426E+01 -0.44783524503E+01  0.56027015848E+01  0.00000000000E+00 0. -1.
</event>
<event>
 7    1  0.1538805E-008  0.4614232E+02  0.7816164E-02  0.1320468E+00
        -11   -1    0    0    0    0  0.00000000000E+00  0.00000000000E+00  0.45593999997E+02  0.45594000000E+02  0.51100000000E-03 0. -1.
         11   -1    0    0    0    0 -0.00000000000E+00 -0.00000000000E+00 -0.45593999997E+02  0.45594000000E+02  0.51100000000E-03 0.  1.
    9900012    2    1    2    0    0  0.38564764706E+02 -0.36465581139E+00  0.23275299407E+02  0.46142316376E+02  0.99999873653E+01 0.  0.
        -12    1    1    2    0    0 -0.38564764706E+02  0.36465581139E+00 -0.23275299407E+02  0.45045683624E+02  0.00000000000E+00 0.  1.
         11    1    3    3    0    0  0.15389110841E+02 -0.15496185234E+01  0.55051605752E+01  0.16417455444E+02  0.51100000000E-03 0. -1.
        -11    1    3    3    0    0  0.44199349733E+01  0.18897611495E+01  0.54824345436E+01  0.72913723781E+01  0.51100000000E-03 0.  1.
         12    1    3    3    0    0  0.18755718892E+02 -0.70479843756E+00  0.12287704288E+02  0.22433488553E+02  0.00000000000E+00 0. -1.
</event>
<event>
 7    1  0.1538805E-008  0.4614232E+02  0.7816164E-02  0.1320468E+00
        -11   -1    0    0    0    0  0.00000000000E+00  0.00000000000E+00  0.45593999997E+02  0.45594000000E+02  0.51100000000E-03 0.  1.
         11   -1    0    0    0    0 -0.00000000000E+00 -0.00000000000E+00 -0.45593999997E+02  0.45594000000E+02  0.51100000000E-03 0. -1.
    9900012    2    1    2    0    0 -0.19407646038E+02  0.20981738740E+02 -0.34816994319E+02  0.46142321198E+02  0.10000031343E+02 0.  0.
        -12    1    1    2    0    0  0.19407646038E+02 -0.20981738740E+02  0.34816994319E+02  0.45045678802E+02  0.00000000000E+00 0.  1.
         11    1    3    3    0    0 -0.59871587267E+01  0.26261051946E+01 -0.49723305541E+01  0.82138035959E+01  0.51100000000E-03 0.  1.
        -11    1    3    3    0    0 -0.22006404365E+01  0.67283165860E+01 -0.70759574978E+01  0.10009107712E+02  0.51100000000E-03 0. -1.
        -12    1    3    3    0    0 -0.11219846875E+02  0.11627316959E+02 -0.22768706268E+02  0.27919409891E+02  0.00000000000E+00 0.  1.
</event>
<event>
 7    1  0.1538805E-008  0.4614232E+02  0.7816164E-02  0.1320468E+00
        -11   -1    0    0    0    0  0.00000000000E+00  0.00000000000E+00  0.45593999997E+02  0.45594000000E+02  0.51100000000E-03 0.  1.
         11   -1    0    0    0    0 -0.00000000000E+00 -0.00000000000E+00 -0.45593999997E+02  0.45594000000E+02  0.51100000000E-03 0. -1.
    9900012    2    1    2    0    0 -0.16636885931E+02  0.30111372185E+02 -0.29079766763E+02  0.46142317151E+02  0.99999944337E+01 0.  0.
        -12    1    1    2    0    0  0.16636885931E+02 -0.30111372185E+02  0.29079766763E+02  0.45045682849E+02  0.00000000000E+00 0.  1.
         11    1    3    3    0    0 -0.31608395020E+01  0.37195619050E+01 -0.24187030332E+01  0.54475840284E+01  0.51100000000E-03 0. -1.
        -11    1    3    3    0    0 -0.13746935566E+02  0.26832771101E+02 -0.25759116870E+02  0.39654860289E+02  0.51100000000E-03 0.  1.
        -12    1    3    3    0    0  0.27088913675E+00 -0.44096082067E+00 -0.90194686031E+00  0.10398728329E+01  0.00000000000E+00 0.  1.
</event>
<event>
 7    1  0.1538805E-008  0.4614232E+02  0.7816164E-02  0.1320468E+00
        -11   -1    0    0    0    0  0.00000000000E+00  0.00000000000E+00  0.45593999997E+02  0.45594000000E+02  0.51100000000E-03 0.  1.
         11   -1    0    0    0    0 -0.00000000000E+00 -0.00000000000E+00 -0.45593999997E+02  0.45594000000E+02  0.51100000000E-03 0. -1.
    9900012    2    1    2    0    0  0.43842400633E+01 -0.29811974917E+02 -0.33483399482E+02  0.46142318184E+02  0.10000003857E+02 0.  0.
        -12    1    1    2    0    0 -0.43842400633E+01  0.29811974917E+02  0.33483399482E+02  0.45045681816E+02  0.00000000000E+00 0.  1.
         11    1    3    3    0    0  0.40785242893E+00 -0.52909436749E+01 -0.70100817591E+01  0.87921371182E+01  0.51100000000E-03 0. -1.
        -11    1    3    3    0    0 -0.17946424948E+01 -0.96948135182E+00 -0.27801401693E+01  0.34481611618E+01  0.51100000000E-03 0.  1.
        -12    1    3    3    0    0  0.57710301291E+01 -0.23551549890E+02 -0.23693177554E+02  0.33902019904E+02  0.00000000000E+00 0.  1.
</event>
<event>
 7    1  0.1538805E-008  0.4614232E+02  0.7816164E-02  0.1320468E+00
        -11   -1    0    0    0    0  0.00000000000E+00  0.00000000000E+00  0.45593999997E+02  0.45594000000E+02  0.51100000000E-03 0. -1.
         11   -1    0    0    0    0 -0.00000000000E+00 -0.00000000000E+00 -0.45593999997E+02  0.45594000000E+02  0.51100000000E-03 0.  1.
    9900012    2    1    2    0    0 -0.26825631698E+02  0.36136024348E+02 -0.19200884837E+01  0.46142317505E+02  0.99999976613E+01 0.  0.
        -12    1    1    2    0    0  0.26825631698E+02 -0.36136024348E+02  0.19200884837E+01  0.45045682495E+02  0.00000000000E+00 0.  1.
         11    1    3    3    0    0 -0.15790621368E+02  0.22821065438E+02 -0.19626372807E+01  0.27820796112E+02  0.51100000000E-03 0. -1.
        -11    1    3    3    0    0 -0.78799004917E+00  0.29700972791E+01  0.19453945732E+01  0.36368896700E+01  0.51100000000E-03 0.  1.
         12    1    3    3    0    0 -0.10247020281E+02  0.10344861631E+02 -0.19028457762E+01  0.14684631723E+02  0.00000000000E+00 0. -1.
</event>
<event>
 7    1  0.1538805E-008  0.4614232E+02  0.7816164E-02  0.1320468E+00
        -11   -1    0    0    0    0  0.00000000000E+00  0.00000000000E+00  0.45593999997E+02  0.45594000000E+02  0.51100000000E-03 0.  1.
         11   -1    0    0    0    0 -0.00000000000E+00 -0.00000000000E+00 -0.45593999997E+02  0.45594000000E+02  0.51100000000E-03 0. -1.
    9900012    2    1    2    0    0  0.19086576329E+02 -0.51831038801E+01 -0.40471613746E+02  0.46142317843E+02  0.10000000749E+02 0.  0.
        -12    1    1    2    0    0 -0.19086576329E+02  0.51831038801E+01  0.40471613746E+02  0.45045682157E+02  0.00000000000E+00 0.  1.
         11    1    3    3    0    0  0.44053893141E+01  0.15037182905E+01 -0.15636891736E+02  0.16315054616E+02  0.51100000000E-03 0. -1.
        -11    1    3    3    0    0  0.41718457543E+01 -0.31167391217E+01 -0.10276333333E+02  0.11520476847E+02  0.51100000000E-03 0.  1.
         12    1    3    3    0    0  0.10509341260E+02 -0.35700830489E+01 -0.14558388677E+02  0.18306786380E+02  0.00000000000E+00 0. -1.
</event>
<event>
 7    1  0.1538805E-008  0.4614232E+02  0.7816164E-02  0.1320468E+00
        -11   -1    0    0    0    0  0.00000000000E+00  0.00000000000E+00  0.45593999997E+02  0.45594000000E+02  0.51100000000E-03 0. -1.
         11   -1    0    0    0    0 -0.00000000000E+00 -0.00000000000E+00 -0.45593999997E+02  0.45594000000E+02  0.51100000000E-03 0.  1.
    9900012    2    1    2    0    0 -0.29510077252E+02  0.89861834092E+01  0.32825559710E+02  0.46142317389E+02  0.99999966036E+01 0.  0.
        -12    1    1    2    0    0  0.29510077252E+02 -0.89861834092E+01 -0.32825559710E+02  0.45045682611E+02  0.00000000000E+00 0.  1.
         11    1    3    3    0    0 -0.12466113756E+02  0.30408624580E+01  0.19561119186E+02  0.23394192030E+02  0.51100000000E-03 0. -1.
        -11    1    3    3    0    0 -0.11407495261E+02  0.49572581113E+01  0.10964256363E+02  0.16580719947E+02  0.51100000000E-03 0.  1.
         12    1    3    3    0    0 -0.56364682346E+01  0.98806283990E+00  0.23001841607E+01  0.61674054114E+01  0.00000000000E+00 0. -1.
</event>
<event>
 7    1  0.1538805E-008  0.4614232E+02  0.7816164E-02  0.1320468E+00
        -11   -1    0    0    0    0  0.00000000000E+00  0.00000000000E+00  0.45593999997E+02  0.45594000000E+02  0.51100000000E-03 0.  1.
         11   -1    0    0    0    0 -0.00000000000E+00 -0.00000000000E+00 -0.45593999997E+02  0.45594000000E+02  0.51100000000E-03 0. -1.
    9900012    2    1    2    0    0  0.82129369516E+01  0.14183343933E+02 -0.41958240706E+02  0.46142317170E+02  0.99999946120E+01 0.  0.
        -12    1    1    2    0    0 -0.82129369516E+01 -0.14183343933E+02  0.41958240706E+02  0.45045682830E+02  0.00000000000E+00 0.  1.
         11    1    3    3    0    0  0.85236898036E+00  0.23113343709E+01 -0.19881025721E+01  0.31656518367E+01  0.51100000000E-03 0. -1.
        -11    1    3    3    0    0  0.47156494614E+01  0.63568063932E+01 -0.31802195474E+02  0.32772335508E+02  0.51100000000E-03 0.  1.
        -12    1    3    3    0    0  0.26449185098E+01  0.55152031686E+01 -0.81679426591E+01  0.10204329826E+02  0.00000000000E+00 0.  1.
</event>
<event>
 7    1  0.1538805E-008  0.4614232E+02  0.7816164E-02  0.1320468E+00
        -11   -1    0    0    0    0  0.00000000000E+00  0.00000000000E+00  0.45593999997E+02  0.45594000000E+02  0.51100000000E-03 0.  1.
         11   -1    0    0    0    0 -0.00000000000E+00 -0.00000000000E+00 -0.45593999997E+02  0.45594000000E+02  0.51100000000E-03 0. -1.
    9900012    2    1    2    0    0 -0.23242004043E+01  0.43461558604E+02  0.11610533057E+02  0.46142318057E+02  0.10000002702E+02 0.  0.
        -12    1    1    2    0    0  0.23242004043E+01 -0.43461558604E+02 -0.11610533057E+02  0.45045681943E+02  0.00000000000E+00 0.  1.
         11    1    3    3    0    0 -0.23738235028E+01  0.48358623421E+01  0.38662473724E+01  0.66308726138E+01  0.51100000000E-03 0.  1.
        -11    1    3    3    0    0 -0.93173445097E+00  0.30242075344E+02  0.68602584572E+01  0.31024416136E+02  0.51100000000E-03 0. -1.
        -12    1    3    3    0    0  0.98135754955E+00  0.83836209181E+01  0.88402722704E+00  0.84870293081E+01  0.00000000000E+00 0.  1.
</event>
<event>
 7    1  0.1538805E-008  0.4614232E+02  0.7816164E-02  0.1320468E+00
        -11   -1    0    0    0    0  0.00000000000E+00  0.00000000000E+00  0.45593999997E+02  0.45594000000E+02  0.51100000000E-03 0. -1.
         11   -1    0    0    0    0 -0.00000000000E+00 -0.00000000000E+00 -0.45593999997E+02  0.45594000000E+02  0.51100000000E-03 0.  1.
    9900012    2    1    2    0    0 -0.20972130191E+02  0.38229681118E+02  0.11303747198E+02  0.46142318034E+02  0.10000002487E+02 0.  0.
        -12    1    1    2    0    0  0.20972130191E+02 -0.38229681118E+02 -0.11303747198E+02  0.45045681966E+02  0.00000000000E+00 0.  1.
         11    1    3    3    0    0 -0.10008706050E+02  0.25138399828E+02  0.67464884397E+01  0.27885990197E+02  0.51100000000E-03 0. -1.
        -11    1    3    3    0    0 -0.76921359766E+01  0.90961848634E+01  0.53022896800E+01  0.13039317891E+02  0.51100000000E-03 0.  1.
         12    1    3    3    0    0 -0.32712881640E+01  0.39950964260E+01 -0.74503092195E+00  0.52170099463E+01  0.00000000000E+00 0. -1.
</event>
<event>
 7    1  0.1538805E-008  0.4614232E+02  0.7816164E-02  0.1320468E+00
        -11   -1    0    0    0    0  0.00000000000E+00  0.00000000000E+00  0.45593999997E+02  0.45594000000E+02  0.51100000000E-03 0. -1.
         11   -1    0    0    0    0 -0.00000000000E+00 -0.00000000000E+00 -0.45593999997E+02  0.45594000000E+02  0.51100000000E-03 0.  1.
    9900012    2    1    2    0    0 -0.14635852345E+02  0.23119582361E+02  0.35782535108E+02  0.46142322281E+02  0.10000041213E+02 0.  0.
        -12    1    1    2    0    0  0.14635852345E+02 -0.23119582361E+02 -0.35782535108E+02  0.45045677719E+02  0.00000000000E+00 0.  1.
         11    1    3    3    0    0 -0.30459734985E+01  0.72852497226E+01  0.14701614350E+02  0.16688028129E+02  0.51100000000E-03 0. -1.
        -11    1    3    3    0    0 -0.32189152513E+01  0.85530727110E+01  0.69107354133E+01  0.11457518597E+02  0.51100000000E-03 0.  1.
         12    1    3    3    0    0 -0.83709635954E+01  0.72812599271E+01  0.14170185345E+02  0.17996775555E+02  0.00000000000E+00 0. -1.
</event>
<event>
 7    1  0.1538805E-008  0.4614232E+02  0.7816164E-02  0.1320468E+00
        -11   -1    0    0    0    0  0.00000000000E+00  0.00000000000E+00  0.45593999997E+02  0.45594000000E+02  0.51100000000E-03 0.  1.
         11   -1    0    0    0    0 -0.00000000000E+00 -0.00000000000E+00 -0.45593999997E+02  0.45594000000E+02  0.51100000000E-03 0. -1.
    9900012    2    1    2    0    0  0.41899488287E+02  0.57061224680E+01  0.15523742470E+02  0.46142317270E+02  0.99999955206E+01 0.  0.
        -12    1    1    2    0    0 -0.41899488287E+02 -0.57061224680E+01 -0.15523742470E+02  0.45045682730E+02  0.00000000000E+00 0.  1.
         11    1    3    3    0    0  0.20523968844E+01 -0.28546745616E+00 -0.54222305579E+00  0.21419222075E+01  0.51100000000E-03 0.  1.
        -11    1    3    3    0    0  0.24510730744E+02  0.38695885313E-01  0.97187151991E+01  0.26367230503E+02  0.51100000000E-03 0. -1.
        -12    1    3    3    0    0  0.15336360658E+02  0.59528940389E+01  0.63472503264E+01  0.17633164560E+02  0.00000000000E+00 0.  1.
</event>
<event>
 7    1  0.1538805E-008  0.4614232E+02  0.7816164E-02  0.1320468E+00
        -11   -1    0    0    0    0  0.00000000000E+00  0.00000000000E+00  0.45593999997E+02  0.45594000000E+02  0.51100000000E-03 0. -1.
         11   -1    0    0    0    0 -0.00000000000E+00 -0.00000000000E+00 -0.45593999997E+02  0.45594000000E+02  0.51100000000E-03 0.  1.
    9900012    2    1    2    0    0  0.84795458952E+01  0.27566721198E+01  0.44154406447E+02  0.46142317094E+02  0.99999939210E+01 0.  0.
        -12    1    1    2    0    0 -0.84795458952E+01 -0.27566721198E+01 -0.44154406447E+02  0.45045682906E+02  0.00000000000E+00 0.  1.
         11    1    3    3    0    0  0.38619120104E+01  0.60029998466E+00  0.24550870259E+02  0.24860007144E+02  0.51100000000E-03 0. -1.
        -11    1    3    3    0    0  0.33820931530E+01  0.32016453553E+01  0.60619842640E+01  0.76443927525E+01  0.51100000000E-03 0.  1.
         12    1    3    3    0    0  0.12355407318E+01 -0.10452732201E+01  0.13541551923E+02  0.13637917198E+02  0.00000000000E+00 0. -1.
</event>
<event>
 7    1  0.1538805E-008  0.4614231E+02  0.7816164E-02  0.1320468E+00
        -11   -1    0    0    0    0  0.00000000000E+00  0.00000000000E+00  0.45593999997E+02  0.45594000000E+02  0.51100000000E-03 0. -1.
         11   -1    0    0    0    0 -0.00000000000E+00 -0.00000000000E+00 -0.45593999997E+02  0.45594000000E+02  0.51100000000E-03 0.  1.
    9900012    2    1    2    0    0 -0.98667173808E+01  0.17168973776E+01  0.43918264486E+02  0.46142314259E+02  0.99999680619E+01 0.  0.
        -12    1    1    2    0    0  0.98667173808E+01 -0.17168973776E+01 -0.43918264486E+02  0.45045685741E+02  0.00000000000E+00 0.  1.
         11    1    3    3    0    0 -0.22938621753E+01 -0.47454904710E+00  0.17873470297E+02  0.18026312468E+02  0.51100000000E-03 0. -1.
        -11    1    3    3    0    0 -0.53649226478E+01 -0.21010435434E+01  0.14487770341E+02  0.15591416507E+02  0.51100000000E-03 0.  1.
        -12    1    3    3    0    0 -0.22079325577E+01  0.42924899681E+01  0.11557023848E+02  0.12524585283E+02  0.00000000000E+00 0.  1.
</event>
<event>
 7    1  0.1538805E-008  0.4614232E+02  0.7816164E-02  0.1320468E+00
        -11   -1    0    0    0    0  0.00000000000E+00  0.00000000000E+00  0.45593999997E+02  0.45594000000E+02  0.51100000000E-03 0. -1.
         11   -1    0    0    0    0 -0.00000000000E+00 -0.00000000000E+00 -0.45593999997E+02  0.45594000000E+02  0.51100000000E-03 0.  1.
    9900012    2    1    2    0    0 -0.19257297900E+02 -0.17575726080E+02  0.36733688099E+02  0.46142317510E+02  0.99999977085E+01 0.  0.
        -12    1    1    2    0    0  0.19257297900E+02  0.17575726080E+02 -0.36733688099E+02  0.45045682490E+02  0.00000000000E+00 0.  1.
         11    1    3    3    0    0 -0.79094613188E+00  0.99029942394E+00  0.14572046713E+01  0.19312520415E+01  0.51100000000E-03 0. -1.
        -11    1    3    3    0    0 -0.58113077689E+01 -0.41978939101E+01  0.12925560165E+02  0.14780518161E+02  0.51100000000E-03 0.  1.
         12    1    3    3    0    0 -0.12655043999E+02 -0.14368131594E+02  0.22350923263E+02  0.29430547308E+02  0.00000000000E+00 0. -1.
</event>
<event>
 7    1  0.1538805E-008  0.4614232E+02  0.7816164E-02  0.1320468E+00
        -11   -1    0    0    0    0  0.00000000000E+00  0.00000000000E+00  0.45593999997E+02  0.45594000000E+02  0.51100000000E-03 0.  1.
         11   -1    0    0    0    0 -0.00000000000E+00 -0.00000000000E+00 -0.45593999997E+02  0.45594000000E+02  0.51100000000E-03 0. -1.
    9900012    2    1    2    0    0  0.36015755667E+01  0.31662463425E+02 -0.31837564551E+02  0.46142318152E+02  0.10000003561E+02 0.  0.
        -12    1    1    2    0    0 -0.36015755667E+01 -0.31662463425E+02  0.31837564551E+02  0.45045681848E+02  0.00000000000E+00 0.  1.
         11    1    3    3    0    0  0.18010816930E+01  0.42689097853E+01 -0.36418447697E+01  0.58932605243E+01  0.51100000000E-03 0. -1.
        -11    1    3    3    0    0  0.47806245909E+01  0.19443240250E+02 -0.17493203379E+02  0.26587706325E+02  0.51100000000E-03 0.  1.
        -12    1    3    3    0    0 -0.29801307171E+01  0.79503133896E+01 -0.10702516402E+02  0.13661351303E+02  0.00000000000E+00 0.  1.
</event>
<event>
 7    1  0.1538805E-008  0.4614232E+02  0.7816164E-02  0.1320468E+00
        -11   -1    0    0    0    0  0.00000000000E+00  0.00000000000E+00  0.45593999997E+02  0.45594000000E+02  0.51100000000E-03 0.  1.
         11   -1    0    0    0    0 -0.00000000000E+00 -0.00000000000E+00 -0.45593999997E+02  0.45594000000E+02  0.51100000000E-03 0. -1.
    9900012    2    1    2    0    0  0.32821701326E+02 -0.21134665917E+02 -0.22476106715E+02  0.46142317028E+02  0.99999933187E+01 0.  0.
        -12    1    1    2    0    0 -0.32821701326E+02  0.21134665917E+02  0.22476106715E+02  0.45045682972E+02  0.00000000000E+00 0.  1.
         11    1    3    3    0    0  0.16361032326E+01 -0.70657955751E+00 -0.36193667373E+01  0.40343406275E+01  0.51100000000E-03 0. -1.
        -11    1    3    3    0    0  0.18423750632E+02 -0.89525627083E+01 -0.10546555898E+02  0.23039375164E+02  0.51100000000E-03 0.  1.
         12    1    3    3    0    0  0.12761847462E+02 -0.11475523651E+02 -0.83101840795E+01  0.19068601237E+02  0.00000000000E+00 0. -1.
</event>
<event>
 7    1  0.1538805E-008  0.4614232E+02  0.7816164E-02  0.1320468E+00
        -11   -1    0    0    0    0  0.00000000000E+00  0.00000000000E+00  0.45593999997E+02  0.45594000000E+02  0.51100000000E-03 0.  1.
         11   -1    0    0    0    0 -0.00000000000E+00 -0.00000000000E+00 -0.45593999997E+02  0.45594000000E+02  0.51100000000E-03 0. -1.
    9900012    2    1    2    0    0 -0.35332589108E+02  0.12794877840E+02 -0.24839741309E+02  0.46142317628E+02  0.99999987896E+01 0.  0.
        -12    1    1    2    0    0  0.35332589108E+02 -0.12794877840E+02  0.24839741309E+02  0.45045682372E+02  0.00000000000E+00 0.  1.
         11    1    3    3    0    0 -0.13360447386E+02  0.62686348835E+01 -0.80925485139E+01  0.16831122344E+02  0.51100000000E-03 0. -1.
        -11    1    3    3    0    0 -0.73648433481E+01  0.19027752788E+01 -0.16139678749E+01  0.77760120798E+01  0.51100000000E-03 0.  1.
         12    1    3    3    0    0 -0.14607298374E+02  0.46234676776E+01 -0.15133224920E+02  0.21535183205E+02  0.00000000000E+00 0. -1.
</event>
<event>
 7    1  0.1538805E-008  0.4614232E+02  0.7816164E-02  0.1320468E+00
        -11   -1    0    0    0    0  0.00000000000E+00  0.00000000000E+00  0.45593999997E+02  0.45594000000E+02  0.51100000000E-03 0. -1.
         11   -1    0    0    0    0 -0.00000000000E+00 -0.00000000000E+00 -0.45593999997E+02  0.45594000000E+02  0.51100000000E-03 0.  1.
    9900012    2    1    2    0    0 -0.28630716497E+00  0.21652691318E+02  0.39499272796E+02  0.46142316916E+02  0.99999922939E+01 0.  0.
        -12    1    1    2    0    0  0.28630716497E+00 -0.21652691318E+02 -0.39499272796E+02  0.45045683084E+02  0.00000000000E+00 0.  1.
         11    1    3    3    0    0  0.23981565385E+00  0.97615335727E+01  0.15350643640E+02  0.18193056633E+02  0.51100000000E-03 0. -1.
        -11    1    3    3    0    0 -0.35755857295E+00  0.39287763554E+01  0.20220800590E+01  0.44330508468E+01  0.51100000000E-03 0.  1.
        -12    1    3    3    0    0 -0.16856424587E+00  0.79623813901E+01  0.22126549097E+02  0.23516209436E+02  0.00000000000E+00 0.  1.
</event>
<event>
 7    1  0.1538805E-008  0.4614232E+02  0.7816164E-02  0.1320468E+00
        -11   -1    0    0    0    0  0.00000000000E+00  0.00000000000E+00  0.45593999997E+02  0.45594000000E+02  0.51100000000E-03 0.  1.
         11   -1    0    0    0    0 -0.00000000000E+00 -0.00000000000E+00 -0.45593999997E+02  0.45594000000E+02  0.51100000000E-03 0. -1.
    9900012    2    1    2    0    0  0.39655409340E+02  0.72548886893E+00 -0.21354988980E+02  0.46142318982E+02  0.10000011130E+02 0.  0.
        -12    1    1    2    0    0 -0.39655409340E+02 -0.72548886893E+00  0.21354988980E+02  0.45045681018E+02  0.00000000000E+00 0.  1.
         11    1    3    3    0    0  0.23056913786E+02  0.53873573739E-01 -0.17251040772E+02  0.28796225164E+02  0.51100000000E-03 0. -1.
        -11    1    3    3    0    0  0.15285316170E+02 -0.14051787140E+00 -0.34568949818E+01  0.15671973675E+02  0.51100000000E-03 0.  1.
         12    1    3    3    0    0  0.13131793846E+01  0.81213316659E+00 -0.64705322643E+00  0.16741201433E+01  0.00000000000E+00 0. -1.
</event>
<event>
 7    1  0.1538805E-008  0.4614232E+02  0.7816164E-02  0.1320468E+00
        -11   -1    0    0    0    0  0.00000000000E+00  0.00000000000E+00  0.45593999997E+02  0.45594000000E+02  0.51100000000E-03 0. -1.
         11   -1    0    0    0    0 -0.00000000000E+00 -0.00000000000E+00 -0.45593999997E+02  0.45594000000E+02  0.51100000000E-03 0.  1.
    9900012    2    1    2    0    0  0.39901137756E+02 -0.20520595274E+02  0.39896433937E+01  0.46142324525E+02  0.10000061675E+02 0.  0.
        -12    1    1    2    0    0 -0.39901137756E+02  0.20520595274E+02 -0.39896433937E+01  0.45045675475E+02  0.00000000000E+00 0.  1.
         11    1    3    3    0    0  0.27144312492E+02 -0.13503691431E+02 -0.92724921733E-01  0.30317849217E+02  0.51100000000E-03 0. -1.
        -11    1    3    3    0    0  0.57872340992E+01 -0.22427509988E+01  0.39853486149E+01  0.73759754884E+01  0.51100000000E-03 0.  1.
        -12    1    3    3    0    0  0.69695911643E+01 -0.47741528446E+01  0.97019700522E-01  0.84484998196E+01  0.00000000000E+00 0.  1.
</event>
<event>
 7    1  0.1538805E-008  0.4614232E+02  0.7816164E-02  0.1320468E+00
        -11   -1    0    0    0    0  0.00000000000E+00  0.00000000000E+00  0.45593999997E+02  0.45594000000E+02  0.51100000000E-03 0.  1.
         11   -1    0    0    0    0 -0.00000000000E+00 -0.00000000000E+00 -0.45593999997E+02  0.45594000000E+02  0.51100000000E-03 0. -1.
    9900012    2    1    2    0    0 -0.43230685452E+02  0.19727579519E+01 -0.12503182434E+02  0.46142317526E+02  0.99999978591E+01 0.  0.
        -12    1    1    2    0    0  0.43230685452E+02 -0.19727579519E+01  0.12503182434E+02  0.45045682474E+02  0.00000000000E+00 0.  1.
         11    1    3    3    0    0 -0.71967796381E+01  0.35978292590E+00 -0.38101928363E+01  0.81511134592E+01  0.51100000000E-03 0. -1.
        -11    1    3    3    0    0 -0.44946870300E+01 -0.24921470451E+01 -0.18175982090E+01  0.54513000195E+01  0.51100000000E-03 0.  1.
         12    1    3    3    0    0 -0.31539218783E+02  0.41051220711E+01 -0.68753913885E+01  0.32539904048E+02  0.00000000000E+00 0. -1.
</event>
<event>
 7    1  0.1538805E-008  0.4614232E+02  0.7816164E-02  0.1320468E+00
        -11   -1    0    0    0    0  0.00000000000E+00  0.00000000000E+00  0.45593999997E+02  0.45594000000E+02  0.51100000000E-03 0. -1.
         11   -1    0    0    0    0 -0.00000000000E+00 -0.00000000000E+00 -0.45593999997E+02  0.45594000000E+02  0.51100000000E-03 0.  1.
    9900012    2    1    2    0    0  0.11960190059E+02 -0.39219052842E+02 -0.18652961445E+02  0.46142320710E+02  0.10000026888E+02 0.  0.
        -12    1    1    2    0    0 -0.11960190059E+02  0.39219052842E+02  0.18652961445E+02  0.45045679290E+02  0.00000000000E+00 0.  1.
         11    1    3    3    0    0  0.18256194554E+01 -0.10829892203E+02 -0.13510160104E+01  0.11065473151E+02  0.51100000000E-03 0. -1.
        -11    1    3    3    0    0  0.71425935637E+01 -0.12979267105E+02 -0.84774532989E+01  0.17068838042E+02  0.51100000000E-03 0.  1.
         12    1    3    3    0    0  0.29919770400E+01 -0.15409893534E+02 -0.88244921352E+01  0.18008009517E+02  0.00000000000E+00 0. -1.
</event>
<event>
 7    1  0.1538805E-008  0.4614232E+02  0.7816164E-02  0.1320468E+00
        -11   -1    0    0    0    0  0.00000000000E+00  0.00000000000E+00  0.45593999997E+02  0.45594000000E+02  0.51100000000E-03 0.  1.
         11   -1    0    0    0    0 -0.00000000000E+00 -0.00000000000E+00 -0.45593999997E+02  0.45594000000E+02  0.51100000000E-03 0. -1.
    9900012    2    1    2    0    0 -0.35963834998E+02 -0.16374592988E+02 -0.21623795706E+02  0.46142320252E+02  0.10000022710E+02 0.  0.
        -12    1    1    2    0    0  0.35963834998E+02  0.16374592988E+02  0.21623795706E+02  0.45045679748E+02  0.00000000000E+00 0.  1.
         11    1    3    3    0    0 -0.19888588436E+02 -0.83045096272E+01 -0.14726459673E+02  0.26103437415E+02  0.51100000000E-03 0. -1.
        -11    1    3    3    0    0 -0.12205585712E+02 -0.32505239215E+01 -0.44732225951E+01  0.13399699585E+02  0.51100000000E-03 0.  1.
        -12    1    3    3    0    0 -0.38696608502E+01 -0.48195594395E+01 -0.24241134379E+01  0.66391832514E+01  0.00000000000E+00 0.  1.
</event>
<event>
 7    1  0.1538805E-008  0.4614232E+02  0.7816164E-02  0.1320468E+00
        -11   -1    0    0    0    0  0.00000000000E+00  0.00000000000E+00  0.45593999997E+02  0.45594000000E+02  0.51100000000E-03 0.  1.
         11   -1    0    0    0    0 -0.00000000000E+00 -0.00000000000E+00 -0.45593999997E+02  0.45594000000E+02  0.51100000000E-03 0. -1.
    9900012    2    1    2    0    0 -0.16461266231E+02  0.41929603197E+02  0.22035275661E+00  0.46142318015E+02  0.10000002312E+02 0.  0.
        -12    1    1    2    0    0  0.16461266231E+02 -0.41929603197E+02 -0.22035275661E+00  0.45045681985E+02  0.00000000000E+00 0.  1.
         11    1    3    3    0    0 -0.72203555268E+01  0.13298935460E+02  0.27050004873E+01  0.15372450884E+02  0.51100000000E-03 0. -1.
        -11    1    3    3    0    0 -0.12882674934E+01  0.90178897829E+00 -0.10432541331E+01  0.18871237223E+01  0.51100000000E-03 0.  1.
         12    1    3    3    0    0 -0.79526432105E+01  0.27728878759E+02 -0.14413935976E+01  0.28882743408E+02  0.00000000000E+00 0. -1.
</event>
<event>
 7    1  0.1538805E-008  0.4614232E+02  0.7816164E-02  0.1320468E+00
        -11   -1    0    0    0    0  0.00000000000E+00  0.00000000000E+00  0.45593999997E+02  0.45594000000E+02  0.51100000000E-03 0. -1.
         11   -1    0    0    0    0 -0.00000000000E+00 -0.00000000000E+00 -0.45593999997E+02  0.45594000000E+02  0.51100000000E-03 0.  1.
    9900012    2    1    2    0    0 -0.29835558902E+02  0.95563534956E+01  0.32367096142E+02  0.46142318967E+02  0.10000010994E+02 0.  0.
        -12    1    1    2    0    0  0.29835558902E+02 -0.95563534956E+01 -0.32367096142E+02  0.45045681033E+02  0.00000000000E+00 0.  1.
         11    1    3    3    0    0 -0.86964063599E+01  0.31967995543E+01  0.12783523548E+02  0.15788143828E+02  0.51100000000E-03 0. -1.
        -11    1    3    3    0    0  0.57103080620E+00  0.79320549912E-02  0.45245140983E+00  0.72859566188E+00  0.51100000000E-03 0.  1.
        -12    1    3    3    0    0 -0.21710183348E+02  0.63516218863E+01  0.19131121184E+02  0.29625579477E+02  0.00000000000E+00 0.  1.
</event>
<event>
 7    1  0.1538805E-008  0.4614232E+02  0.7816164E-02  0.1320468E+00
        -11   -1    0    0    0    0  0.00000000000E+00  0.00000000000E+00  0.45593999997E+02  0.45594000000E+02  0.51100000000E-03 0.  1.
         11   -1    0    0    0    0 -0.00000000000E+00 -0.00000000000E+00 -0.45593999997E+02  0.45594000000E+02  0.51100000000E-03 0. -1.
    9900012    2    1    2    0    0  0.34078981909E+02 -0.42253681589E+01 -0.29152748153E+02  0.46142317977E+02  0.10000001971E+02 0.  0.
        -12    1    1    2    0    0 -0.34078981909E+02  0.42253681589E+01  0.29152748153E+02  0.45045682023E+02  0.00000000000E+00 0.  1.
         11    1    3    3    0    0  0.97123283868E+01 -0.76545565059E+00 -0.13263934008E+02  0.16457435726E+02  0.51100000000E-03 0. -1.
        -11    1    3    3    0    0  0.19744956080E+02 -0.25189988201E+01 -0.14904657745E+02  0.24866794494E+02  0.51100000000E-03 0.  1.
        -12    1    3    3    0    0  0.46216974423E+01 -0.94091368824E+00 -0.98415639987E+00  0.48180877572E+01  0.00000000000E+00 0.  1.
</event>
<event>
 7    1  0.1538805E-008  0.4614232E+02  0.7816164E-02  0.1320468E+00
        -11   -1    0    0    0    0  0.00000000000E+00  0.00000000000E+00  0.45593999997E+02  0.45594000000E+02  0.51100000000E-03 0.  1.
         11   -1    0    0    0    0 -0.00000000000E+00 -0.00000000000E+00 -0.45593999997E+02  0.45594000000E+02  0.51100000000E-03 0. -1.
    9900012    2    1    2    0    0  0.39498752496E+02 -0.13245099077E+02 -0.17132699465E+02  0.46142317751E+02  0.99999999122E+01 0.  0.
        -12    1    1    2    0    0 -0.39498752496E+02  0.13245099077E+02  0.17132699465E+02  0.45045682249E+02  0.00000000000E+00 0.  1.
         11    1    3    3    0    0  0.17434029847E+02 -0.31947588887E+01 -0.88946637961E+01  0.19830958760E+02  0.51100000000E-03 0. -1.
        -11    1    3    3    0    0 -0.27858218760E+00 -0.46433405258E+00 -0.64125466202E+00  0.83929848701E+00  0.51100000000E-03 0.  1.
         12    1    3    3    0    0  0.22343304837E+02 -0.95860061355E+01 -0.75967810072E+01  0.25472060504E+02  0.00000000000E+00 0. -1.
</event>
<event>
 7    1  0.1538805E-008  0.4614232E+02  0.7816164E-02  0.1320468E+00
        -11   -1    0    0    0    0  0.00000000000E+00  0.00000000000E+00  0.45593999997E+02  0.45594000000E+02  0.51100000000E-03 0.  1.
         11   -1    0    0    0    0 -0.00000000000E+00 -0.00000000000E+00 -0.45593999997E+02  0.45594000000E+02  0.51100000000E-03 0. -1.
    9900012    2    1    2    0    0  0.30179486246E+02  0.29940752266E+02 -0.14895083666E+02  0.46142317035E+02  0.99999933828E+01 0.  0.
        -12    1    1    2    0    0 -0.30179486246E+02 -0.29940752266E+02  0.14895083666E+02  0.45045682965E+02  0.00000000000E+00 0.  1.
         11    1    3    3    0    0  0.68725354607E+00  0.41205548048E+01 -0.81957004471E+00  0.42571098946E+01  0.51100000000E-03 0. -1.
        -11    1    3    3    0    0  0.27729991502E+01  0.13722998106E+01 -0.19512975597E+00  0.31001301489E+01  0.51100000000E-03 0.  1.
         12    1    3    3    0    0  0.26719233550E+02  0.24447897650E+02 -0.13880383865E+02  0.38785076992E+02  0.00000000000E+00 0. -1.
</event>
<event>
 7    1  0.1538805E-008  0.4614232E+02  0.7816164E-02  0.1320468E+00
        -11   -1    0    0    0    0  0.00000000000E+00  0.00000000000E+00  0.45593999997E+02  0.45594000000E+02  0.51100000000E-03 0. -1.
         11   -1    0    0    0    0 -0.00000000000E+00 -0.00000000000E+00 -0.45593999997E+02  0.45594000000E+02  0.51100000000E-03 0.  1.
    9900012    2    1    2    0    0 -0.45044123469E+02 -0.15109774537E+00 -0.34282001406E+00  0.46142318574E+02  0.10000007411E+02 0.  0.
        -12    1    1    2    0    0  0.45044123469E+02  0.15109774537E+00  0.34282001406E+00  0.45045681426E+02  0.00000000000E+00 0.  1.
         11    1    3    3    0    0 -0.37735236953E+02  0.21636344444E+01 -0.31578725755E+01  0.37928901663E+02  0.51100000000E-03 0. -1.
        -11    1    3    3    0    0 -0.48832943978E+01 -0.18933529275E+01  0.21633785793E+01  0.56667059764E+01  0.51100000000E-03 0.  1.
         12    1    3    3    0    0 -0.24255921182E+01 -0.42137926221E+00  0.65167398207E+00  0.25467109348E+01  0.00000000000E+00 0. -1.
</event>
<event>
 7    1  0.1538805E-008  0.4614232E+02  0.7816164E-02  0.1320468E+00
        -11   -1    0    0    0    0  0.00000000000E+00  0.00000000000E+00  0.45593999997E+02  0.45594000000E+02  0.51100000000E-03 0. -1.
         11   -1    0    0    0    0 -0.00000000000E+00 -0.00000000000E+00 -0.45593999997E+02  0.45594000000E+02  0.51100000000E-03 0.  1.
    9900012    2    1    2    0    0 -0.81575557954E+01 -0.42481961724E+02  0.12563859969E+02  0.46142319122E+02  0.10000012407E+02 0.  0.
        -12    1    1    2    0    0  0.81575557954E+01  0.42481961724E+02 -0.12563859969E+02  0.45045680878E+02  0.00000000000E+00 0.  1.
         11    1    3    3    0    0  0.11860121488E+01 -0.27677157693E+01 -0.57153917894E+00  0.30648870601E+01  0.51100000000E-03 0. -1.
        -11    1    3    3    0    0 -0.64499088686E-01 -0.15538342240E+00 -0.24611177972E+00  0.29811979075E+00  0.51100000000E-03 0.  1.
         12    1    3    3    0    0 -0.92790688555E+01 -0.39558862532E+02  0.13381510927E+02  0.42779312271E+02  0.00000000000E+00 0. -1.
</event>
<event>
 7    1  0.1538805E-008  0.4614232E+02  0.7816164E-02  0.1320468E+00
        -11   -1    0    0    0    0  0.00000000000E+00  0.00000000000E+00  0.45593999997E+02  0.45594000000E+02  0.51100000000E-03 0. -1.
         11   -1    0    0    0    0 -0.00000000000E+00 -0.00000000000E+00 -0.45593999997E+02  0.45594000000E+02  0.51100000000E-03 0.  1.
    9900012    2    1    2    0    0  0.25490201388E+02 -0.35200516302E+02  0.11844268511E+02  0.46142318617E+02  0.10000007804E+02 0.  0.
        -12    1    1    2    0    0 -0.25490201388E+02  0.35200516302E+02 -0.11844268511E+02  0.45045681383E+02  0.00000000000E+00 0.  1.
         11    1    3    3    0    0  0.14341176487E+02 -0.16356640681E+02  0.86264930047E+01  0.23401397805E+02  0.51100000000E-03 0. -1.
        -11    1    3    3    0    0  0.11316129062E+02 -0.18488789494E+02  0.38309974026E+01  0.22012874761E+02  0.51100000000E-03 0.  1.
         12    1    3    3    0    0 -0.16710416067E+00 -0.35508612692E+00 -0.61322189643E+00  0.72804605095E+00  0.00000000000E+00 0. -1.
</event>
<event>
 7    1  0.1538805E-008  0.4614232E+02  0.7816164E-02  0.1320468E+00
        -11   -1    0    0    0    0  0.00000000000E+00  0.00000000000E+00  0.45593999997E+02  0.45594000000E+02  0.51100000000E-03 0.  1.
         11   -1    0    0    0    0 -0.00000000000E+00 -0.00000000000E+00 -0.45593999997E+02  0.45594000000E+02  0.51100000000E-03 0. -1.
    9900012    2    1    2    0    0  0.34862137094E+00 -0.91621569635E+01 -0.44102684981E+02  0.46142317858E+02  0.10000000886E+02 0.  0.
        -12    1    1    2    0    0 -0.34862137094E+00  0.91621569635E+01  0.44102684981E+02  0.45045682142E+02  0.00000000000E+00 0.  1.
         11    1    3    3    0    0  0.87300952109E+00 -0.64638522015E+01 -0.29067302372E+02  0.29790125853E+02  0.51100000000E-03 0. -1.
        -11    1    3    3    0    0  0.56624146752E+00  0.34233613892E+00  0.26629392871E+00  0.71325742137E+00  0.51100000000E-03 0.  1.
        -12    1    3    3    0    0 -0.10906296177E+01 -0.30406409009E+01 -0.15301676538E+02  0.15638934584E+02  0.00000000000E+00 0.  1.
</event>
<event>
 7    1  0.1538805E-008  0.4614232E+02  0.7816164E-02  0.1320468E+00
        -11   -1    0    0    0    0  0.00000000000E+00  0.00000000000E+00  0.45593999997E+02  0.45594000000E+02  0.51100000000E-03 0.  1.
         11   -1    0    0    0    0 -0.00000000000E+00 -0.00000000000E+00 -0.45593999997E+02  0.45594000000E+02  0.51100000000E-03 0. -1.
    9900012    2    1    2    0    0 -0.15989468598E+02 -0.17554502995E+02 -0.38279099537E+02  0.46142321597E+02  0.10000034978E+02 0.  0.
        -12    1    1    2    0    0  0.15989468598E+02  0.17554502995E+02  0.38279099537E+02  0.45045678403E+02  0.00000000000E+00 0.  1.
         11    1    3    3    0    0 -0.16517535531E+01 -0.52779071089E+01 -0.40562146974E+01  0.68583869228E+01  0.51100000000E-03 0. -1.
        -11    1    3    3    0    0 -0.13771579469E+02 -0.12572988330E+02 -0.33010540026E+02  0.37913482954E+02  0.51100000000E-03 0.  1.
        -12    1    3    3    0    0 -0.56613557521E+00  0.29639244406E+00 -0.12123448132E+01  0.13704517199E+01  0.00000000000E+00 0.  1.
</event>
<event>
 7    1  0.1538805E-008  0.4614232E+02  0.7816164E-02  0.1320468E+00
        -11   -1    0    0    0    0  0.00000000000E+00  0.00000000000E+00  0.45593999997E+02  0.45594000000E+02  0.51100000000E-03 0. -1.
         11   -1    0    0    0    0 -0.00000000000E+00 -0.00000000000E+00 -0.45593999997E+02  0.45594000000E+02  0.51100000000E-03 0.  1.
    9900012    2    1    2    0    0  0.13640000606E+02 -0.30022653666E+02 -0.30687198865E+02  0.46142317367E+02  0.99999964030E+01 0.  0.
        -12    1    1    2    0    0 -0.13640000606E+02  0.30022653666E+02  0.30687198865E+02  0.45045682633E+02  0.00000000000E+00 0.  1.
         11    1    3    3    0    0  0.47648602026E+01 -0.18473455771E+02 -0.20493879774E+02  0.27999492305E+02  0.51100000000E-03 0. -1.
        -11    1    3    3    0    0  0.12830809477E+01 -0.30812232158E+00 -0.16466850134E+01  0.21101677369E+01  0.51100000000E-03 0.  1.
         12    1    3    3    0    0  0.75920594561E+01 -0.11241075573E+02 -0.85466340779E+01  0.16032657325E+02  0.00000000000E+00 0. -1.
</event>
<event>
 7    1  0.1538805E-008  0.4614232E+02  0.7816164E-02  0.1320468E+00
        -11   -1    0    0    0    0  0.00000000000E+00  0.00000000000E+00  0.45593999997E+02  0.45594000000E+02  0.51100000000E-03 0.  1.
         11   -1    0    0    0    0 -0.00000000000E+00 -0.00000000000E+00 -0.45593999997E+02  0.45594000000E+02  0.51100000000E-03 0. -1.
    9900012    2    1    2    0    0 -0.32369478341E+02 -0.92115947371E+01 -0.29941224946E+02  0.46142317000E+02  0.99999930559E+01 0.  0.
        -12    1    1    2    0    0  0.32369478341E+02  0.92115947371E+01  0.29941224946E+02  0.45045683000E+02  0.00000000000E+00 0.  1.
         11    1    3    3    0    0 -0.43502381588E+01  0.47436733289E+00 -0.57983388119E+01  0.72643189387E+01  0.51100000000E-03 0. -1.
        -11    1    3    3    0    0 -0.55716000313E+01  0.29659876343E+00 -0.24105044363E+01  0.60779297161E+01  0.51100000000E-03 0.  1.
        -12    1    3    3    0    0 -0.22447640151E+02 -0.99825608334E+01 -0.21732381698E+02  0.32800068345E+02  0.00000000000E+00 0.  1.
</event>
<event>
 7    1  0.1538805E-008  0.4614232E+02  0.7816164E-02  0.1320468E+00
        -11   -1    0    0    0    0  0.00000000000E+00  0.00000000000E+00  0.45593999997E+02  0.45594000000E+02  0.51100000000E-03 0.  1.
         11   -1    0    0    0    0 -0.00000000000E+00 -0.00000000000E+00 -0.45593999997E+02  0.45594000000E+02  0.51100000000E-03 0. -1.
    9900012    2    1    2    0    0 -0.83655293387E+01  0.32200349897E+02 -0.30368880585E+02  0.46142317381E+02  0.99999965376E+01 0.  0.
        -12    1    1    2    0    0  0.83655293387E+01 -0.32200349897E+02  0.30368880585E+02  0.45045682619E+02  0.00000000000E+00 0.  1.
         11    1    3    3    0    0 -0.64591974128E+01  0.25166953004E+02 -0.26272539642E+02  0.36950549309E+02  0.51100000000E-03 0. -1.
        -11    1    3    3    0    0 -0.25134565471E+00  0.99901276477E+00  0.75249008313E+00  0.12757126356E+01  0.51100000000E-03 0.  1.
         12    1    3    3    0    0 -0.16549862712E+01  0.60343841277E+01 -0.48488310262E+01  0.79160554369E+01  0.00000000000E+00 0. -1.
</event>
<event>
 7    1  0.1538805E-008  0.4614232E+02  0.7816164E-02  0.1320468E+00
        -11   -1    0    0    0    0  0.00000000000E+00  0.00000000000E+00  0.45593999997E+02  0.45594000000E+02  0.51100000000E-03 0.  1.
         11   -1    0    0    0    0 -0.00000000000E+00 -0.00000000000E+00 -0.45593999997E+02  0.45594000000E+02  0.51100000000E-03 0. -1.
    9900012    2    1    2    0    0 -0.16507663002E+02 -0.33530662357E+02 -0.25145680327E+02  0.46142317688E+02  0.99999993300E+01 0.  0.
        -12    1    1    2    0    0  0.16507663002E+02  0.33530662357E+02  0.25145680327E+02  0.45045682312E+02  0.00000000000E+00 0.  1.
         11    1    3    3    0    0 -0.15103423911E+02 -0.25231139426E+02 -0.22976563939E+02  0.37318176554E+02  0.51100000000E-03 0. -1.
        -11    1    3    3    0    0 -0.14122562139E+01 -0.66326399679E+01 -0.22779208361E+01  0.71536916452E+01  0.51100000000E-03 0.  1.
         12    1    3    3    0    0  0.80171225834E-02 -0.16668829631E+01  0.10880444868E+00  0.16704494889E+01  0.00000000000E+00 0. -1.
</event>
<event>
 7    1  0.1538805E-008  0.4614232E+02  0.7816164E-02  0.1320468E+00
        -11   -1    0    0    0    0  0.00000000000E+00  0.00000000000E+00  0.45593999997E+02  0.45594000000E+02  0.51100000000E-03 0.  1.
         11   -1    0    0    0    0 -0.00000000000E+00 -0.00000000000E+00 -0.45593999997E+02  0.45594000000E+02  0.51100000000E-03 0. -1.
    9900012    2    1    2    0    0 -0.40716655869E+02  0.12777139585E+02 -0.14422624105E+02  0.46142318218E+02  0.10000004168E+02 0.  0.
        -12    1    1    2    0    0  0.40716655869E+02 -0.12777139585E+02  0.14422624105E+02  0.45045681782E+02  0.00000000000E+00 0.  1.
         11    1    3    3    0    0 -0.20977584479E+02  0.55350297101E+01 -0.96359112161E+01  0.23739132033E+02  0.51100000000E-03 0. -1.
        -11    1    3    3    0    0 -0.35783047473E+01 -0.43961091417E+00 -0.24472288719E+01  0.43573446081E+01  0.51100000000E-03 0.  1.
         12    1    3    3    0    0 -0.16160766642E+02  0.76817207887E+01 -0.23394840173E+01  0.18045841577E+02  0.00000000000E+00 0. -1.
</event>
<event>
 7    1  0.1538805E-008  0.4614232E+02  0.7816164E-02  0.1320468E+00
        -11   -1    0    0    0    0  0.00000000000E+00  0.00000000000E+00  0.45593999997E+02  0.45594000000E+02  0.51100000000E-03 0. -1.
         11   -1    0    0    0    0 -0.00000000000E+00 -0.00000000000E+00 -0.45593999997E+02  0.45594000000E+02  0.51100000000E-03 0.  1.
    9900012    2    1    2    0    0 -0.37881630364E+02 -0.16479195184E+02  0.17959169190E+02  0.46142317066E+02  0.99999936648E+01 0.  0.
        -12    1    1    2    0    0  0.37881630364E+02  0.16479195184E+02 -0.17959169190E+02  0.45045682934E+02  0.00000000000E+00 0.  1.
         11    1    3    3    0    0 -0.43653444585E+01 -0.56244346145E+01  0.29923695550E+01  0.77230028350E+01  0.51100000000E-03 0. -1.
        -11    1    3    3    0    0 -0.40794093119E+01 -0.29082079838E+00  0.13302193643E+01  0.43006558674E+01  0.51100000000E-03 0.  1.
         12    1    3    3    0    0 -0.29436876594E+02 -0.10563939771E+02  0.13636580271E+02  0.34118658364E+02  0.00000000000E+00 0. -1.
</event>
<event>
 7    1  0.1538805E-008  0.4614232E+02  0.7816164E-02  0.1320468E+00
        -11   -1    0    0    0    0  0.00000000000E+00  0.00000000000E+00  0.45593999997E+02  0.45594000000E+02  0.51100000000E-03 0.  1.
         11   -1    0    0    0    0 -0.00000000000E+00 -0.00000000000E+00 -0.45593999997E+02  0.45594000000E+02  0.51100000000E-03 0. -1.
    9900012    2    1    2    0    0  0.63398825766E+01 -0.10838502207E+02 -0.43260215598E+02  0.46142317690E+02  0.99999993533E+01 0.  0.
        -12    1    1    2    0    0 -0.63398825766E+01  0.10838502207E+02  0.43260215598E+02  0.45045682310E+02  0.00000000000E+00 0.  1.
         11    1    3    3    0    0  0.34642279262E+01 -0.24820099738E+01 -0.18255757584E+02  0.18746571257E+02  0.51100000000E-03 0. -1.
        -11    1    3    3    0    0 -0.17428454569E+01 -0.46393364000E+01 -0.82594014388E+01  0.96321682350E+01  0.51100000000E-03 0.  1.
        -12    1    3    3    0    0  0.46185001072E+01 -0.37171558337E+01 -0.16745056575E+02  0.17763578199E+02  0.00000000000E+00 0.  1.
</event>
<event>
 7    1  0.1538805E-008  0.4614232E+02  0.7816164E-02  0.1320468E+00
        -11   -1    0    0    0    0  0.00000000000E+00  0.00000000000E+00  0.45593999997E+02  0.45594000000E+02  0.51100000000E-03 0.  1.
         11   -1    0    0    0    0 -0.00000000000E+00 -0.00000000000E+00 -0.45593999997E+02  0.45594000000E+02  0.51100000000E-03 0. -1.
    9900012    2    1    2    0    0 -0.25497268045E+02  0.18197252215E+02 -0.32370707724E+02  0.46142318914E+02  0.10000010517E+02 0.  0.
        -12    1    1    2    0    0  0.25497268045E+02 -0.18197252215E+02  0.32370707724E+02  0.45045681086E+02  0.00000000000E+00 0.  1.
         11    1    3    3    0    0 -0.14952270092E+02  0.78299275360E+01 -0.13994597052E+02  0.21925485012E+02  0.51100000000E-03 0. -1.
        -11    1    3    3    0    0 -0.34452244291E+01  0.11568794104E+01 -0.20506906599E+01  0.41729214923E+01  0.51100000000E-03 0.  1.
         12    1    3    3    0    0 -0.70997735246E+01  0.92104452682E+01 -0.16325420012E+02  0.20043912410E+02  0.00000000000E+00 0. -1.
</event>
<event>
 7    1  0.1538805E-008  0.4614232E+02  0.7816164E-02  0.1320468E+00
        -11   -1    0    0    0    0  0.00000000000E+00  0.00000000000E+00  0.45593999997E+02  0.45594000000E+02  0.51100000000E-03 0. -1.
         11   -1    0    0    0    0 -0.00000000000E+00 -0.00000000000E+00 -0.45593999997E+02  0.45594000000E+02  0.51100000000E-03 0.  1.
    9900012    2    1    2    0    0 -0.31921729868E+02 -0.31551273540E+02 -0.38254108650E+01  0.46142317986E+02  0.10000002054E+02 0.  0.
        -12    1    1    2    0    0  0.31921729868E+02  0.31551273540E+02  0.38254108650E+01  0.45045682014E+02  0.00000000000E+00 0.  1.
         11    1    3    3    0    0 -0.11805351718E+02 -0.60161351253E+01 -0.71452221407E+00  0.13269165508E+02  0.51100000000E-03 0. -1.
        -11    1    3    3    0    0 -0.10163275792E+02 -0.15613555526E+02 -0.25982006415E+01  0.18810261503E+02  0.51100000000E-03 0.  1.
        -12    1    3    3    0    0 -0.99531023590E+01 -0.99215828888E+01 -0.51268800951E+00  0.14062890975E+02  0.00000000000E+00 0.  1.
</event>
<event>
 7    1  0.1538805E-008  0.4614231E+02  0.7816164E-02  0.1320468E+00
        -11   -1    0    0    0    0  0.00000000000E+00  0.00000000000E+00  0.45593999997E+02  0.45594000000E+02  0.51100000000E-03 0.  1.
         11   -1    0    0    0    0 -0.00000000000E+00 -0.00000000000E+00 -0.45593999997E+02  0.45594000000E+02  0.51100000000E-03 0. -1.
    9900012    2    1    2    0    0 -0.14034256776E+02 -0.10177948786E+02 -0.41575989515E+02  0.46142313093E+02  0.99999574333E+01 0.  0.
        -12    1    1    2    0    0  0.14034256776E+02  0.10177948786E+02  0.41575989515E+02  0.45045686907E+02  0.00000000000E+00 0.  1.
         11    1    3    3    0    0 -0.72357927066E+01 -0.39550720759E+01 -0.16144760124E+02  0.18128777425E+02  0.51100000000E-03 0. -1.
        -11    1    3    3    0    0 -0.48393178785E+01  0.88104662271E-01 -0.13958095562E+02  0.14773462422E+02  0.51100000000E-03 0.  1.
        -12    1    3    3    0    0 -0.19591461909E+01 -0.63109813728E+01 -0.11473133829E+02  0.13240073246E+02  0.00000000000E+00 0.  1.
</event>
<event>
 7    1  0.1538805E-008  0.4614232E+02  0.7816164E-02  0.1320468E+00
        -11   -1    0    0    0    0  0.00000000000E+00  0.00000000000E+00  0.45593999997E+02  0.45594000000E+02  0.51100000000E-03 0.  1.
         11   -1    0    0    0    0 -0.00000000000E+00 -0.00000000000E+00 -0.45593999997E+02  0.45594000000E+02  0.51100000000E-03 0. -1.
    9900012    2    1    2    0    0  0.49704985999E+01 -0.24236297763E+02 -0.37643186372E+02  0.46142318011E+02  0.10000002282E+02 0.  0.
        -12    1    1    2    0    0 -0.49704985999E+01  0.24236297763E+02  0.37643186372E+02  0.45045681989E+02  0.00000000000E+00 0.  1.
         11    1    3    3    0    0  0.15921895957E+01 -0.25204589090E+01 -0.92075194027E+01  0.96781297074E+01  0.51100000000E-03 0. -1.
        -11    1    3    3    0    0 -0.15280824940E-01 -0.79537323676E+00 -0.41739317789E+01  0.42490656438E+01  0.51100000000E-03 0.  1.
         12    1    3    3    0    0  0.33935898291E+01 -0.20920465617E+02 -0.24261735191E+02  0.32215122660E+02  0.00000000000E+00 0. -1.
</event>
<event>
 7    1  0.1538805E-008  0.4614232E+02  0.7816164E-02  0.1320468E+00
        -11   -1    0    0    0    0  0.00000000000E+00  0.00000000000E+00  0.45593999997E+02  0.45594000000E+02  0.51100000000E-03 0.  1.
         11   -1    0    0    0    0 -0.00000000000E+00 -0.00000000000E+00 -0.45593999997E+02  0.45594000000E+02  0.51100000000E-03 0. -1.
    9900012    2    1    2    0    0 -0.10080691551E+02 -0.14657434775E+02 -0.41384208402E+02  0.46142318283E+02  0.10000004756E+02 0.  0.
        -12    1    1    2    0    0  0.10080691551E+02  0.14657434775E+02  0.41384208402E+02  0.45045681717E+02  0.00000000000E+00 0.  1.
         11    1    3    3    0    0 -0.19039754325E+01 -0.27667777547E+00 -0.30617528158E+01  0.36160757190E+01  0.51100000000E-03 0. -1.
        -11    1    3    3    0    0 -0.66794344180E+01 -0.57090292627E+01 -0.25525508816E+02  0.26995545185E+02  0.51100000000E-03 0.  1.
         12    1    3    3    0    0 -0.14972817007E+01 -0.86717277366E+01 -0.12796946770E+02  0.15530697379E+02  0.00000000000E+00 0. -1.
</event>
<event>
 7    1  0.1538805E-008  0.4614232E+02  0.7816164E-02  0.1320468E+00
        -11   -1    0    0    0    0  0.00000000000E+00  0.00000000000E+00  0.45593999997E+02  0.45594000000E+02  0.51100000000E-03 0.  1.
         11   -1    0    0    0    0 -0.00000000000E+00 -0.00000000000E+00 -0.45593999997E+02  0.45594000000E+02  0.51100000000E-03 0. -1.
    9900012    2    1    2    0    0 -0.10076942243E+02 -0.21276126607E+02 -0.38404357597E+02  0.46142323062E+02  0.10000048339E+02 0.  0.
        -12    1    1    2    0    0  0.10076942243E+02  0.21276126607E+02  0.38404357597E+02  0.45045676938E+02  0.00000000000E+00 0.  1.
         11    1    3    3    0    0 -0.16999786089E+01 -0.94739610071E+00 -0.93223112079E+00  0.21579021679E+01  0.51100000000E-03 0. -1.
        -11    1    3    3    0    0 -0.61030774151E+01 -0.84565306776E+01 -0.12803500149E+02  0.16513330414E+02  0.51100000000E-03 0.  1.
         12    1    3    3    0    0 -0.22738862187E+01 -0.11872199829E+02 -0.24668626327E+02  0.27471090481E+02  0.00000000000E+00 0. -1.
</event>
<event>
 7    1  0.1538805E-008  0.4614232E+02  0.7816164E-02  0.1320468E+00
        -11   -1    0    0    0    0  0.00000000000E+00  0.00000000000E+00  0.45593999997E+02  0.45594000000E+02  0.51100000000E-03 0.  1.
         11   -1    0    0    0    0 -0.00000000000E+00 -0.00000000000E+00 -0.45593999997E+02  0.45594000000E+02  0.51100000000E-03 0. -1.
    9900012    2    1    2    0    0  0.16049971209E+02 -0.21186236029E+02 -0.36368327014E+02  0.46142318934E+02  0.10000010697E+02 0.  0.
        -12    1    1    2    0    0 -0.16049971209E+02  0.21186236029E+02  0.36368327014E+02  0.45045681066E+02  0.00000000000E+00 0.  1.
         11    1    3    3    0    0  0.84172441631E+01 -0.88882836326E+01 -0.16626715668E+02  0.20647015751E+02  0.51100000000E-03 0. -1.
        -11    1    3    3    0    0  0.55788570449E+01 -0.84001057869E+01 -0.18237691192E+02  0.20839836934E+02  0.51100000000E-03 0.  1.
        -12    1    3    3    0    0  0.20538700013E+01 -0.38978466094E+01 -0.15039201538E+01  0.46554662496E+01  0.00000000000E+00 0.  1.
</event>
<event>
 7    1  0.1538805E-008  0.4614232E+02  0.7816164E-02  0.1320468E+00
        -11   -1    0    0    0    0  0.00000000000E+00  0.00000000000E+00  0.45593999997E+02  0.45594000000E+02  0.51100000000E-03 0.  1.
         11   -1    0    0    0    0 -0.00000000000E+00 -0.00000000000E+00 -0.45593999997E+02  0.45594000000E+02  0.51100000000E-03 0. -1.
    9900012    2    1    2    0    0  0.17180887111E+02 -0.22240444122E+02 -0.35203597601E+02  0.46142317402E+02  0.99999967229E+01 0.  0.
        -12    1    1    2    0    0 -0.17180887111E+02  0.22240444122E+02  0.35203597601E+02  0.45045682598E+02  0.00000000000E+00 0.  1.
         11    1    3    3    0    0  0.73496719228E+01 -0.14601657066E+02 -0.20081095699E+02  0.25893560419E+02  0.51100000000E-03 0. -1.
        -11    1    3    3    0    0  0.47038125003E+01 -0.41660913282E+01 -0.37994390670E+01  0.73428813471E+01  0.51100000000E-03 0.  1.
         12    1    3    3    0    0  0.51274026882E+01 -0.34726957274E+01 -0.11323062835E+02  0.12905875635E+02  0.00000000000E+00 0. -1.
</event>
<event>
 7    1  0.1538805E-008  0.4614232E+02  0.7816164E-02  0.1320468E+00
        -11   -1    0    0    0    0  0.00000000000E+00  0.00000000000E+00  0.45593999997E+02  0.45594000000E+02  0.51100000000E-03 0. -1.
         11   -1    0    0    0    0 -0.00000000000E+00 -0.00000000000E+00 -0.45593999997E+02  0.45594000000E+02  0.51100000000E-03 0.  1.
    9900012    2    1    2    0    0  0.26217501685E+02 -0.36199971894E+02  0.55962634073E+01  0.46142317367E+02  0.99999964087E+01 0.  0.
        -12    1    1    2    0    0 -0.26217501685E+02  0.36199971894E+02 -0.55962634073E+01  0.45045682633E+02  0.00000000000E+00 0.  1.
         11    1    3    3    0    0  0.83417512402E+01 -0.10648332684E+02  0.36717439963E+01  0.14016187318E+02  0.51100000000E-03 0. -1.
        -11    1    3    3    0    0  0.66356064661E+01 -0.44418865994E+01 -0.93672390246E+00  0.80398433856E+01  0.51100000000E-03 0.  1.
        -12    1    3    3    0    0  0.11240143979E+02 -0.21109752610E+02  0.28612433135E+01  0.24086286663E+02  0.00000000000E+00 0.  1.
</event>
<event>
 7    1  0.1538805E-008  0.4614232E+02  0.7816164E-02  0.1320468E+00
        -11   -1    0    0    0    0  0.00000000000E+00  0.00000000000E+00  0.45593999997E+02  0.45594000000E+02  0.51100000000E-03 0. -1.
         11   -1    0    0    0    0 -0.00000000000E+00 -0.00000000000E+00 -0.45593999997E+02  0.45594000000E+02  0.51100000000E-03 0.  1.
    9900012    2    1    2    0    0 -0.42262352929E+02  0.15503809039E+02  0.16244641013E+01  0.46142318149E+02  0.10000003537E+02 0.  0.
        -12    1    1    2    0    0  0.42262352929E+02 -0.15503809039E+02 -0.16244641013E+01  0.45045681851E+02  0.00000000000E+00 0.  1.
         11    1    3    3    0    0 -0.11275322492E+02  0.62704846899E+01  0.12486281360E+01  0.12961903719E+02  0.51100000000E-03 0. -1.
        -11    1    3    3    0    0 -0.19112574044E+02  0.40201750565E+01  0.34977218012E+01  0.19841530993E+02  0.51100000000E-03 0.  1.
        -12    1    3    3    0    0 -0.11874456393E+02  0.52131492929E+01 -0.31218858359E+01  0.13338883437E+02  0.00000000000E+00 0.  1.
</event>
<event>
 7    1  0.1538805E-008  0.4614232E+02  0.7816164E-02  0.1320468E+00
        -11   -1    0    0    0    0  0.00000000000E+00  0.00000000000E+00  0.45593999997E+02  0.45594000000E+02  0.51100000000E-03 0.  1.
         11   -1    0    0    0    0 -0.00000000000E+00 -0.00000000000E+00 -0.45593999997E+02  0.45594000000E+02  0.51100000000E-03 0. -1.
    9900012    2    1    2    0    0 -0.23516044606E+02 -0.61938954565E+01 -0.37917606102E+02  0.46142317106E+02  0.99999940261E+01 0.  0.
        -12    1    1    2    0    0  0.23516044606E+02  0.61938954565E+01  0.37917606102E+02  0.45045682894E+02  0.00000000000E+00 0.  1.
         11    1    3    3    0    0 -0.17046252765E+02 -0.18945638762E+01 -0.30894539628E+02  0.35336053610E+02  0.51100000000E-03 0. -1.
        -11    1    3    3    0    0 -0.38473266943E+01 -0.20099957087E+01 -0.22232764730E+01  0.48769830816E+01  0.51100000000E-03 0.  1.
         12    1    3    3    0    0 -0.26224651466E+01 -0.22893358717E+01 -0.47997900014E+01  0.59292804147E+01  0.00000000000E+00 0. -1.
</event>
<event>
 7    1  0.1538805E-008  0.4614232E+02  0.7816164E-02  0.1320468E+00
        -11   -1    0    0    0    0  0.00000000000E+00  0.00000000000E+00  0.45593999997E+02  0.45594000000E+02  0.51100000000E-03 0. -1.
         11   -1    0    0    0    0 -0.00000000000E+00 -0.00000000000E+00 -0.45593999997E+02  0.45594000000E+02  0.51100000000E-03 0.  1.
    9900012    2    1    2    0    0  0.22749634546E+01 -0.42489150654E+02  0.14785470339E+02  0.46142317464E+02  0.99999972907E+01 0.  0.
        -12    1    1    2    0    0 -0.22749634546E+01  0.42489150654E+02 -0.14785470339E+02  0.45045682536E+02  0.00000000000E+00 0.  1.
         11    1    3    3    0    0  0.20272126105E+01 -0.26669819537E+02  0.11685929627E+02  0.29188179398E+02  0.51100000000E-03 0. -1.
        -11    1    3    3    0    0  0.24353232889E+01 -0.12183750206E+02  0.22446651482E+01  0.12625889691E+02  0.51100000000E-03 0.  1.
         12    1    3    3    0    0 -0.21875724447E+01 -0.36355809107E+01  0.85487556408E+00  0.43282483743E+01  0.00000000000E+00 0. -1.
</event>
<event>
 7    1  0.1538805E-008  0.4614232E+02  0.7816164E-02  0.1320468E+00
        -11   -1    0    0    0    0  0.00000000000E+00  0.00000000000E+00  0.45593999997E+02  0.45594000000E+02  0.51100000000E-03 0.  1.
         11   -1    0    0    0    0 -0.00000000000E+00 -0.00000000000E+00 -0.45593999997E+02  0.45594000000E+02  0.51100000000E-03 0. -1.
    9900012    2    1    2    0    0 -0.16680662737E+02 -0.24970399443E+02 -0.33576006228E+02  0.46142317056E+02  0.99999935666E+01 0.  0.
        -12    1    1    2    0    0  0.16680662737E+02  0.24970399443E+02  0.33576006228E+02  0.45045682944E+02  0.00000000000E+00 0.  1.
         11    1    3    3    0    0 -0.68253531890E+01 -0.11754169713E+02 -0.20768612552E+02  0.24820983450E+02  0.51100000000E-03 0. -1.
        -11    1    3    3    0    0 -0.96837592969E+01 -0.11364486454E+02 -0.10059627162E+02  0.18003412048E+02  0.51100000000E-03 0.  1.
        -12    1    3    3    0    0 -0.17155025152E+00 -0.18517432765E+01 -0.27477665136E+01  0.33179215579E+01  0.00000000000E+00 0.  1.
</event>
<event>
 7    1  0.1845541E-008  0.4614232E+02  0.7816164E-02  0.1320468E+00
        -11   -1    0    0    0    0  0.00000000000E+00  0.00000000000E+00  0.45593999997E+02  0.45594000000E+02  0.51100000000E-03 0. -1.
         11   -1    0    0    0    0 -0.00000000000E+00 -0.00000000000E+00 -0.45593999997E+02  0.45594000000E+02  0.51100000000E-03 0.  1.
    9900012    2    1    2    0    0 -0.86063807228E+01  0.22140705290E+02  0.38273135726E+02  0.46142317209E+02  0.99999949611E+01 0.  0.
        -12    1    1    2    0    0  0.86063807228E+01 -0.22140705290E+02 -0.38273135726E+02  0.45045682791E+02  0.00000000000E+00 0.  1.
         11    1    3    3    0    0 -0.32010720159E+01  0.12695644516E+02  0.18537327855E+02  0.22694906388E+02  0.51100000000E-03 0. -1.
        -11    1    3    3    0    0 -0.38578910046E+01  0.18281662325E+01  0.10748908238E+02  0.11565662253E+02  0.51100000000E-03 0.  1.
        -12    1    3    3    0    0 -0.15474177023E+01  0.76168945416E+01  0.89868996325E+01  0.11881748567E+02  0.00000000000E+00 0.  1.
</event>
<event>
 7    1  0.1538805E-008  0.4614232E+02  0.7816164E-02  0.1320468E+00
        -11   -1    0    0    0    0  0.00000000000E+00  0.00000000000E+00  0.45593999997E+02  0.45594000000E+02  0.51100000000E-03 0.  1.
         11   -1    0    0    0    0 -0.00000000000E+00 -0.00000000000E+00 -0.45593999997E+02  0.45594000000E+02  0.51100000000E-03 0. -1.
    9900012    2    1    2    0    0  0.23680456250E+02  0.35316501704E+02 -0.14869236434E+02  0.46142317710E+02  0.99999995384E+01 0.  0.
        -12    1    1    2    0    0 -0.23680456250E+02 -0.35316501704E+02  0.14869236434E+02  0.45045682290E+02  0.00000000000E+00 0.  1.
         11    1    3    3    0    0  0.15440185261E+02  0.27608147718E+02 -0.10109150339E+02  0.33208493825E+02  0.51100000000E-03 0. -1.
        -11    1    3    3    0    0  0.57589095520E+01  0.29765076679E+01 -0.37722019092E+01  0.75002763036E+01  0.51100000000E-03 0.  1.
        -12    1    3    3    0    0  0.24813614367E+01  0.47318463178E+01 -0.98788418596E+00  0.54335475814E+01  0.00000000000E+00 0.  1.
</event>
<event>
 7    1  0.1538805E-008  0.4614232E+02  0.7816164E-02  0.1320468E+00
        -11   -1    0    0    0    0  0.00000000000E+00  0.00000000000E+00  0.45593999997E+02  0.45594000000E+02  0.51100000000E-03 0.  1.
         11   -1    0    0    0    0 -0.00000000000E+00 -0.00000000000E+00 -0.45593999997E+02  0.45594000000E+02  0.51100000000E-03 0. -1.
    9900012    2    1    2    0    0  0.12768630771E+02  0.30630161935E+02 -0.30460938297E+02  0.46142317478E+02  0.99999974192E+01 0.  0.
        -12    1    1    2    0    0 -0.12768630771E+02 -0.30630161935E+02  0.30460938297E+02  0.45045682522E+02  0.00000000000E+00 0.  1.
         11    1    3    3    0    0  0.66797022382E+01  0.14267394760E+02 -0.15211250669E+02  0.21898838380E+02  0.51100000000E-03 0. -1.
        -11    1    3    3    0    0 -0.54393292500E+00  0.53978943927E+01 -0.75371943246E+01  0.92866800015E+01  0.51100000000E-03 0.  1.
        -12    1    3    3    0    0  0.66328614577E+01  0.10964872783E+02 -0.77124933030E+01  0.14956799097E+02  0.00000000000E+00 0.  1.
</event>
<event>
 7    1  0.1538805E-008  0.4614232E+02  0.7816164E-02  0.1320468E+00
        -11   -1    0    0    0    0  0.00000000000E+00  0.00000000000E+00  0.45593999997E+02  0.45594000000E+02  0.51100000000E-03 0. -1.
         11   -1    0    0    0    0 -0.00000000000E+00 -0.00000000000E+00 -0.45593999997E+02  0.45594000000E+02  0.51100000000E-03 0.  1.
    9900012    2    1    2    0    0 -0.75121067332E+01 -0.19608264820E+02  0.39852198192E+02  0.46142317659E+02  0.99999990662E+01 0.  0.
        -12    1    1    2    0    0  0.75121067332E+01  0.19608264820E+02 -0.39852198192E+02  0.45045682341E+02  0.00000000000E+00 0.  1.
         11    1    3    3    0    0 -0.23800716247E+01 -0.42544975921E+01  0.10433860434E+02  0.11516550460E+02  0.51100000000E-03 0. -1.
        -11    1    3    3    0    0  0.15977678263E+01 -0.38605267933E+01  0.33617429958E+01  0.53626341829E+01  0.51100000000E-03 0.  1.
        -12    1    3    3    0    0 -0.67298029348E+01 -0.11493240435E+02  0.26056594763E+02  0.29263133015E+02  0.00000000000E+00 0.  1.
</event>
<event>
 7    1  0.1538805E-008  0.4614232E+02  0.7816164E-02  0.1320468E+00
        -11   -1    0    0    0    0  0.00000000000E+00  0.00000000000E+00  0.45593999997E+02  0.45594000000E+02  0.51100000000E-03 0.  1.
         11   -1    0    0    0    0 -0.00000000000E+00 -0.00000000000E+00 -0.45593999997E+02  0.45594000000E+02  0.51100000000E-03 0. -1.
    9900012    2    1    2    0    0  0.89880976006E+01  0.44069630884E+02 -0.24890520224E+01  0.46142316026E+02  0.99999841770E+01 0.  0.
        -12    1    1    2    0    0 -0.89880976006E+01 -0.44069630884E+02  0.24890520224E+01  0.45045683974E+02  0.00000000000E+00 0.  1.
         11    1    3    3    0    0  0.74393039249E+01  0.40476567587E+02 -0.45564050712E+01  0.41405997077E+02  0.51100000000E-03 0. -1.
        -11    1    3    3    0    0  0.18033167485E+01  0.27288084829E+01  0.11951583230E+01  0.34823484475E+01  0.51100000000E-03 0.  1.
         12    1    3    3    0    0 -0.25452307286E+00  0.86425481360E+00  0.87219472578E+00  0.12539705009E+01  0.00000000000E+00 0. -1.
</event>
<event>
 7    1  0.1538805E-008  0.4614232E+02  0.7816164E-02  0.1320468E+00
        -11   -1    0    0    0    0  0.00000000000E+00  0.00000000000E+00  0.45593999997E+02  0.45594000000E+02  0.51100000000E-03 0.  1.
         11   -1    0    0    0    0 -0.00000000000E+00 -0.00000000000E+00 -0.45593999997E+02  0.45594000000E+02  0.51100000000E-03 0. -1.
    9900012    2    1    2    0    0  0.27314976897E+02  0.18279536132E+02 -0.30803636687E+02  0.46142318328E+02  0.10000005173E+02 0.  0.
        -12    1    1    2    0    0 -0.27314976897E+02 -0.18279536132E+02  0.30803636687E+02  0.45045681672E+02  0.00000000000E+00 0.  1.
         11    1    3    3    0    0  0.21274563421E+02  0.14163761180E+02 -0.25248434359E+02  0.35926349903E+02  0.51100000000E-03 0. -1.
        -11    1    3    3    0    0  0.12932603484E+01 -0.96468816917E+00 -0.88816346625E+00  0.18417329330E+01  0.51100000000E-03 0.  1.
         12    1    3    3    0    0  0.47471531281E+01  0.50804631208E+01 -0.46670388625E+01  0.83742354927E+01  0.00000000000E+00 0. -1.
</event>
<event>
 7    1  0.1538805E-008  0.4614232E+02  0.7816164E-02  0.1320468E+00
        -11   -1    0    0    0    0  0.00000000000E+00  0.00000000000E+00  0.45593999997E+02  0.45594000000E+02  0.51100000000E-03 0.  1.
         11   -1    0    0    0    0 -0.00000000000E+00 -0.00000000000E+00 -0.45593999997E+02  0.45594000000E+02  0.51100000000E-03 0. -1.
    9900012    2    1    2    0    0  0.12197151491E+02  0.17282278852E+02 -0.39770162279E+02  0.46142317915E+02  0.10000001404E+02 0.  0.
        -12    1    1    2    0    0 -0.12197151491E+02 -0.17282278852E+02  0.39770162279E+02  0.45045682085E+02  0.00000000000E+00 0.  1.
         11    1    3    3    0    0  0.33705975202E+01  0.54032856663E+01 -0.15232323495E+02  0.16510000089E+02  0.51100000000E-03 0.  1.
        -11    1    3    3    0    0  0.47146793512E+01  0.90475923572E+01 -0.21474968364E+02  0.23775226505E+02  0.51100000000E-03 0. -1.
        -12    1    3    3    0    0  0.41118746192E+01  0.28314008285E+01 -0.30628704204E+01  0.58570913215E+01  0.00000000000E+00 0.  1.
</event>
<event>
 7    1  0.1538805E-008  0.4614232E+02  0.7816164E-02  0.1320468E+00
        -11   -1    0    0    0    0  0.00000000000E+00  0.00000000000E+00  0.45593999997E+02  0.45594000000E+02  0.51100000000E-03 0.  1.
         11   -1    0    0    0    0 -0.00000000000E+00 -0.00000000000E+00 -0.45593999997E+02  0.45594000000E+02  0.51100000000E-03 0. -1.
    9900012    2    1    2    0    0 -0.42746390743E+02  0.12807500147E+02 -0.61504087844E+01  0.46142317524E+02  0.99999978349E+01 0.  0.
        -12    1    1    2    0    0  0.42746390743E+02 -0.12807500147E+02  0.61504087844E+01  0.45045682476E+02  0.00000000000E+00 0.  1.
         11    1    3    3    0    0 -0.11929394769E+02  0.17792562170E+01 -0.34842167989E+01  0.12554520270E+02  0.51100000000E-03 0. -1.
        -11    1    3    3    0    0 -0.19694257316E+02  0.10492070358E+02 -0.24634398415E+01  0.22450297275E+02  0.51100000000E-03 0.  1.
        -12    1    3    3    0    0 -0.11122738657E+02  0.53617357195E+00 -0.20275214395E+00  0.11137499978E+02  0.00000000000E+00 0.  1.
</event>
<event>
 7    1  0.1538805E-008  0.4614232E+02  0.7816164E-02  0.1320468E+00
        -11   -1    0    0    0    0  0.00000000000E+00  0.00000000000E+00  0.45593999997E+02  0.45594000000E+02  0.51100000000E-03 0.  1.
         11   -1    0    0    0    0 -0.00000000000E+00 -0.00000000000E+00 -0.45593999997E+02  0.45594000000E+02  0.51100000000E-03 0. -1.
    9900012    2    1    2    0    0 -0.13125858755E+02  0.16810627814E+02 -0.39676543949E+02  0.46142317463E+02  0.99999972772E+01 0.  0.
        -12    1    1    2    0    0  0.13125858755E+02 -0.16810627814E+02  0.39676543949E+02  0.45045682537E+02  0.00000000000E+00 0.  1.
         11    1    3    3    0    0 -0.81196491779E+01  0.11142904988E+02 -0.33001852667E+02  0.35766119640E+02  0.51100000000E-03 0. -1.
        -11    1    3    3    0    0 -0.50780007281E+01  0.45318634729E+01 -0.56967843063E+01  0.88756537576E+01  0.51100000000E-03 0.  1.
         12    1    3    3    0    0  0.71791151337E-01  0.11358593531E+01 -0.97790697488E+00  0.15005440650E+01  0.00000000000E+00 0. -1.
</event>
<event>
 7    1  0.1538805E-008  0.4614232E+02  0.7816164E-02  0.1320468E+00
        -11   -1    0    0    0    0  0.00000000000E+00  0.00000000000E+00  0.45593999997E+02  0.45594000000E+02  0.51100000000E-03 0. -1.
         11   -1    0    0    0    0 -0.00000000000E+00 -0.00000000000E+00 -0.45593999997E+02  0.45594000000E+02  0.51100000000E-03 0.  1.
    9900012    2    1    2    0    0  0.29404108338E+02  0.24056945773E+02  0.24202795497E+02  0.46142317222E+02  0.99999950823E+01 0.  0.
        -12    1    1    2    0    0 -0.29404108338E+02 -0.24056945773E+02 -0.24202795497E+02  0.45045682778E+02  0.00000000000E+00 0.  1.
         11    1    3    3    0    0  0.14350479749E+01  0.40100967661E+01  0.10748430576E+01  0.43926673700E+01  0.51100000000E-03 0. -1.
        -11    1    3    3    0    0  0.12774700848E+02  0.91612023711E+01  0.76547043491E+01  0.17484710738E+02  0.51100000000E-03 0.  1.
         12    1    3    3    0    0  0.15194359515E+02  0.10885646636E+02  0.15473248090E+02  0.24264939114E+02  0.00000000000E+00 0. -1.
</event>
<event>
 7    1  0.1538805E-008  0.4614232E+02  0.7816164E-02  0.1320468E+00
        -11   -1    0    0    0    0  0.00000000000E+00  0.00000000000E+00  0.45593999997E+02  0.45594000000E+02  0.51100000000E-03 0.  1.
         11   -1    0    0    0    0 -0.00000000000E+00 -0.00000000000E+00 -0.45593999997E+02  0.45594000000E+02  0.51100000000E-03 0. -1.
    9900012    2    1    2    0    0  0.42277518620E+02 -0.45933382534E+01 -0.14853490346E+02  0.46142317494E+02  0.99999975618E+01 0.  0.
        -12    1    1    2    0    0 -0.42277518620E+02  0.45933382534E+01  0.14853490346E+02  0.45045682506E+02  0.00000000000E+00 0.  1.
         11    1    3    3    0    0  0.18251274927E+02 -0.68211509237E+01 -0.64259692103E+01  0.20516583949E+02  0.51100000000E-03 0. -1.
        -11    1    3    3    0    0  0.13320887141E+02  0.21132642352E+01 -0.43946809131E+01  0.14185384751E+02  0.51100000000E-03 0.  1.
        -12    1    3    3    0    0  0.10705356553E+02  0.11454843505E+00 -0.40328402227E+01  0.11440348794E+02  0.00000000000E+00 0.  1.
</event>
<event>
 7    1  0.1538805E-008  0.4614232E+02  0.7816164E-02  0.1320468E+00
        -11   -1    0    0    0    0  0.00000000000E+00  0.00000000000E+00  0.45593999997E+02  0.45594000000E+02  0.51100000000E-03 0.  1.
         11   -1    0    0    0    0 -0.00000000000E+00 -0.00000000000E+00 -0.45593999997E+02  0.45594000000E+02  0.51100000000E-03 0. -1.
    9900012    2    1    2    0    0  0.46504522588E+01 -0.18031220354E+02 -0.41016605228E+02  0.46142317431E+02  0.99999969877E+01 0.  0.
        -12    1    1    2    0    0 -0.46504522588E+01  0.18031220354E+02  0.41016605228E+02  0.45045682569E+02  0.00000000000E+00 0.  1.
         11    1    3    3    0    0  0.48854215963E+01 -0.16011923303E+02 -0.31344973904E+02  0.35535284174E+02  0.51100000000E-03 0. -1.
        -11    1    3    3    0    0  0.12200182524E+01 -0.10497969827E+01 -0.13411233891E+01  0.20950251662E+01  0.51100000000E-03 0.  1.
         12    1    3    3    0    0 -0.14549875899E+01 -0.96950006806E+00 -0.83305079357E+01  0.85120080907E+01  0.00000000000E+00 0. -1.
</event>
<event>
 7    1  0.1538805E-008  0.4614232E+02  0.7816164E-02  0.1320468E+00
        -11   -1    0    0    0    0  0.00000000000E+00  0.00000000000E+00  0.45593999997E+02  0.45594000000E+02  0.51100000000E-03 0.  1.
         11   -1    0    0    0    0 -0.00000000000E+00 -0.00000000000E+00 -0.45593999997E+02  0.45594000000E+02  0.51100000000E-03 0. -1.
    9900012    2    1    2    0    0  0.80655625983E+01 -0.38456579554E+02 -0.22026158236E+02  0.46142318102E+02  0.10000003111E+02 0.  0.
        -12    1    1    2    0    0 -0.80655625983E+01  0.38456579554E+02  0.22026158236E+02  0.45045681898E+02  0.00000000000E+00 0.  1.
         11    1    3    3    0    0  0.13490497465E+01 -0.91912238815E+01 -0.12887202236E+01  0.93786636433E+01  0.51100000000E-03 0.  1.
        -11    1    3    3    0    0  0.64577519425E+01 -0.28199498714E+02 -0.18692235792E+02  0.34442908807E+02  0.51100000000E-03 0. -1.
        -12    1    3    3    0    0  0.25876090927E+00 -0.10658569581E+01 -0.20452022196E+01  0.23207456523E+01  0.00000000000E+00 0.  1.
</event>
<event>
 7    1  0.1538805E-008  0.4614232E+02  0.7816164E-02  0.1320468E+00
        -11   -1    0    0    0    0  0.00000000000E+00  0.00000000000E+00  0.45593999997E+02  0.45594000000E+02  0.51100000000E-03 0.  1.
         11   -1    0    0    0    0 -0.00000000000E+00 -0.00000000000E+00 -0.45593999997E+02  0.45594000000E+02  0.51100000000E-03 0. -1.
    9900012    2    1    2    0    0 -0.43290162689E+02 -0.12385283968E+02 -0.12961567834E+01  0.46142317998E+02  0.10000002164E+02 0.  0.
        -12    1    1    2    0    0  0.43290162689E+02  0.12385283968E+02  0.12961567834E+01  0.45045682002E+02  0.00000000000E+00 0.  1.
         11    1    3    3    0    0 -0.28032982461E+01  0.13468213892E+01 -0.35751130034E+00  0.31305308658E+01  0.51100000000E-03 0. -1.
        -11    1    3    3    0    0 -0.51044641408E+01 -0.19474354793E+01  0.14170735906E+01  0.56441258786E+01  0.51100000000E-03 0.  1.
         12    1    3    3    0    0 -0.35382400302E+02 -0.11784669878E+02 -0.23557190736E+01  0.37367661254E+02  0.00000000000E+00 0. -1.
</event>
<event>
 7    1  0.1538805E-008  0.4614232E+02  0.7816164E-02  0.1320468E+00
        -11   -1    0    0    0    0  0.00000000000E+00  0.00000000000E+00  0.45593999997E+02  0.45594000000E+02  0.51100000000E-03 0.  1.
         11   -1    0    0    0    0 -0.00000000000E+00 -0.00000000000E+00 -0.45593999997E+02  0.45594000000E+02  0.51100000000E-03 0. -1.
    9900012    2    1    2    0    0 -0.48131639779E+01 -0.10546216730E+02 -0.43528431801E+02  0.46142316413E+02  0.99999877051E+01 0.  0.
        -12    1    1    2    0    0  0.48131639779E+01  0.10546216730E+02  0.43528431801E+02  0.45045683587E+02  0.00000000000E+00 0.  1.
         11    1    3    3    0    0 -0.71469331946E+01 -0.43899119981E+01 -0.28993066856E+02  0.30181913581E+02  0.51100000000E-03 0. -1.
        -11    1    3    3    0    0  0.15309072396E+01 -0.43004424255E+01 -0.97721130438E+01  0.10785716278E+02  0.51100000000E-03 0.  1.
         12    1    3    3    0    0  0.80286197711E+00 -0.18558623061E+01 -0.47632519014E+01  0.51746865537E+01  0.00000000000E+00 0. -1.
</event>
<event>
 7    1  0.1538805E-008  0.4614232E+02  0.7816164E-02  0.1320468E+00
        -11   -1    0    0    0    0  0.00000000000E+00  0.00000000000E+00  0.45593999997E+02  0.45594000000E+02  0.51100000000E-03 0. -1.
         11   -1    0    0    0    0 -0.00000000000E+00 -0.00000000000E+00 -0.45593999997E+02  0.45594000000E+02  0.51100000000E-03 0.  1.
    9900012    2    1    2    0    0 -0.39802946162E+02 -0.19047035123E+01  0.21005025050E+02  0.46142317676E+02  0.99999992281E+01 0.  0.
        -12    1    1    2    0    0  0.39802946162E+02  0.19047035123E+01 -0.21005025050E+02  0.45045682324E+02  0.00000000000E+00 0.  1.
         11    1    3    3    0    0 -0.26610482155E+02  0.78690221166E+00  0.17655602260E+02  0.31944596837E+02  0.51100000000E-03 0. -1.
        -11    1    3    3    0    0 -0.38978338601E+01 -0.16962049087E+01 -0.49457457221E-01  0.42511958546E+01  0.51100000000E-03 0.  1.
         12    1    3    3    0    0 -0.92946301469E+01 -0.99540081525E+00  0.33988802466E+01  0.99465249852E+01  0.00000000000E+00 0. -1.
</event>
<event>
 7    1  0.1538805E-008  0.4614232E+02  0.7816164E-02  0.1320468E+00
        -11   -1    0    0    0    0  0.00000000000E+00  0.00000000000E+00  0.45593999997E+02  0.45594000000E+02  0.51100000000E-03 0. -1.
         11   -1    0    0    0    0 -0.00000000000E+00 -0.00000000000E+00 -0.45593999997E+02  0.45594000000E+02  0.51100000000E-03 0.  1.
    9900012    2    1    2    0    0 -0.31381279188E+02 -0.16723651218E+02  0.27652275983E+02  0.46142316960E+02  0.99999926950E+01 0.  0.
        -12    1    1    2    0    0  0.31381279188E+02  0.16723651218E+02 -0.27652275983E+02  0.45045683040E+02  0.00000000000E+00 0.  1.
         11    1    3    3    0    0 -0.23147590664E+02 -0.15518483407E+02  0.20400680662E+02  0.34537256008E+02  0.51100000000E-03 0. -1.
        -11    1    3    3    0    0 -0.45975124231E+01  0.21204526978E-01  0.60200534808E+01  0.75748672784E+01  0.51100000000E-03 0.  1.
         12    1    3    3    0    0 -0.36361761006E+01 -0.12263723373E+01  0.12315418398E+01  0.40301936737E+01  0.00000000000E+00 0. -1.
</event>
<event>
 7    1  0.1538805E-008  0.4614232E+02  0.7816164E-02  0.1320468E+00
        -11   -1    0    0    0    0  0.00000000000E+00  0.00000000000E+00  0.45593999997E+02  0.45594000000E+02  0.51100000000E-03 0.  1.
         11   -1    0    0    0    0 -0.00000000000E+00 -0.00000000000E+00 -0.45593999997E+02  0.45594000000E+02  0.51100000000E-03 0. -1.
    9900012    2    1    2    0    0  0.26825875149E+02  0.29094715109E+02 -0.21517050321E+02  0.46142317862E+02  0.10000000915E+02 0.  0.
        -12    1    1    2    0    0 -0.26825875149E+02 -0.29094715109E+02  0.21517050321E+02  0.45045682138E+02  0.00000000000E+00 0.  1.
         11    1    3    3    0    0  0.15476946875E+02  0.14391773329E+02 -0.12100428517E+02  0.24353221444E+02  0.51100000000E-03 0. -1.
        -11    1    3    3    0    0  0.58777539396E+01  0.41791651524E+01 -0.10824329422E+01  0.72928097521E+01  0.51100000000E-03 0.  1.
        -12    1    3    3    0    0  0.54711743346E+01  0.10523776628E+02 -0.83341888622E+01  0.14496286666E+02  0.00000000000E+00 0.  1.
</event>
<event>
 7    1  0.1538805E-008  0.4614232E+02  0.7816164E-02  0.1320468E+00
        -11   -1    0    0    0    0  0.00000000000E+00  0.00000000000E+00  0.45593999997E+02  0.45594000000E+02  0.51100000000E-03 0.  1.
         11   -1    0    0    0    0 -0.00000000000E+00 -0.00000000000E+00 -0.45593999997E+02  0.45594000000E+02  0.51100000000E-03 0. -1.
    9900012    2    1    2    0    0  0.52700370110E+01  0.55412585077E+01 -0.44391831436E+02  0.46142317252E+02  0.99999953610E+01 0.  0.
        -12    1    1    2    0    0 -0.52700370110E+01 -0.55412585077E+01  0.44391831436E+02  0.45045682748E+02  0.00000000000E+00 0.  1.
         11    1    3    3    0    0  0.49401862042E+01 -0.93192513822E+00 -0.26323358307E+02  0.26799125303E+02  0.51100000000E-03 0. -1.
        -11    1    3    3    0    0  0.12919892866E+01  0.47485044525E+01 -0.13347000554E+02  0.14225327937E+02  0.51100000000E-03 0.  1.
         12    1    3    3    0    0 -0.96213847977E+00  0.17246791934E+01 -0.47214725744E+01  0.51178640120E+01  0.00000000000E+00 0. -1.
</event>
<event>
 7    1  0.1538805E-008  0.4614232E+02  0.7816164E-02  0.1320468E+00
        -11   -1    0    0    0    0  0.00000000000E+00  0.00000000000E+00  0.45593999997E+02  0.45594000000E+02  0.51100000000E-03 0. -1.
         11   -1    0    0    0    0 -0.00000000000E+00 -0.00000000000E+00 -0.45593999997E+02  0.45594000000E+02  0.51100000000E-03 0.  1.
    9900012    2    1    2    0    0 -0.19243044031E+02  0.37298554615E+02 -0.16359603957E+02  0.46142316949E+02  0.99999925901E+01 0.  0.
        -12    1    1    2    0    0  0.19243044031E+02 -0.37298554615E+02  0.16359603957E+02  0.45045683051E+02  0.00000000000E+00 0.  1.
         11    1    3    3    0    0 -0.75242186789E+01  0.11314617573E+02 -0.98763940172E+01  0.16798142653E+02  0.51100000000E-03 0. -1.
        -11    1    3    3    0    0  0.58698714483E-01  0.72896005226E+00 -0.35126103644E+00  0.81130319469E+00  0.51100000000E-03 0.  1.
        -12    1    3    3    0    0 -0.11777524067E+02  0.25254976990E+02 -0.61319489032E+01  0.28532871101E+02  0.00000000000E+00 0.  1.
</event>
<event>
 7    1  0.1538805E-008  0.4614232E+02  0.7816164E-02  0.1320468E+00
        -11   -1    0    0    0    0  0.00000000000E+00  0.00000000000E+00  0.45593999997E+02  0.45594000000E+02  0.51100000000E-03 0.  1.
         11   -1    0    0    0    0 -0.00000000000E+00 -0.00000000000E+00 -0.45593999997E+02  0.45594000000E+02  0.51100000000E-03 0. -1.
    9900012    2    1    2    0    0 -0.26453993902E+01  0.31055591494E+02 -0.32521771731E+02  0.46142317215E+02  0.99999950220E+01 0.  0.
        -12    1    1    2    0    0  0.26453993902E+01 -0.31055591494E+02  0.32521771731E+02  0.45045682785E+02  0.00000000000E+00 0.  1.
         11    1    3    3    0    0 -0.43394541930E+01  0.95572289926E+01 -0.11289353718E+02  0.15414960147E+02  0.51100000000E-03 0. -1.
        -11    1    3    3    0    0  0.21803074761E+01  0.30155513286E+01 -0.34391769330E+01  0.50670729957E+01  0.51100000000E-03 0.  1.
         12    1    3    3    0    0 -0.48625267340E+00  0.18482811173E+02 -0.17793241080E+02  0.25660284072E+02  0.00000000000E+00 0. -1.
</event>
<event>
 7    1  0.1538805E-008  0.4614232E+02  0.7816164E-02  0.1320468E+00
        -11   -1    0    0    0    0  0.00000000000E+00  0.00000000000E+00  0.45593999997E+02  0.45594000000E+02  0.51100000000E-03 0.  1.
         11   -1    0    0    0    0 -0.00000000000E+00 -0.00000000000E+00 -0.45593999997E+02  0.45594000000E+02  0.51100000000E-03 0. -1.
    9900012    2    1    2    0    0 -0.62314814078E+01 -0.42262553132E+02 -0.14288416589E+02  0.46142316451E+02  0.99999880547E+01 0.  0.
        -12    1    1    2    0    0  0.62314814078E+01  0.42262553132E+02  0.14288416589E+02  0.45045683549E+02  0.00000000000E+00 0.  1.
         11    1    3    3    0    0 -0.72466055591E+01 -0.29280508521E+02 -0.99957131790E+01  0.31776968917E+02  0.51100000000E-03 0. -1.
        -11    1    3    3    0    0  0.97710172112E+00 -0.79803419742E+01 -0.44043271646E+00  0.80519914951E+01  0.51100000000E-03 0.  1.
         12    1    3    3    0    0  0.38022430197E-01 -0.50017026371E+01 -0.38522706936E+01  0.63133560388E+01  0.00000000000E+00 0. -1.
</event>
<event>
 7    1  0.1538805E-008  0.4614232E+02  0.7816164E-02  0.1320468E+00
        -11   -1    0    0    0    0  0.00000000000E+00  0.00000000000E+00  0.45593999997E+02  0.45594000000E+02  0.51100000000E-03 0. -1.
         11   -1    0    0    0    0 -0.00000000000E+00 -0.00000000000E+00 -0.45593999997E+02  0.45594000000E+02  0.51100000000E-03 0.  1.
    9900012    2    1    2    0    0  0.13191874963E+02 -0.32655259522E+02  0.28084191815E+02  0.46142319081E+02  0.10000012039E+02 0.  0.
        -12    1    1    2    0    0 -0.13191874963E+02  0.32655259522E+02 -0.28084191815E+02  0.45045680919E+02  0.00000000000E+00 0.  1.
         11    1    3    3    0    0  0.46446621052E+01 -0.82606290374E+01  0.98460291171E+01  0.13665839447E+02  0.51100000000E-03 0. -1.
        -11    1    3    3    0    0  0.29161271101E+01 -0.17946892338E+02  0.10884930054E+02  0.21191423842E+02  0.51100000000E-03 0.  1.
        -12    1    3    3    0    0  0.56310857479E+01 -0.64477381470E+01  0.73532326444E+01  0.11285055792E+02  0.00000000000E+00 0.  1.
</event>
<event>
 7    1  0.1538805E-008  0.4614232E+02  0.7816164E-02  0.1320468E+00
        -11   -1    0    0    0    0  0.00000000000E+00  0.00000000000E+00  0.45593999997E+02  0.45594000000E+02  0.51100000000E-03 0.  1.
         11   -1    0    0    0    0 -0.00000000000E+00 -0.00000000000E+00 -0.45593999997E+02  0.45594000000E+02  0.51100000000E-03 0. -1.
    9900012    2    1    2    0    0 -0.27246690888E+02  0.25947375251E+02 -0.24768227074E+02  0.46142317420E+02  0.99999968881E+01 0.  0.
        -12    1    1    2    0    0  0.27246690888E+02 -0.25947375251E+02  0.24768227074E+02  0.45045682580E+02  0.00000000000E+00 0.  1.
         11    1    3    3    0    0 -0.10567257976E+02  0.70820321066E+01 -0.13008905449E+02  0.18194882279E+02  0.51100000000E-03 0. -1.
        -11    1    3    3    0    0 -0.69134812725E+01  0.98871180511E+01 -0.50100223671E+01  0.13063370585E+02  0.51100000000E-03 0.  1.
         12    1    3    3    0    0 -0.97659516392E+01  0.89782250932E+01 -0.67492992573E+01  0.14884064556E+02  0.00000000000E+00 0. -1.
</event>
<event>
 7    1  0.1538805E-008  0.4614232E+02  0.7816164E-02  0.1320468E+00
        -11   -1    0    0    0    0  0.00000000000E+00  0.00000000000E+00  0.45593999997E+02  0.45594000000E+02  0.51100000000E-03 0. -1.
         11   -1    0    0    0    0 -0.00000000000E+00 -0.00000000000E+00 -0.45593999997E+02  0.45594000000E+02  0.51100000000E-03 0.  1.
    9900012    2    1    2    0    0 -0.13047268241E+02 -0.98140133016E+01  0.41982937862E+02  0.46142321659E+02  0.10000035548E+02 0.  0.
        -12    1    1    2    0    0  0.13047268241E+02  0.98140133016E+01 -0.41982937862E+02  0.45045678341E+02  0.00000000000E+00 0.  1.
         11    1    3    3    0    0 -0.46353103687E+01 -0.51368683902E+01  0.22621073689E+02  0.23655580614E+02  0.51100000000E-03 0. -1.
        -11    1    3    3    0    0 -0.38051561785E+00 -0.16773818259E+01  0.53757967492E+00  0.18020527443E+01  0.51100000000E-03 0.  1.
        -12    1    3    3    0    0 -0.80314422545E+01 -0.29997630856E+01  0.18824284498E+02  0.20684688302E+02  0.00000000000E+00 0.  1.
</event>
<event>
 7    1  0.1538805E-008  0.4614232E+02  0.7816164E-02  0.1320468E+00
        -11   -1    0    0    0    0  0.00000000000E+00  0.00000000000E+00  0.45593999997E+02  0.45594000000E+02  0.51100000000E-03 0. -1.
         11   -1    0    0    0    0 -0.00000000000E+00 -0.00000000000E+00 -0.45593999997E+02  0.45594000000E+02  0.51100000000E-03 0.  1.
    9900012    2    1    2    0    0  0.27422209162E+02 -0.35734633767E+02  0.41436657978E+00  0.46142319791E+02  0.10000018513E+02 0.  0.
        -12    1    1    2    0    0 -0.27422209162E+02  0.35734633767E+02 -0.41436657978E+00  0.45045680209E+02  0.00000000000E+00 0.  1.
         11    1    3    3    0    0  0.25304355810E+01 -0.63293677215E+01 -0.58063974642E+00  0.68411360724E+01  0.51100000000E-03 0. -1.
        -11    1    3    3    0    0  0.81172494876E+01 -0.81773335143E+01 -0.31134845650E+01  0.11935338665E+02  0.51100000000E-03 0.  1.
        -12    1    3    3    0    0  0.16774524093E+02 -0.21227932531E+02  0.41084908912E+01  0.27365845054E+02  0.00000000000E+00 0.  1.
</event>
<event>
 7    1  0.1538805E-008  0.4614233E+02  0.7816164E-02  0.1320468E+00
        -11   -1    0    0    0    0  0.00000000000E+00  0.00000000000E+00  0.45593999997E+02  0.45594000000E+02  0.51100000000E-03 0.  1.
         11   -1    0    0    0    0 -0.00000000000E+00 -0.00000000000E+00 -0.45593999997E+02  0.45594000000E+02  0.51100000000E-03 0. -1.
    9900012    2    1    2    0    0 -0.19181740410E+02  0.19286758622E+02 -0.35905349381E+02  0.46142330536E+02  0.10000116489E+02 0.  0.
        -12    1    1    2    0    0  0.19181740410E+02 -0.19286758622E+02  0.35905349381E+02  0.45045669464E+02  0.00000000000E+00 0.  1.
         11    1    3    3    0    0 -0.44172641534E+01  0.22633883341E+01 -0.13244521894E+02  0.14143992004E+02  0.51100000000E-03 0. -1.
        -11    1    3    3    0    0 -0.12512999355E+02  0.14983403779E+02 -0.20169388215E+02  0.28069231605E+02  0.51100000000E-03 0.  1.
         12    1    3    3    0    0 -0.22514769014E+01  0.20399665085E+01 -0.24914392728E+01  0.39291069270E+01  0.00000000000E+00 0. -1.
</event>
<event>
 7    1  0.1538805E-008  0.4614232E+02  0.7816164E-02  0.1320468E+00
        -11   -1    0    0    0    0  0.00000000000E+00  0.00000000000E+00  0.45593999997E+02  0.45594000000E+02  0.51100000000E-03 0.  1.
         11   -1    0    0    0    0 -0.00000000000E+00 -0.00000000000E+00 -0.45593999997E+02  0.45594000000E+02  0.51100000000E-03 0. -1.
    9900012    2    1    2    0    0  0.14428054621E+02  0.71970120391E+01 -0.42061238553E+02  0.46142317288E+02  0.99999956820E+01 0.  0.
        -12    1    1    2    0    0 -0.14428054621E+02 -0.71970120391E+01  0.42061238553E+02  0.45045682712E+02  0.00000000000E+00 0.  1.
         11    1    3    3    0    0  0.10505456870E+02  0.44903847152E+01 -0.21286960893E+02  0.24159115945E+02  0.51100000000E-03 0. -1.
        -11    1    3    3    0    0 -0.46973421548E+00  0.42686607572E+00 -0.11086439492E+02  0.11104593903E+02  0.51100000000E-03 0.  1.
        -12    1    3    3    0    0  0.43923319665E+01  0.22797612482E+01 -0.96878381680E+01  0.10878607439E+02  0.00000000000E+00 0.  1.
</event>
<event>
 7    1  0.1538805E-008  0.4614232E+02  0.7816164E-02  0.1320468E+00
        -11   -1    0    0    0    0  0.00000000000E+00  0.00000000000E+00  0.45593999997E+02  0.45594000000E+02  0.51100000000E-03 0.  1.
         11   -1    0    0    0    0 -0.00000000000E+00 -0.00000000000E+00 -0.45593999997E+02  0.45594000000E+02  0.51100000000E-03 0. -1.
    9900012    2    1    2    0    0 -0.63804357491E+01  0.43551199314E+02  0.95758419738E+01  0.46142315728E+02  0.99999814595E+01 0.  0.
        -12    1    1    2    0    0  0.63804357491E+01 -0.43551199314E+02 -0.95758419738E+01  0.45045684272E+02  0.00000000000E+00 0.  1.
         11    1    3    3    0    0 -0.69530002866E+00  0.72512728396E+01  0.50535083321E+01  0.88657964474E+01  0.51100000000E-03 0. -1.
        -11    1    3    3    0    0 -0.52171710216E+01  0.29056744031E+02  0.19870752547E+01  0.29588202302E+02  0.51100000000E-03 0.  1.
        -12    1    3    3    0    0 -0.46796469884E+00  0.72431824436E+01  0.25352583870E+01  0.76883169783E+01  0.00000000000E+00 0.  1.
</event>
<event>
 7    1  0.1538805E-008  0.4614232E+02  0.7816164E-02  0.1320468E+00
        -11   -1    0    0    0    0  0.00000000000E+00  0.00000000000E+00  0.45593999997E+02  0.45594000000E+02  0.51100000000E-03 0.  1.
         11   -1    0    0    0    0 -0.00000000000E+00 -0.00000000000E+00 -0.45593999997E+02  0.45594000000E+02  0.51100000000E-03 0. -1.
    9900012    2    1    2    0    0 -0.27066556142E+02  0.21618142413E+02 -0.28795327571E+02  0.46142318379E+02  0.10000005639E+02 0.  0.
        -12    1    1    2    0    0  0.27066556142E+02 -0.21618142413E+02  0.28795327571E+02  0.45045681621E+02  0.00000000000E+00 0.  1.
         11    1    3    3    0    0 -0.94255652052E+01  0.73588602270E+01 -0.11113970984E+02  0.16325270429E+02  0.51100000000E-03 0. -1.
        -11    1    3    3    0    0  0.42135494384E+00  0.19796536957E+01 -0.25065565408E+01  0.32217067987E+01  0.51100000000E-03 0.  1.
        -12    1    3    3    0    0 -0.18062345880E+02  0.12279628490E+02 -0.15174800046E+02  0.26595341152E+02  0.00000000000E+00 0.  1.
</event>
<event>
 7    1  0.1538805E-008  0.4614232E+02  0.7816164E-02  0.1320468E+00
        -11   -1    0    0    0    0  0.00000000000E+00  0.00000000000E+00  0.45593999997E+02  0.45594000000E+02  0.51100000000E-03 0.  1.
         11   -1    0    0    0    0 -0.00000000000E+00 -0.00000000000E+00 -0.45593999997E+02  0.45594000000E+02  0.51100000000E-03 0. -1.
    9900012    2    1    2    0    0  0.35645611397E+02  0.84891592221E+01 -0.26199962429E+02  0.46142317993E+02  0.10000002115E+02 0.  0.
        -12    1    1    2    0    0 -0.35645611397E+02 -0.84891592221E+01  0.26199962429E+02  0.45045682007E+02  0.00000000000E+00 0.  1.
         11    1    3    3    0    0  0.30588565736E+02  0.49598325588E+01 -0.18659343505E+02  0.36172246171E+02  0.51100000000E-03 0. -1.
        -11    1    3    3    0    0  0.47118177353E+01  0.37221630165E+01 -0.64616377618E+01  0.88209118983E+01  0.51100000000E-03 0.  1.
         12    1    3    3    0    0  0.34522792599E+00 -0.19283635320E+00 -0.10789811628E+01  0.11491599235E+01  0.00000000000E+00 0. -1.
</event>
<event>
 7    1  0.1538805E-008  0.4614232E+02  0.7816164E-02  0.1320468E+00
        -11   -1    0    0    0    0  0.00000000000E+00  0.00000000000E+00  0.45593999997E+02  0.45594000000E+02  0.51100000000E-03 0. -1.
         11   -1    0    0    0    0 -0.00000000000E+00 -0.00000000000E+00 -0.45593999997E+02  0.45594000000E+02  0.51100000000E-03 0.  1.
    9900012    2    1    2    0    0 -0.82900010691E+00  0.44818925632E+02  0.44373712702E+01  0.46142316524E+02  0.99999887200E+01 0.  0.
        -12    1    1    2    0    0  0.82900010691E+00 -0.44818925632E+02 -0.44373712702E+01  0.45045683476E+02  0.00000000000E+00 0.  1.
         11    1    3    3    0    0 -0.34864716287E+01  0.94202991321E+01  0.22138572189E+01  0.10285848735E+02  0.51100000000E-03 0. -1.
        -11    1    3    3    0    0  0.18359407752E+01  0.34532544315E+02  0.19786499294E+01  0.34637874519E+02  0.51100000000E-03 0.  1.
        -12    1    3    3    0    0  0.82153074656E+00  0.86608218553E+00  0.24486412198E+00  0.12185932701E+01  0.00000000000E+00 0.  1.
</event>
<event>
 7    1  0.1641486E-008  0.4614232E+02  0.7816164E-02  0.1320468E+00
        -11   -1    0    0    0    0  0.00000000000E+00  0.00000000000E+00  0.45593999997E+02  0.45594000000E+02  0.51100000000E-03 0. -1.
         11   -1    0    0    0    0 -0.00000000000E+00 -0.00000000000E+00 -0.45593999997E+02  0.45594000000E+02  0.51100000000E-03 0.  1.
    9900012    2    1    2    0    0  0.71390144437E+01 -0.18461346936E+02  0.40463891174E+02  0.46142319332E+02  0.10000014326E+02 0.  0.
        -12    1    1    2    0    0 -0.71390144437E+01  0.18461346936E+02 -0.40463891174E+02  0.45045680668E+02  0.00000000000E+00 0.  1.
         11    1    3    3    0    0  0.44268925690E+01 -0.15251467417E+02  0.38192731626E+02  0.41362898659E+02  0.51100000000E-03 0. -1.
        -11    1    3    3    0    0  0.20730473077E+01 -0.25150036357E+01  0.16991241376E+01  0.36755668302E+01  0.51100000000E-03 0.  1.
         12    1    3    3    0    0  0.63907456703E+00 -0.69487588348E+00  0.57203541031E+00  0.11038538428E+01  0.00000000000E+00 0. -1.
</event>
<event>
 7    1  0.1538805E-008  0.4614232E+02  0.7816164E-02  0.1320468E+00
        -11   -1    0    0    0    0  0.00000000000E+00  0.00000000000E+00  0.45593999997E+02  0.45594000000E+02  0.51100000000E-03 0. -1.
         11   -1    0    0    0    0 -0.00000000000E+00 -0.00000000000E+00 -0.45593999997E+02  0.45594000000E+02  0.51100000000E-03 0.  1.
    9900012    2    1    2    0    0 -0.41802723279E+02  0.89715343919E+01  0.14182993331E+02  0.46142318712E+02  0.10000008673E+02 0.  0.
        -12    1    1    2    0    0  0.41802723279E+02 -0.89715343919E+01 -0.14182993331E+02  0.45045681288E+02  0.00000000000E+00 0.  1.
         11    1    3    3    0    0 -0.12148353740E+02  0.48159581817E+01  0.42965164039E+01  0.13756307836E+02  0.51100000000E-03 0. -1.
        -11    1    3    3    0    0 -0.27142339412E+02  0.21969476900E+01  0.10419311946E+02  0.29156392603E+02  0.51100000000E-03 0.  1.
        -12    1    3    3    0    0 -0.25120301265E+01  0.19586285202E+01 -0.53283501907E+00  0.32296182738E+01  0.00000000000E+00 0.  1.
</event>
<event>
 7    1  0.1538805E-008  0.4614232E+02  0.7816164E-02  0.1320468E+00
        -11   -1    0    0    0    0  0.00000000000E+00  0.00000000000E+00  0.45593999997E+02  0.45594000000E+02  0.51100000000E-03 0.  1.
         11   -1    0    0    0    0 -0.00000000000E+00 -0.00000000000E+00 -0.45593999997E+02  0.45594000000E+02  0.51100000000E-03 0. -1.
    9900012    2    1    2    0    0 -0.53855299920E+01 -0.20976595958E+02 -0.39497999227E+02  0.46142318140E+02  0.10000003458E+02 0.  0.
        -12    1    1    2    0    0  0.53855299920E+01  0.20976595958E+02  0.39497999227E+02  0.45045681860E+02  0.00000000000E+00 0.  1.
         11    1    3    3    0    0 -0.81089663947E+01 -0.15735499015E+02 -0.26691649001E+02  0.32028196826E+02  0.51100000000E-03 0. -1.
        -11    1    3    3    0    0  0.17786621878E+01 -0.37346454622E+01 -0.94536578027E+01  0.10319053349E+02  0.51100000000E-03 0.  1.
         12    1    3    3    0    0  0.94477421486E+00 -0.15064514807E+01 -0.33526924232E+01  0.37950679658E+01  0.00000000000E+00 0. -1.
</event>
<event>
 7    1  0.1538805E-008  0.4614232E+02  0.7816164E-02  0.1320468E+00
        -11   -1    0    0    0    0  0.00000000000E+00  0.00000000000E+00  0.45593999997E+02  0.45594000000E+02  0.51100000000E-03 0.  1.
         11   -1    0    0    0    0 -0.00000000000E+00 -0.00000000000E+00 -0.45593999997E+02  0.45594000000E+02  0.51100000000E-03 0. -1.
    9900012    2    1    2    0    0 -0.30634301608E+02 -0.45451913930E+01 -0.32710766036E+02  0.46142318581E+02  0.10000007475E+02 0.  0.
        -12    1    1    2    0    0  0.30634301608E+02  0.45451913930E+01  0.32710766036E+02  0.45045681419E+02  0.00000000000E+00 0.  1.
         11    1    3    3    0    0 -0.23780860931E+02 -0.33795418725E+01 -0.24408553603E+02  0.34245118472E+02  0.51100000000E-03 0. -1.
        -11    1    3    3    0    0 -0.42779344379E+01  0.26276066745E+00 -0.78135145951E+01  0.89118335270E+01  0.51100000000E-03 0.  1.
        -12    1    3    3    0    0 -0.25755062393E+01 -0.14284101879E+01 -0.48869783855E+00  0.29853665824E+01  0.00000000000E+00 0.  1.
</event>
<event>
 7    1  0.1538805E-008  0.4614232E+02  0.7816164E-02  0.1320468E+00
        -11   -1    0    0    0    0  0.00000000000E+00  0.00000000000E+00  0.45593999997E+02  0.45594000000E+02  0.51100000000E-03 0.  1.
         11   -1    0    0    0    0 -0.00000000000E+00 -0.00000000000E+00 -0.45593999997E+02  0.45594000000E+02  0.51100000000E-03 0. -1.
    9900012    2    1    2    0    0  0.31761316391E+02  0.21483171408E+02 -0.23639071227E+02  0.46142316954E+02  0.99999926389E+01 0.  0.
        -12    1    1    2    0    0 -0.31761316391E+02 -0.21483171408E+02  0.23639071227E+02  0.45045683046E+02  0.00000000000E+00 0.  1.
         11    1    3    3    0    0  0.57797907749E+01  0.52561950663E+01 -0.46278485308E+01  0.90802285358E+01  0.51100000000E-03 0. -1.
        -11    1    3    3    0    0  0.81837586113E+01  0.95800477134E+01 -0.54925976121E+01  0.13744811675E+02  0.51100000000E-03 0.  1.
        -12    1    3    3    0    0  0.17797767005E+02  0.66469286282E+01 -0.13518625084E+02  0.23317276743E+02  0.00000000000E+00 0.  1.
</event>
<event>
 7    1  0.1538805E-008  0.4614232E+02  0.7816164E-02  0.1320468E+00
        -11   -1    0    0    0    0  0.00000000000E+00  0.00000000000E+00  0.45593999997E+02  0.45594000000E+02  0.51100000000E-03 0.  1.
         11   -1    0    0    0    0 -0.00000000000E+00 -0.00000000000E+00 -0.45593999997E+02  0.45594000000E+02  0.51100000000E-03 0. -1.
    9900012    2    1    2    0    0 -0.33041117142E+02 -0.30576870847E+02  0.15662267094E+01  0.46142317423E+02  0.99999969128E+01 0.  0.
        -12    1    1    2    0    0  0.33041117142E+02  0.30576870847E+02 -0.15662267094E+01  0.45045682577E+02  0.00000000000E+00 0.  1.
         11    1    3    3    0    0 -0.32399214001E+02 -0.30563809819E+02  0.72375825478E+00  0.44546373195E+02  0.51100000000E-03 0. -1.
        -11    1    3    3    0    0 -0.84410784518E+00 -0.33813706251E+00  0.79931706174E+00  0.12106868933E+01  0.51100000000E-03 0.  1.
         12    1    3    3    0    0  0.20220470418E+00  0.32507603507E+00  0.43151392893E-01  0.38525733436E+00  0.00000000000E+00 0. -1.
</event>
<event>
 7    1  0.1538805E-008  0.4614232E+02  0.7816164E-02  0.1320468E+00
        -11   -1    0    0    0    0  0.00000000000E+00  0.00000000000E+00  0.45593999997E+02  0.45594000000E+02  0.51100000000E-03 0.  1.
         11   -1    0    0    0    0 -0.00000000000E+00 -0.00000000000E+00 -0.45593999997E+02  0.45594000000E+02  0.51100000000E-03 0. -1.
    9900012    2    1    2    0    0  0.32228999330E+02 -0.24844091947E+02 -0.19317768074E+02  0.46142318011E+02  0.10000002278E+02 0.  0.
        -12    1    1    2    0    0 -0.32228999330E+02  0.24844091947E+02  0.19317768074E+02  0.45045681989E+02  0.00000000000E+00 0.  1.
         11    1    3    3    0    0  0.25290536954E+01  0.11374101840E+00 -0.18567402225E+01  0.31395117659E+01  0.51100000000E-03 0. -1.
        -11    1    3    3    0    0  0.22261135442E+02 -0.21724663802E+02 -0.12700698853E+02  0.33598019586E+02  0.51100000000E-03 0.  1.
        -12    1    3    3    0    0  0.74388101933E+01 -0.32331691627E+01 -0.47603289986E+01  0.94047866590E+01  0.00000000000E+00 0.  1.
</event>
<event>
 7    1  0.1538805E-008  0.4614232E+02  0.7816164E-02  0.1320468E+00
        -11   -1    0    0    0    0  0.00000000000E+00  0.00000000000E+00  0.45593999997E+02  0.45594000000E+02  0.51100000000E-03 0. -1.
         11   -1    0    0    0    0 -0.00000000000E+00 -0.00000000000E+00 -0.45593999997E+02  0.45594000000E+02  0.51100000000E-03 0.  1.
    9900012    2    1    2    0    0 -0.10318085194E+02 -0.40410311081E+02  0.17019323156E+02  0.46142317805E+02  0.10000000402E+02 0.  0.
        -12    1    1    2    0    0  0.10318085194E+02  0.40410311081E+02 -0.17019323156E+02  0.45045682195E+02  0.00000000000E+00 0.  1.
         11    1    3    3    0    0 -0.45790381234E+01 -0.28590060031E+02  0.14647780792E+02  0.32448676477E+02  0.51100000000E-03 0. -1.
        -11    1    3    3    0    0 -0.42948502960E+01 -0.64155264289E+01  0.29406825016E+00  0.77260076898E+01  0.51100000000E-03 0.  1.
         12    1    3    3    0    0 -0.14441967745E+01 -0.54047246204E+01  0.20774741143E+01  0.59676336384E+01  0.00000000000E+00 0. -1.
</event>
<event>
 7    1  0.1538805E-008  0.4614232E+02  0.7816164E-02  0.1320468E+00
        -11   -1    0    0    0    0  0.00000000000E+00  0.00000000000E+00  0.45593999997E+02  0.45594000000E+02  0.51100000000E-03 0. -1.
         11   -1    0    0    0    0 -0.00000000000E+00 -0.00000000000E+00 -0.45593999997E+02  0.45594000000E+02  0.51100000000E-03 0.  1.
    9900012    2    1    2    0    0  0.30091035184E+02 -0.17693586065E+02  0.28470686617E+02  0.46142318933E+02  0.10000010690E+02 0.  0.
        -12    1    1    2    0    0 -0.30091035184E+02  0.17693586065E+02 -0.28470686617E+02  0.45045681067E+02  0.00000000000E+00 0.  1.
         11    1    3    3    0    0  0.22099042700E+02 -0.11128969822E+02  0.17598890295E+02  0.30363507660E+02  0.51100000000E-03 0.  1.
        -11    1    3    3    0    0  0.59136086672E+01 -0.70828364351E+01  0.94518618078E+01  0.13208899702E+02  0.51100000000E-03 0. -1.
        -12    1    3    3    0    0  0.20783838172E+01  0.51822019272E+00  0.14199345142E+01  0.25699115713E+01  0.00000000000E+00 0.  1.
</event>
<event>
 7    1  0.1538805E-008  0.4614232E+02  0.7816164E-02  0.1320468E+00
        -11   -1    0    0    0    0  0.00000000000E+00  0.00000000000E+00  0.45593999997E+02  0.45594000000E+02  0.51100000000E-03 0. -1.
         11   -1    0    0    0    0 -0.00000000000E+00 -0.00000000000E+00 -0.45593999997E+02  0.45594000000E+02  0.51100000000E-03 0.  1.
    9900012    2    1    2    0    0  0.15866011816E+02 -0.36532265210E+02  0.21042260795E+02  0.46142317947E+02  0.10000001692E+02 0.  0.
        -12    1    1    2    0    0 -0.15866011816E+02  0.36532265210E+02 -0.21042260795E+02  0.45045682053E+02  0.00000000000E+00 0.  1.
         11    1    3    3    0    0  0.62738760783E+01 -0.14958730339E+02  0.14162678979E+02  0.21533848019E+02  0.51100000000E-03 0. -1.
        -11    1    3    3    0    0  0.77489202520E+01 -0.18014837413E+02  0.59633348192E+01  0.20497353354E+02  0.51100000000E-03 0.  1.
         12    1    3    3    0    0  0.18432154855E+01 -0.35586974575E+01  0.91624699698E+00  0.41111165734E+01  0.00000000000E+00 0. -1.
</event>
<event>
 7    1  0.1538805E-008  0.4614232E+02  0.7816164E-02  0.1320468E+00
        -11   -1    0    0    0    0  0.00000000000E+00  0.00000000000E+00  0.45593999997E+02  0.45594000000E+02  0.51100000000E-03 0.  1.
         11   -1    0    0    0    0 -0.00000000000E+00 -0.00000000000E+00 -0.45593999997E+02  0.45594000000E+02  0.51100000000E-03 0. -1.
    9900012    2    1    2    0    0 -0.29924663922E+02 -0.13193655717E+02 -0.30976691393E+02  0.46142317946E+02  0.10000001684E+02 0.  0.
        -12    1    1    2    0    0  0.29924663922E+02  0.13193655717E+02  0.30976691393E+02  0.45045682054E+02  0.00000000000E+00 0.  1.
         11    1    3    3    0    0 -0.11275303650E+02 -0.91262940550E+01 -0.16692683701E+02  0.22114868415E+02  0.51100000000E-03 0. -1.
        -11    1    3    3    0    0 -0.25230516891E+01  0.44403084639E+00 -0.22052590974E+01  0.33802546008E+01  0.51100000000E-03 0.  1.
         12    1    3    3    0    0 -0.16126308583E+02 -0.45113925087E+01 -0.12078748595E+02  0.20647194930E+02  0.00000000000E+00 0. -1.
</event>
<event>
 7    1  0.1538805E-008  0.4614232E+02  0.7816164E-02  0.1320468E+00
        -11   -1    0    0    0    0  0.00000000000E+00  0.00000000000E+00  0.45593999997E+02  0.45594000000E+02  0.51100000000E-03 0.  1.
         11   -1    0    0    0    0 -0.00000000000E+00 -0.00000000000E+00 -0.45593999997E+02  0.45594000000E+02  0.51100000000E-03 0. -1.
    9900012    2    1    2    0    0 -0.38006249723E+02  0.22558317914E+02  0.87040731934E+01  0.46142316353E+02  0.99999871559E+01 0.  0.
        -12    1    1    2    0    0  0.38006249723E+02 -0.22558317914E+02 -0.87040731934E+01  0.45045683647E+02  0.00000000000E+00 0.  1.
         11    1    3    3    0    0 -0.25820482245E+02  0.19589468350E+02  0.56148478760E+01  0.32893328967E+02  0.51100000000E-03 0. -1.
        -11    1    3    3    0    0 -0.33990905825E+01 -0.11863570772E+00  0.17961782212E+01  0.38463161184E+01  0.51100000000E-03 0.  1.
         12    1    3    3    0    0 -0.87866768953E+01  0.30874852721E+01  0.12930470962E+01  0.94026712673E+01  0.00000000000E+00 0. -1.
</event>
<event>
 7    1  0.1538805E-008  0.4614232E+02  0.7816164E-02  0.1320468E+00
        -11   -1    0    0    0    0  0.00000000000E+00  0.00000000000E+00  0.45593999997E+02  0.45594000000E+02  0.51100000000E-03 0.  1.
         11   -1    0    0    0    0 -0.00000000000E+00 -0.00000000000E+00 -0.45593999997E+02  0.45594000000E+02  0.51100000000E-03 0. -1.
    9900012    2    1    2    0    0  0.91608287653E+01 -0.14987670137E+02 -0.41479663970E+02  0.46142316934E+02  0.99999924581E+01 0.  0.
        -12    1    1    2    0    0 -0.91608287653E+01  0.14987670137E+02  0.41479663970E+02  0.45045683066E+02  0.00000000000E+00 0.  1.
         11    1    3    3    0    0  0.95250575811E+01 -0.87015416122E+01 -0.29498248919E+02  0.32196121473E+02  0.51100000000E-03 0. -1.
        -11    1    3    3    0    0 -0.15116180758E+01 -0.15456196263E+01 -0.26775548479E+01  0.34413993464E+01  0.51100000000E-03 0.  1.
         12    1    3    3    0    0  0.11473892599E+01 -0.47405088984E+01 -0.93038602027E+01  0.10504796114E+02  0.00000000000E+00 0. -1.
</event>
<event>
 7    1  0.1538805E-008  0.4614232E+02  0.7816164E-02  0.1320468E+00
        -11   -1    0    0    0    0  0.00000000000E+00  0.00000000000E+00  0.45593999997E+02  0.45594000000E+02  0.51100000000E-03 0. -1.
         11   -1    0    0    0    0 -0.00000000000E+00 -0.00000000000E+00 -0.45593999997E+02  0.45594000000E+02  0.51100000000E-03 0.  1.
    9900012    2    1    2    0    0  0.22936429903E+02  0.11682363228E+02 -0.36966957812E+02  0.46142318774E+02  0.10000009233E+02 0.  0.
        -12    1    1    2    0    0 -0.22936429903E+02 -0.11682363228E+02  0.36966957812E+02  0.45045681226E+02  0.00000000000E+00 0.  1.
         11    1    3    3    0    0  0.44237372687E+01  0.23619691127E+01 -0.76237572378E+01  0.91252410486E+01  0.51100000000E-03 0. -1.
        -11    1    3    3    0    0  0.18652576925E+02  0.77913807740E+01 -0.29144804540E+02  0.35468914168E+02  0.51100000000E-03 0.  1.
        -12    1    3    3    0    0 -0.13988429115E+00  0.15290133412E+01 -0.19839603395E+00  0.15481635569E+01  0.00000000000E+00 0.  1.
</event>
<event>
 7    1  0.1538805E-008  0.4614232E+02  0.7816164E-02  0.1320468E+00
        -11   -1    0    0    0    0  0.00000000000E+00  0.00000000000E+00  0.45593999997E+02  0.45594000000E+02  0.51100000000E-03 0. -1.
         11   -1    0    0    0    0 -0.00000000000E+00 -0.00000000000E+00 -0.45593999997E+02  0.45594000000E+02  0.51100000000E-03 0.  1.
    9900012    2    1    2    0    0 -0.38008554974E+02  0.23711131769E+02  0.47165049430E+01  0.46142318300E+02  0.10000004913E+02 0.  0.
        -12    1    1    2    0    0  0.38008554974E+02 -0.23711131769E+02 -0.47165049430E+01  0.45045681700E+02  0.00000000000E+00 0.  1.
         11    1    3    3    0    0 -0.16149835795E+02  0.13561218480E+02  0.18053807163E+01  0.21165614630E+02  0.51100000000E-03 0. -1.
        -11    1    3    3    0    0 -0.21225982640E+02  0.83152718528E+01  0.31804637875E+01  0.23017415911E+02  0.51100000000E-03 0.  1.
        -12    1    3    3    0    0 -0.63273653846E+00  0.18346414360E+01 -0.26933956077E+00  0.19592877596E+01  0.00000000000E+00 0.  1.
</event>
<event>
 7    1  0.1538805E-008  0.4614232E+02  0.7816164E-02  0.1320468E+00
        -11   -1    0    0    0    0  0.00000000000E+00  0.00000000000E+00  0.45593999997E+02  0.45594000000E+02  0.51100000000E-03 0.  1.
         11   -1    0    0    0    0 -0.00000000000E+00 -0.00000000000E+00 -0.45593999997E+02  0.45594000000E+02  0.51100000000E-03 0. -1.
    9900012    2    1    2    0    0 -0.34620155617E+02 -0.20239818320E+02 -0.20516040582E+02  0.46142319388E+02  0.10000014840E+02 0.  0.
        -12    1    1    2    0    0  0.34620155617E+02  0.20239818320E+02  0.20516040582E+02  0.45045680612E+02  0.00000000000E+00 0.  1.
         11    1    3    3    0    0 -0.83728704228E+01 -0.39048054789E+01 -0.10941340617E+01  0.93032034564E+01  0.51100000000E-03 0. -1.
        -11    1    3    3    0    0 -0.30776874600E+01 -0.38294055874E+01 -0.39222823199E+01  0.62865575725E+01  0.51100000000E-03 0.  1.
         12    1    3    3    0    0 -0.23169597734E+02 -0.12505607254E+02 -0.15499624201E+02  0.30552558360E+02  0.00000000000E+00 0. -1.
</event>
<event>
 7    1  0.1538805E-008  0.4614232E+02  0.7816164E-02  0.1320468E+00
        -11   -1    0    0    0    0  0.00000000000E+00  0.00000000000E+00  0.45593999997E+02  0.45594000000E+02  0.51100000000E-03 0.  1.
         11   -1    0    0    0    0 -0.00000000000E+00 -0.00000000000E+00 -0.45593999997E+02  0.45594000000E+02  0.51100000000E-03 0. -1.
    9900012    2    1    2    0    0  0.32950660579E+02 -0.30565644006E+02 -0.30181089160E+01  0.46142316438E+02  0.99999879376E+01 0.  0.
        -12    1    1    2    0    0 -0.32950660579E+02  0.30565644006E+02  0.30181089160E+01  0.45045683562E+02  0.00000000000E+00 0.  1.
         11    1    3    3    0    0 -0.16486327463E+00 -0.15794164136E+01 -0.67757105488E+00  0.17265106146E+01  0.51100000000E-03 0. -1.
        -11    1    3    3    0    0  0.96492885803E+01 -0.11805518450E+02 -0.14919514339E+01  0.15320083398E+02  0.51100000000E-03 0.  1.
         12    1    3    3    0    0  0.23466235273E+02 -0.17180709143E+02 -0.84858642721E+00  0.29095722426E+02  0.00000000000E+00 0. -1.
</event>
<event>
 7    1  0.1538805E-008  0.4614232E+02  0.7816164E-02  0.1320468E+00
        -11   -1    0    0    0    0  0.00000000000E+00  0.00000000000E+00  0.45593999997E+02  0.45594000000E+02  0.51100000000E-03 0.  1.
         11   -1    0    0    0    0 -0.00000000000E+00 -0.00000000000E+00 -0.45593999997E+02  0.45594000000E+02  0.51100000000E-03 0. -1.
    9900012    2    1    2    0    0  0.17374054824E+02  0.67807401028E+01 -0.41003381315E+02  0.46142317670E+02  0.99999991649E+01 0.  0.
        -12    1    1    2    0    0 -0.17374054824E+02 -0.67807401028E+01  0.41003381315E+02  0.45045682330E+02  0.00000000000E+00 0.  1.
         11    1    3    3    0    0  0.94157562448E+00  0.19768068605E+01 -0.74552356278E+01  0.77701266751E+01  0.51100000000E-03 0. -1.
        -11    1    3    3    0    0  0.33233500321E+01 -0.19762717281E+01 -0.71430634430E+01  0.81224171889E+01  0.51100000000E-03 0.  1.
        -12    1    3    3    0    0  0.13109129168E+02  0.67802049704E+01 -0.26405082244E+02  0.30249773806E+02  0.00000000000E+00 0.  1.
</event>
<event>
 7    1  0.1538805E-008  0.4614232E+02  0.7816164E-02  0.1320468E+00
        -11   -1    0    0    0    0  0.00000000000E+00  0.00000000000E+00  0.45593999997E+02  0.45594000000E+02  0.51100000000E-03 0.  1.
         11   -1    0    0    0    0 -0.00000000000E+00 -0.00000000000E+00 -0.45593999997E+02  0.45594000000E+02  0.51100000000E-03 0. -1.
    9900012    2    1    2    0    0 -0.26183881745E+02  0.36547726033E+02  0.27895485552E+01  0.46142317382E+02  0.99999965391E+01 0.  0.
        -12    1    1    2    0    0  0.26183881745E+02 -0.36547726033E+02 -0.27895485552E+01  0.45045682618E+02  0.00000000000E+00 0.  1.
         11    1    3    3    0    0 -0.98551750655E+00  0.36242552655E+01  0.25710640555E+01  0.45515757297E+01  0.51100000000E-03 0.  1.
        -11    1    3    3    0    0 -0.20426321014E+02  0.25681386259E+02  0.13638806677E+01  0.32842477999E+02  0.51100000000E-03 0. -1.
        -12    1    3    3    0    0 -0.47720432238E+01  0.72420845090E+01 -0.11453961679E+01  0.87482636533E+01  0.00000000000E+00 0.  1.
</event>
<event>
 7    1  0.1538805E-008  0.4614232E+02  0.7816164E-02  0.1320468E+00
        -11   -1    0    0    0    0  0.00000000000E+00  0.00000000000E+00  0.45593999997E+02  0.45594000000E+02  0.51100000000E-03 0.  1.
         11   -1    0    0    0    0 -0.00000000000E+00 -0.00000000000E+00 -0.45593999997E+02  0.45594000000E+02  0.51100000000E-03 0. -1.
    9900012    2    1    2    0    0 -0.37057513672E+02 -0.24146480475E+02 -0.85323920071E+01  0.46142317052E+02  0.99999935359E+01 0.  0.
        -12    1    1    2    0    0  0.37057513672E+02  0.24146480475E+02  0.85323920071E+01  0.45045682948E+02  0.00000000000E+00 0.  1.
         11    1    3    3    0    0 -0.12592586116E+02 -0.10029846235E+02 -0.67929390487E+01  0.17473267061E+02  0.51100000000E-03 0. -1.
        -11    1    3    3    0    0 -0.16985906054E+02 -0.95846291569E+01  0.93015226410E+00  0.19525657583E+02  0.51100000000E-03 0.  1.
         12    1    3    3    0    0 -0.74790215015E+01 -0.45320050836E+01 -0.26696052225E+01  0.91433924088E+01  0.00000000000E+00 0. -1.
</event>
<event>
 7    1  0.1538805E-008  0.4614233E+02  0.7816164E-02  0.1320468E+00
        -11   -1    0    0    0    0  0.00000000000E+00  0.00000000000E+00  0.45593999997E+02  0.45594000000E+02  0.51100000000E-03 0. -1.
         11   -1    0    0    0    0 -0.00000000000E+00 -0.00000000000E+00 -0.45593999997E+02  0.45594000000E+02  0.51100000000E-03 0.  1.
    9900012    2    1    2    0    0 -0.13835659665E+01  0.38093468390E+02  0.24001795421E+02  0.46142325710E+02  0.10000072488E+02 0.  0.
        -12    1    1    2    0    0  0.13835659665E+01 -0.38093468390E+02 -0.24001795421E+02  0.45045674290E+02  0.00000000000E+00 0.  1.
         11    1    3    3    0    0 -0.13513966466E+01  0.30103776046E+02  0.22257056672E+02  0.37462516962E+02  0.51100000000E-03 0. -1.
        -11    1    3    3    0    0  0.11593384713E+01  0.62342376250E+01  0.93868441767E+00  0.64102194310E+01  0.51100000000E-03 0.  1.
         12    1    3    3    0    0 -0.11915077912E+01  0.17554547189E+01  0.80605433086E+00  0.22695893177E+01  0.00000000000E+00 0. -1.
</event>
<event>
 7    1  0.1538805E-008  0.4614232E+02  0.7816164E-02  0.1320468E+00
        -11   -1    0    0    0    0  0.00000000000E+00  0.00000000000E+00  0.45593999997E+02  0.45594000000E+02  0.51100000000E-03 0.  1.
         11   -1    0    0    0    0 -0.00000000000E+00 -0.00000000000E+00 -0.45593999997E+02  0.45594000000E+02  0.51100000000E-03 0. -1.
    9900012    2    1    2    0    0  0.10291854390E+02  0.43650973415E+02  0.42170760849E+01  0.46142317881E+02  0.10000001091E+02 0.  0.
        -12    1    1    2    0    0 -0.10291854390E+02 -0.43650973415E+02 -0.42170760849E+01  0.45045682119E+02  0.00000000000E+00 0.  1.
         11    1    3    3    0    0  0.22963368814E+01  0.35158799320E+01  0.21645689939E+01  0.47243977352E+01  0.51100000000E-03 0.  1.
        -11    1    3    3    0    0  0.80367240098E+00  0.19255107194E+02  0.14396024254E+01  0.19325565911E+02  0.51100000000E-03 0. -1.
        -12    1    3    3    0    0  0.71918451080E+01  0.20879986289E+02  0.61290466555E+00  0.22092354234E+02  0.00000000000E+00 0.  1.
</event>
<event>
 7    1  0.1538805E-008  0.4614232E+02  0.7816164E-02  0.1320468E+00
        -11   -1    0    0    0    0  0.00000000000E+00  0.00000000000E+00  0.45593999997E+02  0.45594000000E+02  0.51100000000E-03 0.  1.
         11   -1    0    0    0    0 -0.00000000000E+00 -0.00000000000E+00 -0.45593999997E+02  0.45594000000E+02  0.51100000000E-03 0. -1.
    9900012    2    1    2    0    0  0.32027238552E+02  0.14195633613E+02 -0.28317018237E+02  0.46142317135E+02  0.99999942911E+01 0.  0.
        -12    1    1    2    0    0 -0.32027238552E+02 -0.14195633613E+02  0.28317018237E+02  0.45045682865E+02  0.00000000000E+00 0.  1.
         11    1    3    3    0    0  0.23542871614E+02  0.82668500654E+01 -0.18320830819E+02  0.30955782271E+02  0.51100000000E-03 0. -1.
        -11    1    3    3    0    0  0.85691657056E+01  0.43256963099E+01 -0.95024583243E+01  0.13506996851E+02  0.51100000000E-03 0.  1.
        -12    1    3    3    0    0 -0.84798767430E-01  0.16030872373E+01 -0.49372909349E+00  0.16795380136E+01  0.00000000000E+00 0.  1.
</event>
<event>
 7    1  0.1538805E-008  0.4614232E+02  0.7816164E-02  0.1320468E+00
        -11   -1    0    0    0    0  0.00000000000E+00  0.00000000000E+00  0.45593999997E+02  0.45594000000E+02  0.51100000000E-03 0.  1.
         11   -1    0    0    0    0 -0.00000000000E+00 -0.00000000000E+00 -0.45593999997E+02  0.45594000000E+02  0.51100000000E-03 0. -1.
    9900012    2    1    2    0    0 -0.13335915178E+02 -0.38134694378E+02 -0.19925159263E+02  0.46142317403E+02  0.99999967352E+01 0.  0.
        -12    1    1    2    0    0  0.13335915178E+02  0.38134694378E+02  0.19925159263E+02  0.45045682597E+02  0.00000000000E+00 0.  1.
         11    1    3    3    0    0 -0.10411697616E+01 -0.85431408545E+01 -0.15569976716E+01  0.87460580916E+01  0.51100000000E-03 0. -1.
        -11    1    3    3    0    0 -0.13459183187E+01 -0.12151371570E+01 -0.25056487144E+01  0.30929484593E+01  0.51100000000E-03 0.  1.
         12    1    3    3    0    0 -0.10948827098E+02 -0.28376416367E+02 -0.15862512877E+02  0.34303310852E+02  0.00000000000E+00 0. -1.
</event>
<event>
 7    1  0.1538805E-008  0.4614232E+02  0.7816164E-02  0.1320468E+00
        -11   -1    0    0    0    0  0.00000000000E+00  0.00000000000E+00  0.45593999997E+02  0.45594000000E+02  0.51100000000E-03 0. -1.
         11   -1    0    0    0    0 -0.00000000000E+00 -0.00000000000E+00 -0.45593999997E+02  0.45594000000E+02  0.51100000000E-03 0.  1.
    9900012    2    1    2    0    0 -0.23607501014E+02 -0.29943887179E+02  0.23982556899E+02  0.46142317422E+02  0.99999969077E+01 0.  0.
        -12    1    1    2    0    0  0.23607501014E+02  0.29943887179E+02 -0.23982556899E+02  0.45045682578E+02  0.00000000000E+00 0.  1.
         11    1    3    3    0    0 -0.80127193766E+01 -0.79722087248E+01  0.34075371148E+01  0.11805553490E+02  0.51100000000E-03 0. -1.
        -11    1    3    3    0    0 -0.11131626342E+01 -0.36375455966E+01  0.48945055026E+01  0.61989558309E+01  0.51100000000E-03 0.  1.
        -12    1    3    3    0    0 -0.14481619003E+02 -0.18334132858E+02  0.15680514282E+02  0.28137808101E+02  0.00000000000E+00 0.  1.
</event>
<event>
 7    1  0.1538805E-008  0.4614232E+02  0.7816164E-02  0.1320468E+00
        -11   -1    0    0    0    0  0.00000000000E+00  0.00000000000E+00  0.45593999997E+02  0.45594000000E+02  0.51100000000E-03 0. -1.
         11   -1    0    0    0    0 -0.00000000000E+00 -0.00000000000E+00 -0.45593999997E+02  0.45594000000E+02  0.51100000000E-03 0.  1.
    9900012    2    1    2    0    0  0.38869631866E+02 -0.12701274067E+02 -0.18892931586E+02  0.46142317540E+02  0.99999979874E+01 0.  0.
        -12    1    1    2    0    0 -0.38869631866E+02  0.12701274067E+02  0.18892931586E+02  0.45045682460E+02  0.00000000000E+00 0.  1.
         11    1    3    3    0    0  0.14394643726E+02 -0.22085377436E+01 -0.49361205120E+01  0.15376888272E+02  0.51100000000E-03 0. -1.
        -11    1    3    3    0    0  0.16520856727E+02 -0.38975136297E+01 -0.73240776718E+01  0.18487061246E+02  0.51100000000E-03 0.  1.
        -12    1    3    3    0    0  0.79541314129E+01 -0.65952226937E+01 -0.66327334026E+01  0.12278368023E+02  0.00000000000E+00 0.  1.
</event>
<event>
 7    1  0.1538805E-008  0.4614232E+02  0.7816164E-02  0.1320468E+00
        -11   -1    0    0    0    0  0.00000000000E+00  0.00000000000E+00  0.45593999997E+02  0.45594000000E+02  0.51100000000E-03 0.  1.
         11   -1    0    0    0    0 -0.00000000000E+00 -0.00000000000E+00 -0.45593999997E+02  0.45594000000E+02  0.51100000000E-03 0. -1.
    9900012    2    1    2    0    0  0.26650936962E+02 -0.12927178434E+02 -0.33937134737E+02  0.46142317661E+02  0.99999990911E+01 0.  0.
        -12    1    1    2    0    0 -0.26650936962E+02  0.12927178434E+02  0.33937134737E+02  0.45045682339E+02  0.00000000000E+00 0.  1.
         11    1    3    3    0    0  0.37330438724E+01 -0.25705466208E+01 -0.38687162402E+01  0.59590512745E+01  0.51100000000E-03 0. -1.
        -11    1    3    3    0    0  0.46290080483E+01 -0.38783781871E+01 -0.26514001736E+01  0.65954117396E+01  0.51100000000E-03 0.  1.
        -12    1    3    3    0    0  0.18288885041E+02 -0.64782536259E+01 -0.27417018323E+02  0.33587854647E+02  0.00000000000E+00 0.  1.
</event>
<event>
 7    1  0.1538805E-008  0.4614232E+02  0.7816164E-02  0.1320468E+00
        -11   -1    0    0    0    0  0.00000000000E+00  0.00000000000E+00  0.45593999997E+02  0.45594000000E+02  0.51100000000E-03 0. -1.
         11   -1    0    0    0    0 -0.00000000000E+00 -0.00000000000E+00 -0.45593999997E+02  0.45594000000E+02  0.51100000000E-03 0.  1.
    9900012    2    1    2    0    0 -0.58083381335E+01 -0.35923687147E+02  0.26549301563E+02  0.46142317592E+02  0.99999984594E+01 0.  0.
        -12    1    1    2    0    0  0.58083381335E+01  0.35923687147E+02 -0.26549301563E+02  0.45045682408E+02  0.00000000000E+00 0.  1.
         11    1    3    3    0    0 -0.27890724625E+01 -0.87750013893E+01  0.92629738110E+01  0.13060714325E+02  0.51100000000E-03 0.  1.
        -11    1    3    3    0    0  0.17772328271E+01 -0.85956943331E+01  0.75956408579E+01  0.11607681848E+02  0.51100000000E-03 0. -1.
        -12    1    3    3    0    0 -0.47964984981E+01 -0.18552991424E+02  0.96906868944E+01  0.21473921419E+02  0.00000000000E+00 0.  1.
</event>
<event>
 7    1  0.1538805E-008  0.4614232E+02  0.7816164E-02  0.1320468E+00
        -11   -1    0    0    0    0  0.00000000000E+00  0.00000000000E+00  0.45593999997E+02  0.45594000000E+02  0.51100000000E-03 0.  1.
         11   -1    0    0    0    0 -0.00000000000E+00 -0.00000000000E+00 -0.45593999997E+02  0.45594000000E+02  0.51100000000E-03 0. -1.
    9900012    2    1    2    0    0  0.21931714114E+02 -0.18509544189E+02 -0.34720456666E+02  0.46142318507E+02  0.10000006801E+02 0.  0.
        -12    1    1    2    0    0 -0.21931714114E+02  0.18509544189E+02  0.34720456666E+02  0.45045681493E+02  0.00000000000E+00 0.  1.
         11    1    3    3    0    0  0.16743371665E+01 -0.15618315919E+01 -0.52160312574E+01  0.56964642725E+01  0.51100000000E-03 0. -1.
        -11    1    3    3    0    0  0.40605765432E+01 -0.16466495333E-01 -0.28728471436E+01  0.49741133863E+01  0.51100000000E-03 0.  1.
        -12    1    3    3    0    0  0.16196800405E+02 -0.16931246101E+02 -0.26631578265E+02  0.35471740848E+02  0.00000000000E+00 0.  1.
</event>
<event>
 7    1  0.1538805E-008  0.4614232E+02  0.7816164E-02  0.1320468E+00
        -11   -1    0    0    0    0  0.00000000000E+00  0.00000000000E+00  0.45593999997E+02  0.45594000000E+02  0.51100000000E-03 0. -1.
         11   -1    0    0    0    0 -0.00000000000E+00 -0.00000000000E+00 -0.45593999997E+02  0.45594000000E+02  0.51100000000E-03 0.  1.
    9900012    2    1    2    0    0 -0.33320416891E+02  0.28849590847E+02 -0.93039970849E+01  0.46142318347E+02  0.10000005344E+02 0.  0.
        -12    1    1    2    0    0  0.33320416891E+02 -0.28849590847E+02  0.93039970849E+01  0.45045681653E+02  0.00000000000E+00 0.  1.
         11    1    3    3    0    0 -0.31762998711E+02  0.27208326441E+02 -0.98782670036E+01  0.42973960420E+02  0.51100000000E-03 0. -1.
        -11    1    3    3    0    0  0.46198736228E+00  0.36547374189E-01  0.34711030162E+00  0.57901110186E+00  0.51100000000E-03 0.  1.
        -12    1    3    3    0    0 -0.20194055416E+01  0.16047170315E+01  0.22715961704E+00  0.25893468258E+01  0.00000000000E+00 0.  1.
</event>
<event>
 7    1  0.1538805E-008  0.4614232E+02  0.7816164E-02  0.1320468E+00
        -11   -1    0    0    0    0  0.00000000000E+00  0.00000000000E+00  0.45593999997E+02  0.45594000000E+02  0.51100000000E-03 0. -1.
         11   -1    0    0    0    0 -0.00000000000E+00 -0.00000000000E+00 -0.45593999997E+02  0.45594000000E+02  0.51100000000E-03 0.  1.
    9900012    2    1    2    0    0  0.29315406569E+02  0.29023175593E+02  0.18093527047E+02  0.46142317579E+02  0.99999983399E+01 0.  0.
        -12    1    1    2    0    0 -0.29315406569E+02 -0.29023175593E+02 -0.18093527047E+02  0.45045682421E+02  0.00000000000E+00 0.  1.
         11    1    3    3    0    0  0.67761551891E+01  0.11078387437E+02  0.43759458331E+01  0.13703862578E+02  0.51100000000E-03 0. -1.
        -11    1    3    3    0    0  0.79781714518E+00 -0.41309634980E+00  0.73823405980E+00  0.11628200977E+01  0.51100000000E-03 0.  1.
        -12    1    3    3    0    0  0.21741434234E+02  0.18357884505E+02  0.12979347154E+02  0.31275634904E+02  0.00000000000E+00 0.  1.
</event>
<event>
 7    1  0.1538805E-008  0.4614232E+02  0.7816164E-02  0.1320468E+00
        -11   -1    0    0    0    0  0.00000000000E+00  0.00000000000E+00  0.45593999997E+02  0.45594000000E+02  0.51100000000E-03 0.  1.
         11   -1    0    0    0    0 -0.00000000000E+00 -0.00000000000E+00 -0.45593999997E+02  0.45594000000E+02  0.51100000000E-03 0. -1.
    9900012    2    1    2    0    0 -0.18313700080E+02 -0.97290185825E+01 -0.39988350588E+02  0.46142316567E+02  0.99999891091E+01 0.  0.
        -12    1    1    2    0    0  0.18313700080E+02  0.97290185825E+01  0.39988350588E+02  0.45045683433E+02  0.00000000000E+00 0.  1.
         11    1    3    3    0    0 -0.15182844053E+02 -0.82727287310E+01 -0.28175258591E+02  0.33057555734E+02  0.51100000000E-03 0. -1.
        -11    1    3    3    0    0 -0.29335599384E+01 -0.20625791883E+01 -0.11911518113E+02  0.12439625028E+02  0.51100000000E-03 0.  1.
        -12    1    3    3    0    0 -0.19729608844E+00  0.60628933685E+00  0.98426115331E-01  0.64513580483E+00  0.00000000000E+00 0.  1.
</event>
<event>
 7    1  0.1538805E-008  0.4614232E+02  0.7816164E-02  0.1320468E+00
        -11   -1    0    0    0    0  0.00000000000E+00  0.00000000000E+00  0.45593999997E+02  0.45594000000E+02  0.51100000000E-03 0. -1.
         11   -1    0    0    0    0 -0.00000000000E+00 -0.00000000000E+00 -0.45593999997E+02  0.45594000000E+02  0.51100000000E-03 0.  1.
    9900012    2    1    2    0    0 -0.28668361832E+02 -0.33782704437E+02 -0.81220267580E+01  0.46142318655E+02  0.10000008147E+02 0.  0.
        -12    1    1    2    0    0  0.28668361832E+02  0.33782704437E+02  0.81220267580E+01  0.45045681345E+02  0.00000000000E+00 0.  1.
         11    1    3    3    0    0 -0.17664271187E+01 -0.71865021097E+00  0.56150982059E+00  0.19879679150E+01  0.51100000000E-03 0. -1.
        -11    1    3    3    0    0 -0.61447086604E+01 -0.32299020710E+01 -0.11360143157E+01  0.70342192670E+01  0.51100000000E-03 0.  1.
         12    1    3    3    0    0 -0.20757226053E+02 -0.29834152155E+02 -0.75475222629E+01  0.37120131472E+02  0.00000000000E+00 0. -1.
</event>
<event>
 7    1  0.1538805E-008  0.4614232E+02  0.7816164E-02  0.1320468E+00
        -11   -1    0    0    0    0  0.00000000000E+00  0.00000000000E+00  0.45593999997E+02  0.45594000000E+02  0.51100000000E-03 0. -1.
         11   -1    0    0    0    0 -0.00000000000E+00 -0.00000000000E+00 -0.45593999997E+02  0.45594000000E+02  0.51100000000E-03 0.  1.
    9900012    2    1    2    0    0 -0.33465375161E+02 -0.30220870767E+01  0.30000818828E+02  0.46142317906E+02  0.10000001317E+02 0.  0.
        -12    1    1    2    0    0  0.33465375161E+02  0.30220870767E+01 -0.30000818828E+02  0.45045682094E+02  0.00000000000E+00 0.  1.
         11    1    3    3    0    0 -0.23531219464E+02 -0.44126844490E+01  0.22173303197E+02  0.32631969730E+02  0.51100000000E-03 0. -1.
        -11    1    3    3    0    0 -0.16419590598E+01  0.11483720276E+00 -0.46869332148E+00  0.17114002536E+01  0.51100000000E-03 0.  1.
         12    1    3    3    0    0 -0.82921966379E+01  0.12757601695E+01  0.82962089525E+01  0.11798947922E+02  0.00000000000E+00 0. -1.
</event>
<event>
 7    1  0.1538805E-008  0.4614232E+02  0.7816164E-02  0.1320468E+00
        -11   -1    0    0    0    0  0.00000000000E+00  0.00000000000E+00  0.45593999997E+02  0.45594000000E+02  0.51100000000E-03 0.  1.
         11   -1    0    0    0    0 -0.00000000000E+00 -0.00000000000E+00 -0.45593999997E+02  0.45594000000E+02  0.51100000000E-03 0. -1.
    9900012    2    1    2    0    0 -0.32771342305E+02 -0.22156340821E+02 -0.21546442281E+02  0.46142317742E+02  0.99999998302E+01 0.  0.
        -12    1    1    2    0    0  0.32771342305E+02  0.22156340821E+02  0.21546442281E+02  0.45045682258E+02  0.00000000000E+00 0.  1.
         11    1    3    3    0    0 -0.15387395824E+02 -0.95313008403E+01 -0.10499321098E+02  0.20924946588E+02  0.51100000000E-03 0. -1.
        -11    1    3    3    0    0 -0.63182905230E+01 -0.32353343725E+01 -0.73986236916E+01  0.10253185672E+02  0.51100000000E-03 0.  1.
        -12    1    3    3    0    0 -0.11065655959E+02 -0.93897056080E+01 -0.36484974923E+01  0.14964185482E+02  0.00000000000E+00 0.  1.
</event>
<event>
 7    1  0.1538805E-008  0.4614232E+02  0.7816164E-02  0.1320468E+00
        -11   -1    0    0    0    0  0.00000000000E+00  0.00000000000E+00  0.45593999997E+02  0.45594000000E+02  0.51100000000E-03 0.  1.
         11   -1    0    0    0    0 -0.00000000000E+00 -0.00000000000E+00 -0.45593999997E+02  0.45594000000E+02  0.51100000000E-03 0. -1.
    9900012    2    1    2    0    0 -0.29937615275E+02  0.32979708698E+02 -0.67224653728E+01  0.46142317245E+02  0.99999952905E+01 0.  0.
        -12    1    1    2    0    0  0.29937615275E+02 -0.32979708698E+02  0.67224653728E+01  0.45045682755E+02  0.00000000000E+00 0.  1.
         11    1    3    3    0    0 -0.22555759853E+02  0.22800760898E+02 -0.43733512577E+01  0.32369170542E+02  0.51100000000E-03 0. -1.
        -11    1    3    3    0    0 -0.42214820717E+01  0.32042047898E+01 -0.29968892408E+01  0.60884468134E+01  0.51100000000E-03 0.  1.
        -12    1    3    3    0    0 -0.31603733505E+01  0.69747430104E+01  0.64777512564E+00  0.76846998893E+01  0.00000000000E+00 0.  1.
</event>
<event>
 7    1  0.1538805E-008  0.4614232E+02  0.7816164E-02  0.1320468E+00
        -11   -1    0    0    0    0  0.00000000000E+00  0.00000000000E+00  0.45593999997E+02  0.45594000000E+02  0.51100000000E-03 0. -1.
         11   -1    0    0    0    0 -0.00000000000E+00 -0.00000000000E+00 -0.45593999997E+02  0.45594000000E+02  0.51100000000E-03 0.  1.
    9900012    2    1    2    0    0  0.26104922980E+02  0.35431217997E+02 -0.96060050857E+01  0.46142317119E+02  0.99999941411E+01 0.  0.
        -12    1    1    2    0    0 -0.26104922980E+02 -0.35431217997E+02  0.96060050857E+01  0.45045682881E+02  0.00000000000E+00 0.  1.
         11    1    3    3    0    0  0.16132740037E+02  0.18514552815E+02 -0.32100350563E+01  0.24766071395E+02  0.51100000000E-03 0. -1.
        -11    1    3    3    0    0  0.25053917326E+01  0.74174652234E+01 -0.28044163647E+00  0.78341831640E+01  0.51100000000E-03 0.  1.
         12    1    3    3    0    0  0.74667912109E+01  0.94991999588E+01 -0.61155283929E+01  0.13542062560E+02  0.00000000000E+00 0. -1.
</event>
<event>
 7    1  0.1538805E-008  0.4614232E+02  0.7816164E-02  0.1320468E+00
        -11   -1    0    0    0    0  0.00000000000E+00  0.00000000000E+00  0.45593999997E+02  0.45594000000E+02  0.51100000000E-03 0. -1.
         11   -1    0    0    0    0 -0.00000000000E+00 -0.00000000000E+00 -0.45593999997E+02  0.45594000000E+02  0.51100000000E-03 0.  1.
    9900012    2    1    2    0    0  0.34558305836E+02 -0.28090561841E+02  0.67644144630E+01  0.46142317967E+02  0.10000001876E+02 0.  0.
        -12    1    1    2    0    0 -0.34558305836E+02  0.28090561841E+02 -0.67644144630E+01  0.45045682033E+02  0.00000000000E+00 0.  1.
         11    1    3    3    0    0  0.21226839270E+02 -0.18238603961E+02  0.60006044287E+01  0.28622240192E+02  0.51100000000E-03 0. -1.
        -11    1    3    3    0    0  0.43788664843E+01 -0.31280867658E+00 -0.26103527217E+00  0.43977790565E+01  0.51100000000E-03 0.  1.
         12    1    3    3    0    0  0.89526000817E+01 -0.95391492034E+01  0.10248453065E+01  0.13122298718E+02  0.00000000000E+00 0. -1.
</event>
<event>
 7    1  0.1538805E-008  0.4614232E+02  0.7816164E-02  0.1320468E+00
        -11   -1    0    0    0    0  0.00000000000E+00  0.00000000000E+00  0.45593999997E+02  0.45594000000E+02  0.51100000000E-03 0.  1.
         11   -1    0    0    0    0 -0.00000000000E+00 -0.00000000000E+00 -0.45593999997E+02  0.45594000000E+02  0.51100000000E-03 0. -1.
    9900012    2    1    2    0    0  0.18938699842E+02 -0.31970911308E+02 -0.25461736899E+02  0.46142316883E+02  0.99999919912E+01 0.  0.
        -12    1    1    2    0    0 -0.18938699842E+02  0.31970911308E+02  0.25461736899E+02  0.45045683117E+02  0.00000000000E+00 0.  1.
         11    1    3    3    0    0  0.10098495731E+01 -0.73582213408E+01 -0.33902359399E+01  0.81643687723E+01  0.51100000000E-03 0. -1.
        -11    1    3    3    0    0  0.15006234225E+02 -0.18459815181E+02 -0.19260016370E+02  0.30608823450E+02  0.51100000000E-03 0.  1.
        -12    1    3    3    0    0  0.29226160435E+01 -0.61528747858E+01 -0.28114845893E+01  0.73691246606E+01  0.00000000000E+00 0.  1.
</event>
<event>
 7    1  0.1538805E-008  0.4614232E+02  0.7816164E-02  0.1320468E+00
        -11   -1    0    0    0    0  0.00000000000E+00  0.00000000000E+00  0.45593999997E+02  0.45594000000E+02  0.51100000000E-03 0. -1.
         11   -1    0    0    0    0 -0.00000000000E+00 -0.00000000000E+00 -0.45593999997E+02  0.45594000000E+02  0.51100000000E-03 0.  1.
    9900012    2    1    2    0    0  0.19834154978E+02 -0.79476976559E+01  0.39655440391E+02  0.46142317029E+02  0.99999933247E+01 0.  0.
        -12    1    1    2    0    0 -0.19834154978E+02  0.79476976559E+01 -0.39655440391E+02  0.45045682971E+02  0.00000000000E+00 0.  1.
         11    1    3    3    0    0  0.17947093294E+01  0.12615800748E-01  0.63715070991E+01  0.66194594727E+01  0.51100000000E-03 0. -1.
        -11    1    3    3    0    0  0.93554158751E+01  0.80808900913E-01  0.12621233253E+02  0.15710692708E+02  0.51100000000E-03 0.  1.
        -12    1    3    3    0    0  0.86840297736E+01 -0.80411223576E+01  0.20662700039E+02  0.23812164849E+02  0.00000000000E+00 0.  1.
</event>
<event>
 7    1  0.1538805E-008  0.4614231E+02  0.7816164E-02  0.1320468E+00
        -11   -1    0    0    0    0  0.00000000000E+00  0.00000000000E+00  0.45593999997E+02  0.45594000000E+02  0.51100000000E-03 0.  1.
         11   -1    0    0    0    0 -0.00000000000E+00 -0.00000000000E+00 -0.45593999997E+02  0.45594000000E+02  0.51100000000E-03 0. -1.
    9900012    2    1    2    0    0  0.37960062561E+02  0.45513659476E+01 -0.23820846004E+02  0.46142312238E+02  0.99999496352E+01 0.  0.
        -12    1    1    2    0    0 -0.37960062561E+02 -0.45513659476E+01  0.23820846004E+02  0.45045687762E+02  0.00000000000E+00 0.  1.
         11    1    3    3    0    0  0.18201579042E+02  0.99239539694E+00 -0.86395221190E+01  0.20172349168E+02  0.51100000000E-03 0. -1.
        -11    1    3    3    0    0  0.25902454070E+01  0.57758242452E+00  0.28736755481E+00  0.26693731658E+01  0.51100000000E-03 0.  1.
         12    1    3    3    0    0  0.17168238112E+02  0.29813881261E+01 -0.15468691440E+02  0.23300589904E+02  0.00000000000E+00 0. -1.
</event>
<event>
 7    1  0.1538805E-008  0.4614232E+02  0.7816164E-02  0.1320468E+00
        -11   -1    0    0    0    0  0.00000000000E+00  0.00000000000E+00  0.45593999997E+02  0.45594000000E+02  0.51100000000E-03 0.  1.
         11   -1    0    0    0    0 -0.00000000000E+00 -0.00000000000E+00 -0.45593999997E+02  0.45594000000E+02  0.51100000000E-03 0. -1.
    9900012    2    1    2    0    0  0.41645537539E+02 -0.69418771310E+01 -0.15702644848E+02  0.46142317518E+02  0.99999977871E+01 0.  0.
        -12    1    1    2    0    0 -0.41645537539E+02  0.69418771310E+01  0.15702644848E+02  0.45045682482E+02  0.00000000000E+00 0.  1.
         11    1    3    3    0    0  0.18736857713E+02 -0.62072579107E+01 -0.40101412815E+01  0.20141527278E+02  0.51100000000E-03 0. -1.
        -11    1    3    3    0    0  0.88450034213E+01  0.14204161610E+01 -0.38050709875E+01  0.97329457553E+01  0.51100000000E-03 0.  1.
         12    1    3    3    0    0  0.14063676404E+02 -0.21550353812E+01 -0.78874325791E+01  0.16267844485E+02  0.00000000000E+00 0. -1.
</event>
<event>
 7    1  0.1538805E-008  0.4614232E+02  0.7816164E-02  0.1320468E+00
        -11   -1    0    0    0    0  0.00000000000E+00  0.00000000000E+00  0.45593999997E+02  0.45594000000E+02  0.51100000000E-03 0.  1.
         11   -1    0    0    0    0 -0.00000000000E+00 -0.00000000000E+00 -0.45593999997E+02  0.45594000000E+02  0.51100000000E-03 0. -1.
    9900012    2    1    2    0    0  0.15637084260E+02  0.42117344101E+02  0.32748104102E+01  0.46142318059E+02  0.10000002718E+02 0.  0.
        -12    1    1    2    0    0 -0.15637084260E+02 -0.42117344101E+02 -0.32748104102E+01  0.45045681941E+02  0.00000000000E+00 0.  1.
         11    1    3    3    0    0  0.30577497830E+01  0.62973613463E+01  0.20787455214E+01  0.73025869981E+01  0.51100000000E-03 0. -1.
        -11    1    3    3    0    0  0.86128578069E+01  0.32576647638E+02  0.91728656822E+00  0.33708466382E+02  0.51100000000E-03 0.  1.
        -12    1    3    3    0    0  0.39664766699E+01  0.32433351172E+01  0.27877832056E+00  0.51312646791E+01  0.00000000000E+00 0.  1.
</event>
<event>
 7    1  0.1538805E-008  0.4614232E+02  0.7816164E-02  0.1320468E+00
        -11   -1    0    0    0    0  0.00000000000E+00  0.00000000000E+00  0.45593999997E+02  0.45594000000E+02  0.51100000000E-03 0. -1.
         11   -1    0    0    0    0 -0.00000000000E+00 -0.00000000000E+00 -0.45593999997E+02  0.45594000000E+02  0.51100000000E-03 0.  1.
    9900012    2    1    2    0    0 -0.22042774927E+02  0.29848126976E+02  0.25540534332E+02  0.46142317582E+02  0.99999983708E+01 0.  0.
        -12    1    1    2    0    0  0.22042774927E+02 -0.29848126976E+02 -0.25540534332E+02  0.45045682418E+02  0.00000000000E+00 0.  1.
         11    1    3    3    0    0 -0.53382539263E+01  0.89406619146E+01  0.46468899189E+01  0.11402893345E+02  0.51100000000E-03 0. -1.
        -11    1    3    3    0    0 -0.66566786482E+01  0.12243489645E+02  0.72521315761E+01  0.15710118458E+02  0.51100000000E-03 0.  1.
        -12    1    3    3    0    0 -0.10047842353E+02  0.86639754172E+01  0.13641512837E+02  0.19029305780E+02  0.00000000000E+00 0.  1.
</event>
<event>
 7    1  0.1538805E-008  0.4614232E+02  0.7816164E-02  0.1320468E+00
        -11   -1    0    0    0    0  0.00000000000E+00  0.00000000000E+00  0.45593999997E+02  0.45594000000E+02  0.51100000000E-03 0.  1.
         11   -1    0    0    0    0 -0.00000000000E+00 -0.00000000000E+00 -0.45593999997E+02  0.45594000000E+02  0.51100000000E-03 0. -1.
    9900012    2    1    2    0    0  0.23756979813E+02  0.36694816038E+02 -0.10872434620E+02  0.46142318204E+02  0.10000004041E+02 0.  0.
        -12    1    1    2    0    0 -0.23756979813E+02 -0.36694816038E+02  0.10872434620E+02  0.45045681796E+02  0.00000000000E+00 0.  1.
         11    1    3    3    0    0  0.13335327469E+02  0.21247013627E+02 -0.77148623359E+01  0.26244726097E+02  0.51100000000E-03 0. -1.
        -11    1    3    3    0    0  0.75957440589E+01  0.79150485651E+01 -0.42776510210E+01  0.11774617621E+02  0.51100000000E-03 0.  1.
         12    1    3    3    0    0  0.28259082844E+01  0.75327538453E+01  0.11200787369E+01  0.81229744862E+01  0.00000000000E+00 0. -1.
</event>
<event>
 7    1  0.1538805E-008  0.4614232E+02  0.7816164E-02  0.1320468E+00
        -11   -1    0    0    0    0  0.00000000000E+00  0.00000000000E+00  0.45593999997E+02  0.45594000000E+02  0.51100000000E-03 0.  1.
         11   -1    0    0    0    0 -0.00000000000E+00 -0.00000000000E+00 -0.45593999997E+02  0.45594000000E+02  0.51100000000E-03 0. -1.
    9900012    2    1    2    0    0 -0.65476248093E-01  0.24747461906E+02 -0.37638700590E+02  0.46142323847E+02  0.10000055497E+02 0.  0.
        -12    1    1    2    0    0  0.65476248093E-01 -0.24747461906E+02  0.37638700590E+02  0.45045676153E+02  0.00000000000E+00 0.  1.
         11    1    3    3    0    0  0.63044445954E-01  0.20459145952E+01 -0.28036079175E+01  0.34713050499E+01  0.51100000000E-03 0. -1.
        -11    1    3    3    0    0 -0.48065019075E+01  0.13199476749E+02 -0.19410605158E+02  0.23960388976E+02  0.51100000000E-03 0.  1.
        -12    1    3    3    0    0  0.46779812134E+01  0.95020705624E+01 -0.15424487515E+02  0.18710629821E+02  0.00000000000E+00 0.  1.
</event>
<event>
 7    1  0.1538805E-008  0.4614232E+02  0.7816164E-02  0.1320468E+00
        -11   -1    0    0    0    0  0.00000000000E+00  0.00000000000E+00  0.45593999997E+02  0.45594000000E+02  0.51100000000E-03 0.  1.
         11   -1    0    0    0    0 -0.00000000000E+00 -0.00000000000E+00 -0.45593999997E+02  0.45594000000E+02  0.51100000000E-03 0. -1.
    9900012    2    1    2    0    0  0.20604967812E+02 -0.36725312298E+01 -0.39888109376E+02  0.46142318146E+02  0.10000003505E+02 0.  0.
        -12    1    1    2    0    0 -0.20604967812E+02  0.36725312298E+01  0.39888109376E+02  0.45045681854E+02  0.00000000000E+00 0.  1.
         11    1    3    3    0    0 -0.64898015902E-03 -0.78182180386E+00 -0.42757791819E+01  0.43466692567E+01  0.51100000000E-03 0. -1.
        -11    1    3    3    0    0  0.20622206443E+01  0.15543095849E+01 -0.25544936780E+01  0.36323643104E+01  0.51100000000E-03 0.  1.
         12    1    3    3    0    0  0.18543396148E+02 -0.44450190108E+01 -0.33057836516E+02  0.38163284578E+02  0.00000000000E+00 0. -1.
</event>
<event>
 7    1  0.1538805E-008  0.4614232E+02  0.7816164E-02  0.1320468E+00
        -11   -1    0    0    0    0  0.00000000000E+00  0.00000000000E+00  0.45593999997E+02  0.45594000000E+02  0.51100000000E-03 0.  1.
         11   -1    0    0    0    0 -0.00000000000E+00 -0.00000000000E+00 -0.45593999997E+02  0.45594000000E+02  0.51100000000E-03 0. -1.
    9900012    2    1    2    0    0 -0.18197746485E+01 -0.96238761599E+01 -0.43967975697E+02  0.46142318087E+02  0.10000002969E+02 0.  0.
        -12    1    1    2    0    0  0.18197746485E+01  0.96238761599E+01  0.43967975697E+02  0.45045681913E+02  0.00000000000E+00 0.  1.
         11    1    3    3    0    0  0.18065858797E+01 -0.42752649766E+01 -0.98261626254E+01  0.10867157649E+02  0.51100000000E-03 0. -1.
        -11    1    3    3    0    0  0.15713854376E+01 -0.25736737630E+00 -0.58706360567E+01  0.60827508687E+01  0.51100000000E-03 0.  1.
        -12    1    3    3    0    0 -0.51977459657E+01 -0.50912438070E+01 -0.28271177015E+02  0.29192409569E+02  0.00000000000E+00 0.  1.
</event>
<event>
 7    1  0.1538805E-008  0.4614232E+02  0.7816164E-02  0.1320468E+00
        -11   -1    0    0    0    0  0.00000000000E+00  0.00000000000E+00  0.45593999997E+02  0.45594000000E+02  0.51100000000E-03 0. -1.
         11   -1    0    0    0    0 -0.00000000000E+00 -0.00000000000E+00 -0.45593999997E+02  0.45594000000E+02  0.51100000000E-03 0.  1.
    9900012    2    1    2    0    0  0.41399074877E+02 -0.12724725332E+02  0.12381895315E+02  0.46142319108E+02  0.10000012280E+02 0.  0.
        -12    1    1    2    0    0 -0.41399074877E+02  0.12724725332E+02 -0.12381895315E+02  0.45045680892E+02  0.00000000000E+00 0.  1.
         11    1    3    3    0    0  0.31372794367E+02 -0.89284363377E+01  0.10184589844E+02  0.34171553555E+02  0.51100000000E-03 0. -1.
        -11    1    3    3    0    0 -0.58122718834E-01  0.70284134287E+00 -0.29894320834E-01  0.70587402221E+00  0.51100000000E-03 0.  1.
        -12    1    3    3    0    0  0.10084403229E+02 -0.44991303367E+01  0.22271997912E+01  0.11264891530E+02  0.00000000000E+00 0.  1.
</event>
<event>
 7    1  0.1538805E-008  0.4614232E+02  0.7816164E-02  0.1320468E+00
        -11   -1    0    0    0    0  0.00000000000E+00  0.00000000000E+00  0.45593999997E+02  0.45594000000E+02  0.51100000000E-03 0.  1.
         11   -1    0    0    0    0 -0.00000000000E+00 -0.00000000000E+00 -0.45593999997E+02  0.45594000000E+02  0.51100000000E-03 0. -1.
    9900012    2    1    2    0    0 -0.15324798861E+01 -0.25972373546E+02 -0.36772282697E+02  0.46142318109E+02  0.10000003176E+02 0.  0.
        -12    1    1    2    0    0  0.15324798861E+01  0.25972373546E+02  0.36772282697E+02  0.45045681891E+02  0.00000000000E+00 0.  1.
         11    1    3    3    0    0 -0.61774486399E+00 -0.18713359440E+02 -0.28173534080E+02  0.33827791135E+02  0.51100000000E-03 0. -1.
        -11    1    3    3    0    0  0.11570749101E+01 -0.57032426008E+01 -0.40851060426E+01  0.71101258886E+01  0.51100000000E-03 0.  1.
         12    1    3    3    0    0 -0.20718099322E+01 -0.15557715052E+01 -0.45136425749E+01  0.52044010861E+01  0.00000000000E+00 0. -1.
</event>
<event>
 7    1  0.1538805E-008  0.4614232E+02  0.7816164E-02  0.1320468E+00
        -11   -1    0    0    0    0  0.00000000000E+00  0.00000000000E+00  0.45593999997E+02  0.45594000000E+02  0.51100000000E-03 0.  1.
         11   -1    0    0    0    0 -0.00000000000E+00 -0.00000000000E+00 -0.45593999997E+02  0.45594000000E+02  0.51100000000E-03 0. -1.
    9900012    2    1    2    0    0  0.14896710461E+02 -0.15400297674E+02 -0.39623632975E+02  0.46142318285E+02  0.10000004780E+02 0.  0.
        -12    1    1    2    0    0 -0.14896710461E+02  0.15400297674E+02  0.39623632975E+02  0.45045681715E+02  0.00000000000E+00 0.  1.
         11    1    3    3    0    0  0.88471766270E+00 -0.39267342787E+01 -0.14984220930E+02  0.15515438910E+02  0.51100000000E-03 0. -1.
        -11    1    3    3    0    0  0.97871893157E+00 -0.36290610694E+00 -0.17804347918E+01  0.20638652811E+01  0.51100000000E-03 0.  1.
         12    1    3    3    0    0  0.13033273867E+02 -0.11110657288E+02 -0.22858977253E+02  0.28563014094E+02  0.00000000000E+00 0. -1.
</event>
<event>
 7    1  0.1538805E-008  0.4614232E+02  0.7816164E-02  0.1320468E+00
        -11   -1    0    0    0    0  0.00000000000E+00  0.00000000000E+00  0.45593999997E+02  0.45594000000E+02  0.51100000000E-03 0.  1.
         11   -1    0    0    0    0 -0.00000000000E+00 -0.00000000000E+00 -0.45593999997E+02  0.45594000000E+02  0.51100000000E-03 0. -1.
    9900012    2    1    2    0    0 -0.32705160918E+02 -0.26814248018E+02 -0.15507483864E+02  0.46142317596E+02  0.99999984925E+01 0.  0.
        -12    1    1    2    0    0  0.32705160918E+02  0.26814248018E+02  0.15507483864E+02  0.45045682404E+02  0.00000000000E+00 0.  1.
         11    1    3    3    0    0 -0.29620374727E+02 -0.26291429053E+02 -0.13603258583E+02  0.41876657996E+02  0.51100000000E-03 0. -1.
        -11    1    3    3    0    0 -0.19600298977E+01 -0.35073498553E+00  0.64013494243E-01  0.19921923146E+01  0.51100000000E-03 0.  1.
         12    1    3    3    0    0 -0.11247562938E+01 -0.17208397919E+00 -0.19682387758E+01  0.22734672847E+01  0.00000000000E+00 0. -1.
</event>
<event>
 7    1  0.1538805E-008  0.4614232E+02  0.7816164E-02  0.1320468E+00
        -11   -1    0    0    0    0  0.00000000000E+00  0.00000000000E+00  0.45593999997E+02  0.45594000000E+02  0.51100000000E-03 0.  1.
         11   -1    0    0    0    0 -0.00000000000E+00 -0.00000000000E+00 -0.45593999997E+02  0.45594000000E+02  0.51100000000E-03 0. -1.
    9900012    2    1    2    0    0  0.33549881785E+02  0.27520555733E+02 -0.12088756779E+02  0.46142316565E+02  0.99999890915E+01 0.  0.
        -12    1    1    2    0    0 -0.33549881785E+02 -0.27520555733E+02  0.12088756779E+02  0.45045683435E+02  0.00000000000E+00 0.  1.
         11    1    3    3    0    0  0.10464759092E+01 -0.25330479336E-01 -0.19086832241E+01  0.21768843269E+01  0.51100000000E-03 0.  1.
        -11    1    3    3    0    0  0.19386418829E+02  0.18758030868E+02 -0.60630194888E+01  0.27648818468E+02  0.51100000000E-03 0. -1.
         12    1    3    3    0    0  0.13116987047E+02  0.87878553442E+01 -0.41170540661E+01  0.16316613770E+02  0.00000000000E+00 0. -1.
</event>
<event>
 7    1  0.1538805E-008  0.4614232E+02  0.7816164E-02  0.1320468E+00
        -11   -1    0    0    0    0  0.00000000000E+00  0.00000000000E+00  0.45593999997E+02  0.45594000000E+02  0.51100000000E-03 0.  1.
         11   -1    0    0    0    0 -0.00000000000E+00 -0.00000000000E+00 -0.45593999997E+02  0.45594000000E+02  0.51100000000E-03 0. -1.
    9900012    2    1    2    0    0  0.36684454329E+02 -0.25925572969E+02  0.33509704886E+01  0.46142317339E+02  0.99999961484E+01 0.  0.
        -12    1    1    2    0    0 -0.36684454329E+02  0.25925572969E+02 -0.33509704886E+01  0.45045682661E+02  0.00000000000E+00 0.  1.
         11    1    3    3    0    0  0.34012890755E+02 -0.21941854411E+02  0.15071270953E+01  0.40504236135E+02  0.51100000000E-03 0. -1.
        -11    1    3    3    0    0  0.66927064577E+00 -0.92528417631E+00  0.16115498917E+01  0.19751372911E+01  0.51100000000E-03 0.  1.
         12    1    3    3    0    0  0.20022929283E+01 -0.30584343818E+01  0.23229350149E+00  0.36629439130E+01  0.00000000000E+00 0. -1.
</event>
<event>
 7    1  0.1538805E-008  0.4614232E+02  0.7816164E-02  0.1320468E+00
        -11   -1    0    0    0    0  0.00000000000E+00  0.00000000000E+00  0.45593999997E+02  0.45594000000E+02  0.51100000000E-03 0.  1.
         11   -1    0    0    0    0 -0.00000000000E+00 -0.00000000000E+00 -0.45593999997E+02  0.45594000000E+02  0.51100000000E-03 0. -1.
    9900012    2    1    2    0    0  0.63096138465E+01  0.93807829663E+01 -0.43603936820E+02  0.46142316276E+02  0.99999864608E+01 0.  0.
        -12    1    1    2    0    0 -0.63096138465E+01 -0.93807829663E+01  0.43603936820E+02  0.45045683724E+02  0.00000000000E+00 0.  1.
         11    1    3    3    0    0 -0.17552870199E+01 -0.20973312431E+00 -0.10931954695E+02  0.11073962895E+02  0.51100000000E-03 0. -1.
        -11    1    3    3    0    0  0.56192162786E+01  0.68808318716E+01 -0.20067518638E+02  0.21945996067E+02  0.51100000000E-03 0.  1.
         12    1    3    3    0    0  0.24456845879E+01  0.27096842191E+01 -0.12604463487E+02  0.13122357314E+02  0.00000000000E+00 0. -1.
</event>
<event>
 7    1  0.1538805E-008  0.4614232E+02  0.7816164E-02  0.1320468E+00
        -11   -1    0    0    0    0  0.00000000000E+00  0.00000000000E+00  0.45593999997E+02  0.45594000000E+02  0.51100000000E-03 0.  1.
         11   -1    0    0    0    0 -0.00000000000E+00 -0.00000000000E+00 -0.45593999997E+02  0.45594000000E+02  0.51100000000E-03 0. -1.
    9900012    2    1    2    0    0 -0.15189387834E+02  0.31465908515E+02 -0.28430487223E+02  0.46142317575E+02  0.99999983010E+01 0.  0.
        -12    1    1    2    0    0  0.15189387834E+02 -0.31465908515E+02  0.28430487223E+02  0.45045682425E+02  0.00000000000E+00 0.  1.
         11    1    3    3    0    0 -0.67942020916E+01  0.77706244755E+01 -0.76712802958E+01  0.12860494875E+02  0.51100000000E-03 0. -1.
        -11    1    3    3    0    0 -0.73346219158E+01  0.18859311543E+02 -0.12913983864E+02  0.24005026349E+02  0.51100000000E-03 0.  1.
        -12    1    3    3    0    0 -0.10605638262E+01  0.48359724965E+01 -0.78452230634E+01  0.92767963506E+01  0.00000000000E+00 0.  1.
</event>
<event>
 7    1  0.1538805E-008  0.4614232E+02  0.7816164E-02  0.1320468E+00
        -11   -1    0    0    0    0  0.00000000000E+00  0.00000000000E+00  0.45593999997E+02  0.45594000000E+02  0.51100000000E-03 0.  1.
         11   -1    0    0    0    0 -0.00000000000E+00 -0.00000000000E+00 -0.45593999997E+02  0.45594000000E+02  0.51100000000E-03 0. -1.
    9900012    2    1    2    0    0  0.17355944158E+02  0.32254183858E+02 -0.26221217711E+02  0.46142318385E+02  0.10000005687E+02 0.  0.
        -12    1    1    2    0    0 -0.17355944158E+02 -0.32254183858E+02  0.26221217711E+02  0.45045681615E+02  0.00000000000E+00 0.  1.
         11    1    3    3    0    0  0.95103136465E+01  0.10028418680E+02 -0.10838715955E+02  0.17563969104E+02  0.51100000000E-03 0. -1.
        -11    1    3    3    0    0  0.69552650988E+01  0.19608223565E+02 -0.15276619416E+02  0.25811494436E+02  0.51100000000E-03 0.  1.
        -12    1    3    3    0    0  0.89036541261E+00  0.26175416129E+01 -0.10588233996E+00  0.27668548450E+01  0.00000000000E+00 0.  1.
</event>
<event>
 7    1  0.1538805E-008  0.4614232E+02  0.7816164E-02  0.1320468E+00
        -11   -1    0    0    0    0  0.00000000000E+00  0.00000000000E+00  0.45593999997E+02  0.45594000000E+02  0.51100000000E-03 0.  1.
         11   -1    0    0    0    0 -0.00000000000E+00 -0.00000000000E+00 -0.45593999997E+02  0.45594000000E+02  0.51100000000E-03 0. -1.
    9900012    2    1    2    0    0 -0.33191088092E+02  0.47551638007E+01 -0.30080783830E+02  0.46142317995E+02  0.10000002130E+02 0.  0.
        -12    1    1    2    0    0  0.33191088092E+02 -0.47551638007E+01  0.30080783830E+02  0.45045682005E+02  0.00000000000E+00 0.  1.
         11    1    3    3    0    0 -0.11774411854E+02  0.16091700420E+01 -0.13505661896E+02  0.17989694446E+02  0.51100000000E-03 0. -1.
        -11    1    3    3    0    0 -0.27668984153E+01  0.91266944947E+00 -0.58195206185E+01  0.65081113125E+01  0.51100000000E-03 0.  1.
        -12    1    3    3    0    0 -0.18649777823E+02  0.22333243092E+01 -0.10755601315E+02  0.21644512236E+02  0.00000000000E+00 0.  1.
</event>
<event>
 7    1  0.1538805E-008  0.4614231E+02  0.7816164E-02  0.1320468E+00
        -11   -1    0    0    0    0  0.00000000000E+00  0.00000000000E+00  0.45593999997E+02  0.45594000000E+02  0.51100000000E-03 0.  1.
         11   -1    0    0    0    0 -0.00000000000E+00 -0.00000000000E+00 -0.45593999997E+02  0.45594000000E+02  0.51100000000E-03 0. -1.
    9900012    2    1    2    0    0 -0.63327173296E+01 -0.31343128937E+02 -0.31727263994E+02  0.46142308521E+02  0.99999157393E+01 0.  0.
        -12    1    1    2    0    0  0.63327173296E+01  0.31343128937E+02  0.31727263994E+02  0.45045691479E+02  0.00000000000E+00 0.  1.
         11    1    3    3    0    0 -0.24851158837E+01 -0.11061323386E+02 -0.71771578621E+01  0.13417908601E+02  0.51100000000E-03 0. -1.
        -11    1    3    3    0    0 -0.18609048923E+01 -0.16823690996E+01 -0.11303144129E+01  0.27515347970E+01  0.51100000000E-03 0.  1.
         12    1    3    3    0    0 -0.19866965535E+01 -0.18599436451E+02 -0.23419791719E+02  0.29972865122E+02  0.00000000000E+00 0. -1.
</event>
<event>
 7    1  0.1538805E-008  0.4614232E+02  0.7816164E-02  0.1320468E+00
        -11   -1    0    0    0    0  0.00000000000E+00  0.00000000000E+00  0.45593999997E+02  0.45594000000E+02  0.51100000000E-03 0.  1.
         11   -1    0    0    0    0 -0.00000000000E+00 -0.00000000000E+00 -0.45593999997E+02  0.45594000000E+02  0.51100000000E-03 0. -1.
    9900012    2    1    2    0    0  0.82200926467E+01 -0.27254300689E+02 -0.34910553669E+02  0.46142316670E+02  0.99999900535E+01 0.  0.
        -12    1    1    2    0    0 -0.82200926467E+01  0.27254300689E+02  0.34910553669E+02  0.45045683330E+02  0.00000000000E+00 0.  1.
         11    1    3    3    0    0  0.26639140246E+01 -0.12613092000E+02 -0.21230985352E+02  0.24838302419E+02  0.51100000000E-03 0. -1.
        -11    1    3    3    0    0  0.41780054906E+01 -0.13684457125E+02 -0.13400192721E+02  0.19603195197E+02  0.51100000000E-03 0.  1.
        -12    1    3    3    0    0  0.13781731315E+01 -0.95675156337E+00 -0.27937559508E+00  0.17008190549E+01  0.00000000000E+00 0.  1.
</event>
<event>
 7    1  0.1538805E-008  0.4614232E+02  0.7816164E-02  0.1320468E+00
        -11   -1    0    0    0    0  0.00000000000E+00  0.00000000000E+00  0.45593999997E+02  0.45594000000E+02  0.51100000000E-03 0. -1.
         11   -1    0    0    0    0 -0.00000000000E+00 -0.00000000000E+00 -0.45593999997E+02  0.45594000000E+02  0.51100000000E-03 0.  1.
    9900012    2    1    2    0    0  0.55572107572E+01  0.42094231352E+00  0.44699593454E+02  0.46142318312E+02  0.10000005022E+02 0.  0.
        -12    1    1    2    0    0 -0.55572107572E+01 -0.42094231352E+00 -0.44699593454E+02  0.45045681688E+02  0.00000000000E+00 0.  1.
         11    1    3    3    0    0  0.35343845313E+01 -0.15733497853E+00  0.38411955942E+01  0.52222037651E+01  0.51100000000E-03 0. -1.
        -11    1    3    3    0    0  0.35219920262E-01 -0.11335827852E+00  0.39355061040E+01  0.39372959119E+01  0.51100000000E-03 0.  1.
         12    1    3    3    0    0  0.19876063056E+01  0.69163557056E+00  0.36922891756E+02  0.36982818635E+02  0.00000000000E+00 0. -1.
</event>
<event>
 7    1  0.1538805E-008  0.4614232E+02  0.7816164E-02  0.1320468E+00
        -11   -1    0    0    0    0  0.00000000000E+00  0.00000000000E+00  0.45593999997E+02  0.45594000000E+02  0.51100000000E-03 0. -1.
         11   -1    0    0    0    0 -0.00000000000E+00 -0.00000000000E+00 -0.45593999997E+02  0.45594000000E+02  0.51100000000E-03 0.  1.
    9900012    2    1    2    0    0 -0.22270757461E+02  0.31582337892E+00  0.39153889646E+02  0.46142318112E+02  0.10000003201E+02 0.  0.
        -12    1    1    2    0    0  0.22270757461E+02 -0.31582337892E+00 -0.39153889646E+02  0.45045681888E+02  0.00000000000E+00 0.  1.
         11    1    3    3    0    0 -0.65894709290E+01  0.13984865953E+01  0.88176414576E+01  0.11096291859E+02  0.51100000000E-03 0. -1.
        -11    1    3    3    0    0 -0.51517692201E+01  0.19765583030E+01  0.16461037559E+02  0.17361257633E+02  0.51100000000E-03 0.  1.
         12    1    3    3    0    0 -0.10529517312E+02 -0.30592215194E+01  0.13875210629E+02  0.17684768620E+02  0.00000000000E+00 0. -1.
</event>
<event>
 7    1  0.1538805E-008  0.4614232E+02  0.7816164E-02  0.1320468E+00
        -11   -1    0    0    0    0  0.00000000000E+00  0.00000000000E+00  0.45593999997E+02  0.45594000000E+02  0.51100000000E-03 0.  1.
         11   -1    0    0    0    0 -0.00000000000E+00 -0.00000000000E+00 -0.45593999997E+02  0.45594000000E+02  0.51100000000E-03 0. -1.
    9900012    2    1    2    0    0 -0.27718646886E+02 -0.17685873978E+02 -0.30789608423E+02  0.46142317516E+02  0.99999977667E+01 0.  0.
        -12    1    1    2    0    0  0.27718646886E+02  0.17685873978E+02  0.30789608423E+02  0.45045682484E+02  0.00000000000E+00 0.  1.
         11    1    3    3    0    0 -0.19431467072E+02 -0.13219023824E+02 -0.24261719156E+02  0.33778033100E+02  0.51100000000E-03 0. -1.
        -11    1    3    3    0    0 -0.23270224706E+01  0.37052143844E+00 -0.32576863486E+01  0.40205522409E+01  0.51100000000E-03 0.  1.
        -12    1    3    3    0    0 -0.59601573437E+01 -0.48373715928E+01 -0.32702029187E+01  0.83437321756E+01  0.00000000000E+00 0.  1.
</event>
<event>
 7    1  0.1538805E-008  0.4614232E+02  0.7816164E-02  0.1320468E+00
        -11   -1    0    0    0    0  0.00000000000E+00  0.00000000000E+00  0.45593999997E+02  0.45594000000E+02  0.51100000000E-03 0.  1.
         11   -1    0    0    0    0 -0.00000000000E+00 -0.00000000000E+00 -0.45593999997E+02  0.45594000000E+02  0.51100000000E-03 0. -1.
    9900012    2    1    2    0    0 -0.23871078855E+02 -0.36058530964E+02 -0.12612191461E+02  0.46142318360E+02  0.10000005463E+02 0.  0.
        -12    1    1    2    0    0  0.23871078855E+02  0.36058530964E+02  0.12612191461E+02  0.45045681640E+02  0.00000000000E+00 0.  1.
         11    1    3    3    0    0 -0.85297532832E+01 -0.17581110086E+02 -0.38314841037E+01  0.19913121143E+02  0.51100000000E-03 0.  1.
        -11    1    3    3    0    0 -0.13871812073E+02 -0.13912407593E+02 -0.85547777781E+01  0.21428170204E+02  0.51100000000E-03 0. -1.
        -12    1    3    3    0    0 -0.14695134989E+01 -0.45650132841E+01 -0.22592957949E+00  0.48010270133E+01  0.00000000000E+00 0.  1.
</event>
<event>
 7    1  0.1538805E-008  0.4614232E+02  0.7816164E-02  0.1320468E+00
        -11   -1    0    0    0    0  0.00000000000E+00  0.00000000000E+00  0.45593999997E+02  0.45594000000E+02  0.51100000000E-03 0. -1.
         11   -1    0    0    0    0 -0.00000000000E+00 -0.00000000000E+00 -0.45593999997E+02  0.45594000000E+02  0.51100000000E-03 0.  1.
    9900012    2    1    2    0    0 -0.63328793829E+01 -0.44422447591E+02 -0.39565431737E+01  0.46142318241E+02  0.10000004377E+02 0.  0.
        -12    1    1    2    0    0  0.63328793829E+01  0.44422447591E+02  0.39565431737E+01  0.45045681759E+02  0.00000000000E+00 0.  1.
         11    1    3    3    0    0  0.16309754136E+01 -0.15988559851E+02  0.12694337754E+01  0.16121587679E+02  0.51100000000E-03 0. -1.
        -11    1    3    3    0    0 -0.43694776666E+01 -0.14790146276E+02 -0.20421539782E+01  0.15556707720E+02  0.51100000000E-03 0.  1.
         12    1    3    3    0    0 -0.35943771300E+01 -0.13643741463E+02 -0.31838229708E+01  0.14464022842E+02  0.00000000000E+00 0. -1.
</event>
<event>
 7    1  0.1538805E-008  0.4614231E+02  0.7816164E-02  0.1320468E+00
        -11   -1    0    0    0    0  0.00000000000E+00  0.00000000000E+00  0.45593999997E+02  0.45594000000E+02  0.51100000000E-03 0. -1.
         11   -1    0    0    0    0 -0.00000000000E+00 -0.00000000000E+00 -0.45593999997E+02  0.45594000000E+02  0.51100000000E-03 0.  1.
    9900012    2    1    2    0    0  0.37749470701E+01  0.44715188685E+02 -0.39262547913E+01  0.46142314289E+02  0.99999683377E+01 0.  0.
        -12    1    1    2    0    0 -0.37749470701E+01 -0.44715188685E+02  0.39262547913E+01  0.45045685711E+02  0.00000000000E+00 0.  1.
         11    1    3    3    0    0  0.64789947491E+01  0.23826753257E+02 -0.10291673746E+01  0.24713371471E+02  0.51100000000E-03 0. -1.
        -11    1    3    3    0    0 -0.31256413609E+01  0.18371271743E+02 -0.20897758721E+01  0.18752077827E+02  0.51100000000E-03 0.  1.
         12    1    3    3    0    0  0.42159368178E+00  0.25171636845E+01 -0.80731154455E+00  0.26768649904E+01  0.00000000000E+00 0. -1.
</event>
<event>
 7    1  0.1538805E-008  0.4614232E+02  0.7816164E-02  0.1320468E+00
        -11   -1    0    0    0    0  0.00000000000E+00  0.00000000000E+00  0.45593999997E+02  0.45594000000E+02  0.51100000000E-03 0. -1.
         11   -1    0    0    0    0 -0.00000000000E+00 -0.00000000000E+00 -0.45593999997E+02  0.45594000000E+02  0.51100000000E-03 0.  1.
    9900012    2    1    2    0    0 -0.83195425231E+01  0.44774570948E+01  0.44043741776E+02  0.46142316528E+02  0.99999887513E+01 0.  0.
        -12    1    1    2    0    0  0.83195425231E+01 -0.44774570948E+01 -0.44043741776E+02  0.45045683472E+02  0.00000000000E+00 0.  1.
         11    1    3    3    0    0 -0.28838325742E+01  0.14644426394E+01  0.34660480204E+01  0.47407353545E+01  0.51100000000E-03 0. -1.
        -11    1    3    3    0    0 -0.48206395780E+01 -0.25327677548E+00  0.21369490815E+02  0.21907940410E+02  0.51100000000E-03 0.  1.
        -12    1    3    3    0    0 -0.61507037089E+00  0.32662912308E+01  0.19208202941E+02  0.19493640763E+02  0.00000000000E+00 0.  1.
</event>
<event>
 7    1  0.1538805E-008  0.4614232E+02  0.7816164E-02  0.1320468E+00
        -11   -1    0    0    0    0  0.00000000000E+00  0.00000000000E+00  0.45593999997E+02  0.45594000000E+02  0.51100000000E-03 0.  1.
         11   -1    0    0    0    0 -0.00000000000E+00 -0.00000000000E+00 -0.45593999997E+02  0.45594000000E+02  0.51100000000E-03 0. -1.
    9900012    2    1    2    0    0  0.39020025664E+02 -0.46202659321E+01 -0.22027351309E+02  0.46142318012E+02  0.10000002285E+02 0.  0.
        -12    1    1    2    0    0 -0.39020025664E+02  0.46202659321E+01  0.22027351309E+02  0.45045681988E+02  0.00000000000E+00 0.  1.
         11    1    3    3    0    0  0.29847970714E+02 -0.32474043321E+01 -0.13953388397E+02  0.33108066066E+02  0.51100000000E-03 0. -1.
        -11    1    3    3    0    0  0.30991379317E+01  0.14713337946E+01 -0.35998883918E+01  0.49727935559E+01  0.51100000000E-03 0.  1.
        -12    1    3    3    0    0  0.60729170186E+01 -0.28441953945E+01 -0.44740745202E+01  0.80614583897E+01  0.00000000000E+00 0.  1.
</event>
<event>
 7    1  0.1538805E-008  0.4614232E+02  0.7816164E-02  0.1320468E+00
        -11   -1    0    0    0    0  0.00000000000E+00  0.00000000000E+00  0.45593999997E+02  0.45594000000E+02  0.51100000000E-03 0.  1.
         11   -1    0    0    0    0 -0.00000000000E+00 -0.00000000000E+00 -0.45593999997E+02  0.45594000000E+02  0.51100000000E-03 0. -1.
    9900012    2    1    2    0    0 -0.14906175261E+02 -0.49378609669E+01 -0.42220101048E+02  0.46142318027E+02  0.10000002428E+02 0.  0.
        -12    1    1    2    0    0  0.14906175261E+02  0.49378609669E+01  0.42220101048E+02  0.45045681973E+02  0.00000000000E+00 0.  1.
         11    1    3    3    0    0 -0.59607526802E+01 -0.60044971587E+01 -0.13091472614E+02  0.15587533933E+02  0.51100000000E-03 0. -1.
        -11    1    3    3    0    0 -0.40107167645E+01  0.32190794861E+00 -0.16309158522E+02  0.16798158401E+02  0.51100000000E-03 0.  1.
         12    1    3    3    0    0 -0.49347058161E+01  0.74472824319E+00 -0.12819469912E+02  0.13756625694E+02  0.00000000000E+00 0. -1.
</event>
<event>
 7    1  0.1538805E-008  0.4614232E+02  0.7816164E-02  0.1320468E+00
        -11   -1    0    0    0    0  0.00000000000E+00  0.00000000000E+00  0.45593999997E+02  0.45594000000E+02  0.51100000000E-03 0. -1.
         11   -1    0    0    0    0 -0.00000000000E+00 -0.00000000000E+00 -0.45593999997E+02  0.45594000000E+02  0.51100000000E-03 0.  1.
    9900012    2    1    2    0    0  0.44476587679E+02  0.44904824638E+01 -0.55481749299E+01  0.46142317306E+02  0.99999958457E+01 0.  0.
        -12    1    1    2    0    0 -0.44476587679E+02 -0.44904824638E+01  0.55481749299E+01  0.45045682694E+02  0.00000000000E+00 0.  1.
         11    1    3    3    0    0  0.27658083234E+02  0.23070894939E+01 -0.18979586955E+01  0.27818958959E+02  0.51100000000E-03 0. -1.
        -11    1    3    3    0    0  0.54096403899E+01  0.19622685154E+01 -0.38271321613E+01  0.69109802283E+01  0.51100000000E-03 0.  1.
         12    1    3    3    0    0  0.11408864056E+02  0.22112445450E+00  0.17691592687E+00  0.11412378118E+02  0.00000000000E+00 0. -1.
</event>
<event>
 7    1  0.1538805E-008  0.4614232E+02  0.7816164E-02  0.1320468E+00
        -11   -1    0    0    0    0  0.00000000000E+00  0.00000000000E+00  0.45593999997E+02  0.45594000000E+02  0.51100000000E-03 0. -1.
         11   -1    0    0    0    0 -0.00000000000E+00 -0.00000000000E+00 -0.45593999997E+02  0.45594000000E+02  0.51100000000E-03 0.  1.
    9900012    2    1    2    0    0  0.40817100300E+02 -0.13200674312E+02 -0.13741182534E+02  0.46142316781E+02  0.99999910669E+01 0.  0.
        -12    1    1    2    0    0 -0.40817100300E+02  0.13200674312E+02  0.13741182534E+02  0.45045683219E+02  0.00000000000E+00 0.  1.
         11    1    3    3    0    0  0.28608920806E+01 -0.47194203817E+00  0.42818292034E+00  0.29310021595E+01  0.51100000000E-03 0. -1.
        -11    1    3    3    0    0  0.32704562456E+02 -0.13739127094E+02 -0.12215039341E+02  0.37517452007E+02  0.51100000000E-03 0.  1.
        -12    1    3    3    0    0  0.52516457638E+01  0.10103948207E+01 -0.19543261131E+01  0.56938626150E+01  0.00000000000E+00 0.  1.
</event>
<event>
 7    1  0.1538805E-008  0.4614232E+02  0.7816164E-02  0.1320468E+00
        -11   -1    0    0    0    0  0.00000000000E+00  0.00000000000E+00  0.45593999997E+02  0.45594000000E+02  0.51100000000E-03 0.  1.
         11   -1    0    0    0    0 -0.00000000000E+00 -0.00000000000E+00 -0.45593999997E+02  0.45594000000E+02  0.51100000000E-03 0. -1.
    9900012    2    1    2    0    0 -0.33460033149E+02  0.13802301030E+02 -0.26814849248E+02  0.46142317940E+02  0.10000001632E+02 0.  0.
        -12    1    1    2    0    0  0.33460033149E+02 -0.13802301030E+02  0.26814849248E+02  0.45045682060E+02  0.00000000000E+00 0.  1.
         11    1    3    3    0    0 -0.46199575369E+01  0.58210324316E+01 -0.41912369032E+01  0.85319923378E+01  0.51100000000E-03 0. -1.
        -11    1    3    3    0    0 -0.26731089544E+02  0.70808116200E+01 -0.20010537025E+02  0.34133716963E+02  0.51100000000E-03 0.  1.
        -12    1    3    3    0    0 -0.21089860676E+01  0.90045697874E+00 -0.26130753200E+01  0.34766086395E+01  0.00000000000E+00 0.  1.
</event>
<event>
 7    1  0.1538805E-008  0.4614232E+02  0.7816164E-02  0.1320468E+00
        -11   -1    0    0    0    0  0.00000000000E+00  0.00000000000E+00  0.45593999997E+02  0.45594000000E+02  0.51100000000E-03 0.  1.
         11   -1    0    0    0    0 -0.00000000000E+00 -0.00000000000E+00 -0.45593999997E+02  0.45594000000E+02  0.51100000000E-03 0. -1.
    9900012    2    1    2    0    0 -0.16505218301E+02  0.38888656365E+02 -0.15632138052E+02  0.46142316909E+02  0.99999922336E+01 0.  0.
        -12    1    1    2    0    0  0.16505218301E+02 -0.38888656365E+02  0.15632138052E+02  0.45045683091E+02  0.00000000000E+00 0.  1.
         11    1    3    3    0    0  0.18774200442E-01  0.88313890994E+01 -0.20573381735E+01  0.90678788323E+01  0.51100000000E-03 0. -1.
        -11    1    3    3    0    0 -0.13231087598E+02  0.23625480385E+02 -0.12284594199E+02  0.29734428821E+02  0.51100000000E-03 0.  1.
        -12    1    3    3    0    0 -0.32929049037E+01  0.64317868806E+01 -0.12902056799E+01  0.73400092560E+01  0.00000000000E+00 0.  1.
</event>
<event>
 7    1  0.1538805E-008  0.4614232E+02  0.7816164E-02  0.1320468E+00
        -11   -1    0    0    0    0  0.00000000000E+00  0.00000000000E+00  0.45593999997E+02  0.45594000000E+02  0.51100000000E-03 0. -1.
         11   -1    0    0    0    0 -0.00000000000E+00 -0.00000000000E+00 -0.45593999997E+02  0.45594000000E+02  0.51100000000E-03 0.  1.
    9900012    2    1    2    0    0  0.51796451236E+01 -0.56189985695E+01  0.44392697843E+02  0.46142317740E+02  0.99999998074E+01 0.  0.
        -12    1    1    2    0    0 -0.51796451236E+01  0.56189985695E+01 -0.44392697843E+02  0.45045682260E+02  0.00000000000E+00 0.  1.
         11    1    3    3    0    0  0.57383421857E+01 -0.53323502565E+01  0.31436460029E+02  0.32397739886E+02  0.51100000000E-03 0. -1.
        -11    1    3    3    0    0 -0.70961594485E+00  0.18222232208E+01  0.94500289040E+01  0.96502382770E+01  0.51100000000E-03 0.  1.
        -12    1    3    3    0    0  0.15091888278E+00 -0.21088715338E+01  0.35062089096E+01  0.40943395771E+01  0.00000000000E+00 0.  1.
</event>
<event>
 7    1  0.1538805E-008  0.4614232E+02  0.7816164E-02  0.1320468E+00
        -11   -1    0    0    0    0  0.00000000000E+00  0.00000000000E+00  0.45593999997E+02  0.45594000000E+02  0.51100000000E-03 0.  1.
         11   -1    0    0    0    0 -0.00000000000E+00 -0.00000000000E+00 -0.45593999997E+02  0.45594000000E+02  0.51100000000E-03 0. -1.
    9900012    2    1    2    0    0  0.18028326914E+02  0.18451050028E+02 -0.36927655083E+02  0.46142317317E+02  0.99999959515E+01 0.  0.
        -12    1    1    2    0    0 -0.18028326914E+02 -0.18451050028E+02  0.36927655083E+02  0.45045682683E+02  0.00000000000E+00 0.  1.
         11    1    3    3    0    0  0.15554756245E+02  0.13408787781E+02 -0.31795282540E+02  0.37850839141E+02  0.51100000000E-03 0. -1.
        -11    1    3    3    0    0  0.15325984254E+01  0.23614925799E+01 -0.50300380268E+00  0.28598108722E+01  0.51100000000E-03 0.  1.
         12    1    3    3    0    0  0.94097224339E+00  0.26807696669E+01 -0.46293687400E+01  0.54316673040E+01  0.00000000000E+00 0. -1.
</event>
<event>
 7    1  0.1538805E-008  0.4614232E+02  0.7816164E-02  0.1320468E+00
        -11   -1    0    0    0    0  0.00000000000E+00  0.00000000000E+00  0.45593999997E+02  0.45594000000E+02  0.51100000000E-03 0. -1.
         11   -1    0    0    0    0 -0.00000000000E+00 -0.00000000000E+00 -0.45593999997E+02  0.45594000000E+02  0.51100000000E-03 0.  1.
    9900012    2    1    2    0    0 -0.39540225080E+02 -0.65761253212E+01  0.20553312513E+02  0.46142317866E+02  0.10000000960E+02 0.  0.
        -12    1    1    2    0    0  0.39540225080E+02  0.65761253212E+01 -0.20553312513E+02  0.45045682134E+02  0.00000000000E+00 0.  1.
         11    1    3    3    0    0 -0.56611257919E+01 -0.86065941840E+00  0.10867841138E+01  0.58283942761E+01  0.51100000000E-03 0. -1.
        -11    1    3    3    0    0 -0.18473427690E+02 -0.65289489406E+01  0.13398252007E+02  0.23736214146E+02  0.51100000000E-03 0.  1.
        -12    1    3    3    0    0 -0.15405671598E+02  0.81348303778E+00  0.60682763922E+01  0.16577709444E+02  0.00000000000E+00 0.  1.
</event>
<event>
 7    1  0.1538805E-008  0.4614232E+02  0.7816164E-02  0.1320468E+00
        -11   -1    0    0    0    0  0.00000000000E+00  0.00000000000E+00  0.45593999997E+02  0.45594000000E+02  0.51100000000E-03 0.  1.
         11   -1    0    0    0    0 -0.00000000000E+00 -0.00000000000E+00 -0.45593999997E+02  0.45594000000E+02  0.51100000000E-03 0. -1.
    9900012    2    1    2    0    0 -0.23823463167E+02  0.36925588594E+02 -0.99023725686E+01  0.46142317934E+02  0.10000001580E+02 0.  0.
        -12    1    1    2    0    0  0.23823463167E+02 -0.36925588594E+02  0.99023725686E+01  0.45045682066E+02  0.00000000000E+00 0.  1.
         11    1    3    3    0    0 -0.12741666305E+02  0.17084946743E+02 -0.31011358498E+01  0.21537467569E+02  0.51100000000E-03 0. -1.
        -11    1    3    3    0    0 -0.30314540165E+00 -0.50535943230E+00 -0.38099190570E+00  0.70174096623E+00  0.51100000000E-03 0.  1.
         12    1    3    3    0    0 -0.10778651460E+02  0.20346001283E+02 -0.64202448131E+01  0.23903109399E+02  0.00000000000E+00 0. -1.
</event>
<event>
 7    1  0.1538805E-008  0.4614232E+02  0.7816164E-02  0.1320468E+00
        -11   -1    0    0    0    0  0.00000000000E+00  0.00000000000E+00  0.45593999997E+02  0.45594000000E+02  0.51100000000E-03 0.  1.
         11   -1    0    0    0    0 -0.00000000000E+00 -0.00000000000E+00 -0.45593999997E+02  0.45594000000E+02  0.51100000000E-03 0. -1.
    9900012    2    1    2    0    0  0.47931743806E+01 -0.42975527831E+02 -0.12619148692E+02  0.46142318445E+02  0.10000006238E+02 0.  0.
        -12    1    1    2    0    0 -0.47931743806E+01  0.42975527831E+02  0.12619148692E+02  0.45045681555E+02  0.00000000000E+00 0.  1.
         11    1    3    3    0    0 -0.12137047221E+01 -0.64953130080E+01 -0.36720980866E+01  0.75595287448E+01  0.51100000000E-03 0. -1.
        -11    1    3    3    0    0 -0.10765731985E+00 -0.18901795571E+02 -0.39196942205E+01  0.19304234482E+02  0.51100000000E-03 0.  1.
        -12    1    3    3    0    0  0.61145364226E+01 -0.17578419252E+02 -0.50273563846E+01  0.19278555218E+02  0.00000000000E+00 0.  1.
</event>
<event>
 7    1  0.1538805E-008  0.4614232E+02  0.7816164E-02  0.1320468E+00
        -11   -1    0    0    0    0  0.00000000000E+00  0.00000000000E+00  0.45593999997E+02  0.45594000000E+02  0.51100000000E-03 0.  1.
         11   -1    0    0    0    0 -0.00000000000E+00 -0.00000000000E+00 -0.45593999997E+02  0.45594000000E+02  0.51100000000E-03 0. -1.
    9900012    2    1    2    0    0 -0.65382964237E+01  0.54116134661E+00 -0.44565360489E+02  0.46142317285E+02  0.99999956570E+01 0.  0.
        -12    1    1    2    0    0  0.65382964237E+01 -0.54116134661E+00  0.44565360489E+02  0.45045682715E+02  0.00000000000E+00 0.  1.
         11    1    3    3    0    0 -0.20446504418E+01 -0.36827792954E+01 -0.20139824732E+02  0.20575616619E+02  0.51100000000E-03 0.  1.
        -11    1    3    3    0    0 -0.32377074657E+01  0.33627293737E+01 -0.23039150903E+02  0.23507300420E+02  0.51100000000E-03 0. -1.
        -12    1    3    3    0    0 -0.12559385162E+01  0.86121126831E+00 -0.13863848551E+01  0.20594002456E+01  0.00000000000E+00 0.  1.
</event>
<event>
 7    1  0.1538805E-008  0.4614232E+02  0.7816164E-02  0.1320468E+00
        -11   -1    0    0    0    0  0.00000000000E+00  0.00000000000E+00  0.45593999997E+02  0.45594000000E+02  0.51100000000E-03 0.  1.
         11   -1    0    0    0    0 -0.00000000000E+00 -0.00000000000E+00 -0.45593999997E+02  0.45594000000E+02  0.51100000000E-03 0. -1.
    9900012    2    1    2    0    0  0.39977780257E+02 -0.14609800372E+02 -0.14745993229E+02  0.46142317659E+02  0.99999990720E+01 0.  0.
        -12    1    1    2    0    0 -0.39977780257E+02  0.14609800372E+02  0.14745993229E+02  0.45045682341E+02  0.00000000000E+00 0.  1.
         11    1    3    3    0    0  0.28947870402E+02 -0.12805563960E+02 -0.11970124422E+02  0.33841476742E+02  0.51100000000E-03 0. -1.
        -11    1    3    3    0    0  0.66252013008E+01 -0.22319546126E+01  0.15518755992E+00  0.69927817861E+01  0.51100000000E-03 0.  1.
        -12    1    3    3    0    0  0.44047085548E+01  0.42771820103E+00 -0.29310563671E+01  0.53080591311E+01  0.00000000000E+00 0.  1.
</event>
<event>
 7    1  0.1538805E-008  0.4614232E+02  0.7816164E-02  0.1320468E+00
        -11   -1    0    0    0    0  0.00000000000E+00  0.00000000000E+00  0.45593999997E+02  0.45594000000E+02  0.51100000000E-03 0.  1.
         11   -1    0    0    0    0 -0.00000000000E+00 -0.00000000000E+00 -0.45593999997E+02  0.45594000000E+02  0.51100000000E-03 0. -1.
    9900012    2    1    2    0    0  0.39209947396E+02 -0.44365322258E+00 -0.22169722925E+02  0.46142318547E+02  0.10000007165E+02 0.  0.
        -12    1    1    2    0    0 -0.39209947396E+02  0.44365322258E+00  0.22169722925E+02  0.45045681453E+02  0.00000000000E+00 0.  1.
         11    1    3    3    0    0  0.10055810193E+02 -0.11363393657E+01 -0.35356589583E+01  0.10719676783E+02  0.51100000000E-03 0. -1.
        -11    1    3    3    0    0  0.22178984646E+02  0.33514395702E+01 -0.15805542037E+02  0.27440019432E+02  0.51100000000E-03 0.  1.
        -12    1    3    3    0    0  0.69751525574E+01 -0.26587534270E+01 -0.28285219298E+01  0.79826223318E+01  0.00000000000E+00 0.  1.
</event>
<event>
 7    1  0.1667341E-008  0.4614232E+02  0.7816164E-02  0.1320468E+00
        -11   -1    0    0    0    0  0.00000000000E+00  0.00000000000E+00  0.45593999997E+02  0.45594000000E+02  0.51100000000E-03 0. -1.
         11   -1    0    0    0    0 -0.00000000000E+00 -0.00000000000E+00 -0.45593999997E+02  0.45594000000E+02  0.51100000000E-03 0.  1.
    9900012    2    1    2    0    0 -0.19764768956E+02  0.37079042906E+02  0.16236137677E+02  0.46142315619E+02  0.99999804663E+01 0.  0.
        -12    1    1    2    0    0  0.19764768956E+02 -0.37079042906E+02 -0.16236137677E+02  0.45045684381E+02  0.00000000000E+00 0.  1.
         11    1    3    3    0    0 -0.11369183081E+02  0.15460055955E+02  0.79537127453E+01  0.20773377211E+02  0.51100000000E-03 0. -1.
        -11    1    3    3    0    0 -0.35508006623E+00  0.70369115241E+01  0.72748332538E+00  0.70833211067E+01  0.51100000000E-03 0.  1.
        -12    1    3    3    0    0 -0.80405058090E+01  0.14582075427E+02  0.75549416061E+01  0.18285617301E+02  0.00000000000E+00 0.  1.
</event>
<event>
 7    1  0.1538805E-008  0.4614233E+02  0.7816164E-02  0.1320468E+00
        -11   -1    0    0    0    0  0.00000000000E+00  0.00000000000E+00  0.45593999997E+02  0.45594000000E+02  0.51100000000E-03 0.  1.
         11   -1    0    0    0    0 -0.00000000000E+00 -0.00000000000E+00 -0.45593999997E+02  0.45594000000E+02  0.51100000000E-03 0. -1.
    9900012    2    1    2    0    0 -0.55684995507E+01 -0.12258378240E+02 -0.42986471684E+02  0.46142325711E+02  0.10000072491E+02 0.  0.
        -12    1    1    2    0    0  0.55684995507E+01  0.12258378240E+02  0.42986471684E+02  0.45045674289E+02  0.00000000000E+00 0.  1.
         11    1    3    3    0    0 -0.12079447846E+01 -0.48572325925E+01 -0.13287019672E+02  0.14198476365E+02  0.51100000000E-03 0.  1.
        -11    1    3    3    0    0 -0.61051185029E+01 -0.54554924162E+01 -0.26881381219E+02  0.28100596541E+02  0.51100000000E-03 0. -1.
        -12    1    3    3    0    0  0.17445637369E+01 -0.19456532313E+01 -0.28180707922E+01  0.38432528043E+01  0.00000000000E+00 0.  1.
</event>
<event>
 7    1  0.1538805E-008  0.4614232E+02  0.7816164E-02  0.1320468E+00
        -11   -1    0    0    0    0  0.00000000000E+00  0.00000000000E+00  0.45593999997E+02  0.45594000000E+02  0.51100000000E-03 0. -1.
         11   -1    0    0    0    0 -0.00000000000E+00 -0.00000000000E+00 -0.45593999997E+02  0.45594000000E+02  0.51100000000E-03 0.  1.
    9900012    2    1    2    0    0 -0.84264047448E+01 -0.44042598227E+02  0.42847178472E+01  0.46142316937E+02  0.99999924893E+01 0.  0.
        -12    1    1    2    0    0  0.84264047448E+01  0.44042598227E+02 -0.42847178472E+01  0.45045683063E+02  0.00000000000E+00 0.  1.
         11    1    3    3    0    0 -0.12401529115E+01 -0.28358732595E+02  0.78900147508E+00  0.28396799419E+02  0.51100000000E-03 0. -1.
        -11    1    3    3    0    0 -0.69229228891E+01 -0.15014362526E+02  0.28471348731E+01  0.16776892461E+02  0.51100000000E-03 0.  1.
         12    1    3    3    0    0 -0.26332894420E+00 -0.66950310645E+00  0.64858149900E+00  0.96862505814E+00  0.00000000000E+00 0. -1.
</event>
<event>
 7    1  0.1538805E-008  0.4614232E+02  0.7816164E-02  0.1320468E+00
        -11   -1    0    0    0    0  0.00000000000E+00  0.00000000000E+00  0.45593999997E+02  0.45594000000E+02  0.51100000000E-03 0. -1.
         11   -1    0    0    0    0 -0.00000000000E+00 -0.00000000000E+00 -0.45593999997E+02  0.45594000000E+02  0.51100000000E-03 0.  1.
    9900012    2    1    2    0    0 -0.11059004083E+02  0.20756088180E+02  0.38418702559E+02  0.46142317919E+02  0.10000001439E+02 0.  0.
        -12    1    1    2    0    0  0.11059004083E+02 -0.20756088180E+02 -0.38418702559E+02  0.45045682081E+02  0.00000000000E+00 0.  1.
         11    1    3    3    0    0 -0.55552947563E+01  0.73624730368E+01  0.22585382458E+02  0.24396040869E+02  0.51100000000E-03 0. -1.
        -11    1    3    3    0    0 -0.14210338717E+01  0.45968648045E+01  0.30354089043E+01  0.56889551565E+01  0.51100000000E-03 0.  1.
        -12    1    3    3    0    0 -0.40826754548E+01  0.87967503383E+01  0.12797911197E+02  0.16057321893E+02  0.00000000000E+00 0.  1.
</event>
<event>
 7    1  0.1538805E-008  0.4614232E+02  0.7816164E-02  0.1320468E+00
        -11   -1    0    0    0    0  0.00000000000E+00  0.00000000000E+00  0.45593999997E+02  0.45594000000E+02  0.51100000000E-03 0. -1.
         11   -1    0    0    0    0 -0.00000000000E+00 -0.00000000000E+00 -0.45593999997E+02  0.45594000000E+02  0.51100000000E-03 0.  1.
    9900012    2    1    2    0    0 -0.18954920150E+02 -0.43018219300E+01  0.40636419121E+02  0.46142320642E+02  0.10000026273E+02 0.  0.
        -12    1    1    2    0    0  0.18954920150E+02  0.43018219300E+01 -0.40636419121E+02  0.45045679358E+02  0.00000000000E+00 0.  1.
         11    1    3    3    0    0  0.91376867149E+00  0.19015722546E+00  0.35098494823E+01  0.36318282730E+01  0.51100000000E-03 0. -1.
        -11    1    3    3    0    0 -0.16688597537E+02 -0.32073401964E+01  0.27912612754E+02  0.32678896399E+02  0.51100000000E-03 0.  1.
         12    1    3    3    0    0 -0.31800912841E+01 -0.12846389591E+01  0.92139568853E+01  0.98315959699E+01  0.00000000000E+00 0. -1.
</event>
<event>
 7    1  0.1538805E-008  0.4614232E+02  0.7816164E-02  0.1320468E+00
        -11   -1    0    0    0    0  0.00000000000E+00  0.00000000000E+00  0.45593999997E+02  0.45594000000E+02  0.51100000000E-03 0.  1.
         11   -1    0    0    0    0 -0.00000000000E+00 -0.00000000000E+00 -0.45593999997E+02  0.45594000000E+02  0.51100000000E-03 0. -1.
    9900012    2    1    2    0    0  0.20882560403E+02 -0.66420623451E+01 -0.39356259312E+02  0.46142317985E+02  0.10000002043E+02 0.  0.
        -12    1    1    2    0    0 -0.20882560403E+02  0.66420623451E+01  0.39356259312E+02  0.45045682015E+02  0.00000000000E+00 0.  1.
         11    1    3    3    0    0  0.62138543668E+01  0.15320752417E+01 -0.71192177875E+01  0.95730090778E+01  0.51100000000E-03 0. -1.
        -11    1    3    3    0    0  0.50114183860E+01 -0.27351294460E+01 -0.15275256550E+02  0.16307320757E+02  0.51100000000E-03 0.  1.
        -12    1    3    3    0    0  0.96572876500E+01 -0.54390081407E+01 -0.16961784974E+02  0.20261988151E+02  0.00000000000E+00 0.  1.
</event>
<event>
 7    1  0.1538805E-008  0.4614232E+02  0.7816164E-02  0.1320468E+00
        -11   -1    0    0    0    0  0.00000000000E+00  0.00000000000E+00  0.45593999997E+02  0.45594000000E+02  0.51100000000E-03 0.  1.
         11   -1    0    0    0    0 -0.00000000000E+00 -0.00000000000E+00 -0.45593999997E+02  0.45594000000E+02  0.51100000000E-03 0. -1.
    9900012    2    1    2    0    0 -0.14734002559E+02 -0.25606543865E+02 -0.34004817000E+02  0.46142317640E+02  0.99999988942E+01 0.  0.
        -12    1    1    2    0    0  0.14734002559E+02  0.25606543865E+02  0.34004817000E+02  0.45045682360E+02  0.00000000000E+00 0.  1.
         11    1    3    3    0    0 -0.53796820843E+01 -0.50319437175E+01 -0.64902792329E+01  0.98175944959E+01  0.51100000000E-03 0. -1.
        -11    1    3    3    0    0 -0.94109724236E+01 -0.14671349122E+02 -0.23173282308E+02  0.28996825692E+02  0.51100000000E-03 0.  1.
        -12    1    3    3    0    0  0.56651948983E-01 -0.59032510249E+01 -0.43412554590E+01  0.73278974520E+01  0.00000000000E+00 0.  1.
</event>
<event>
 7    1  0.1538805E-008  0.4614232E+02  0.7816164E-02  0.1320468E+00
        -11   -1    0    0    0    0  0.00000000000E+00  0.00000000000E+00  0.45593999997E+02  0.45594000000E+02  0.51100000000E-03 0. -1.
         11   -1    0    0    0    0 -0.00000000000E+00 -0.00000000000E+00 -0.45593999997E+02  0.45594000000E+02  0.51100000000E-03 0.  1.
    9900012    2    1    2    0    0  0.40700268857E+02 -0.97178060654E+01  0.16678304130E+02  0.46142317982E+02  0.10000002015E+02 0.  0.
        -12    1    1    2    0    0 -0.40700268857E+02  0.97178060654E+01 -0.16678304130E+02  0.45045682018E+02  0.00000000000E+00 0.  1.
         11    1    3    3    0    0  0.21272856256E+02 -0.78632121661E+01  0.10918810629E+02  0.25171113298E+02  0.51100000000E-03 0. -1.
        -11    1    3    3    0    0  0.29738971263E+00  0.79665518691E+00  0.29627517796E+00  0.90048840648E+00  0.51100000000E-03 0.  1.
         12    1    3    3    0    0  0.19130022889E+02 -0.26512490861E+01  0.54632183236E+01  0.20070716277E+02  0.00000000000E+00 0. -1.
</event>
<event>
 7    1  0.1538805E-008  0.4614232E+02  0.7816164E-02  0.1320468E+00
        -11   -1    0    0    0    0  0.00000000000E+00  0.00000000000E+00  0.45593999997E+02  0.45594000000E+02  0.51100000000E-03 0.  1.
         11   -1    0    0    0    0 -0.00000000000E+00 -0.00000000000E+00 -0.45593999997E+02  0.45594000000E+02  0.51100000000E-03 0. -1.
    9900012    2    1    2    0    0  0.44466146003E+02 -0.10433605702E+00  0.72017002136E+01  0.46142317495E+02  0.99999975706E+01 0.  0.
        -12    1    1    2    0    0 -0.44466146003E+02  0.10433605702E+00 -0.72017002136E+01  0.45045682505E+02  0.00000000000E+00 0.  1.
         11    1    3    3    0    0  0.29629206899E+02 -0.38853216151E+01  0.69129054586E+01  0.30672037553E+02  0.51100000000E-03 0. -1.
        -11    1    3    3    0    0  0.53163882180E+01  0.24365758561E+01 -0.70229352999E-01  0.58485740150E+01  0.51100000000E-03 0.  1.
         12    1    3    3    0    0  0.95205508865E+01  0.13444097020E+01  0.35902410799E+00  0.96217059267E+01  0.00000000000E+00 0. -1.
</event>
<event>
 7    1  0.1538805E-008  0.4614232E+02  0.7816164E-02  0.1320468E+00
        -11   -1    0    0    0    0  0.00000000000E+00  0.00000000000E+00  0.45593999997E+02  0.45594000000E+02  0.51100000000E-03 0. -1.
         11   -1    0    0    0    0 -0.00000000000E+00 -0.00000000000E+00 -0.45593999997E+02  0.45594000000E+02  0.51100000000E-03 0.  1.
    9900012    2    1    2    0    0 -0.35017330719E+02 -0.14001974488E+02  0.24634220809E+02  0.46142316798E+02  0.99999912220E+01 0.  0.
        -12    1    1    2    0    0  0.35017330719E+02  0.14001974488E+02 -0.24634220809E+02  0.45045683202E+02  0.00000000000E+00 0.  1.
         11    1    3    3    0    0 -0.50765280264E+01  0.10349447945E+01  0.35852167242E+01  0.63004782954E+01  0.51100000000E-03 0. -1.
        -11    1    3    3    0    0 -0.25036316213E+02 -0.12931847312E+02  0.15575729822E+02  0.32197098691E+02  0.51100000000E-03 0.  1.
        -12    1    3    3    0    0 -0.49044864793E+01 -0.21050719711E+01  0.54732742630E+01  0.76447398116E+01  0.00000000000E+00 0.  1.
</event>
<event>
 7    1  0.1538805E-008  0.4614232E+02  0.7816164E-02  0.1320468E+00
        -11   -1    0    0    0    0  0.00000000000E+00  0.00000000000E+00  0.45593999997E+02  0.45594000000E+02  0.51100000000E-03 0. -1.
         11   -1    0    0    0    0 -0.00000000000E+00 -0.00000000000E+00 -0.45593999997E+02  0.45594000000E+02  0.51100000000E-03 0.  1.
    9900012    2    1    2    0    0  0.56599910200E-01  0.14915098069E+02  0.42504707771E+02  0.46142317225E+02  0.99999951135E+01 0.  0.
        -12    1    1    2    0    0 -0.56599910200E-01 -0.14915098069E+02 -0.42504707771E+02  0.45045682775E+02  0.00000000000E+00 0.  1.
         11    1    3    3    0    0 -0.13954421493E+01  0.27913200424E+01  0.11575027391E+02  0.11988327062E+02  0.51100000000E-03 0. -1.
        -11    1    3    3    0    0 -0.24408275029E+01  0.76140831352E+01  0.13016903753E+02  0.15276507600E+02  0.51100000000E-03 0.  1.
        -12    1    3    3    0    0  0.38928695624E+01  0.45096948916E+01  0.17912776627E+02  0.18877482563E+02  0.00000000000E+00 0.  1.
</event>
<event>
 7    1  0.1538805E-008  0.4614232E+02  0.7816164E-02  0.1320468E+00
        -11   -1    0    0    0    0  0.00000000000E+00  0.00000000000E+00  0.45593999997E+02  0.45594000000E+02  0.51100000000E-03 0. -1.
         11   -1    0    0    0    0 -0.00000000000E+00 -0.00000000000E+00 -0.45593999997E+02  0.45594000000E+02  0.51100000000E-03 0.  1.
    9900012    2    1    2    0    0 -0.35257123671E+02 -0.16686520869E+02  0.22530173372E+02  0.46142318071E+02  0.10000002828E+02 0.  0.
        -12    1    1    2    0    0  0.35257123671E+02  0.16686520869E+02 -0.22530173372E+02  0.45045681929E+02  0.00000000000E+00 0.  1.
         11    1    3    3    0    0 -0.28258958734E+02 -0.14952484027E+02  0.19170722482E+02  0.37278172273E+02  0.51100000000E-03 0. -1.
        -11    1    3    3    0    0 -0.43850139013E+01  0.89449481920E+00  0.21531489174E+01  0.49663385324E+01  0.51100000000E-03 0.  1.
         12    1    3    3    0    0 -0.26131510356E+01 -0.26285316616E+01  0.12063019725E+01  0.38978072655E+01  0.00000000000E+00 0. -1.
</event>
<event>
 7    1  0.1538805E-008  0.4614232E+02  0.7816164E-02  0.1320468E+00
        -11   -1    0    0    0    0  0.00000000000E+00  0.00000000000E+00  0.45593999997E+02  0.45594000000E+02  0.51100000000E-03 0.  1.
         11   -1    0    0    0    0 -0.00000000000E+00 -0.00000000000E+00 -0.45593999997E+02  0.45594000000E+02  0.51100000000E-03 0. -1.
    9900012    2    1    2    0    0 -0.12661351562E+02 -0.22703936627E+02 -0.36787700219E+02  0.46142318196E+02  0.10000003968E+02 0.  0.
        -12    1    1    2    0    0  0.12661351562E+02  0.22703936627E+02  0.36787700219E+02  0.45045681804E+02  0.00000000000E+00 0.  1.
         11    1    3    3    0    0 -0.10154911445E+02 -0.15514645536E+02 -0.25567636214E+02  0.31583705837E+02  0.51100000000E-03 0. -1.
        -11    1    3    3    0    0 -0.19842605700E+01 -0.57899644826E+01 -0.11510935349E+02  0.13036970951E+02  0.51100000000E-03 0.  1.
         12    1    3    3    0    0 -0.52217954661E+00 -0.13993266091E+01  0.29087134308E+00  0.15216414085E+01  0.00000000000E+00 0. -1.
</event>
<event>
 7    1  0.1538805E-008  0.4614232E+02  0.7816164E-02  0.1320468E+00
        -11   -1    0    0    0    0  0.00000000000E+00  0.00000000000E+00  0.45593999997E+02  0.45594000000E+02  0.51100000000E-03 0.  1.
         11   -1    0    0    0    0 -0.00000000000E+00 -0.00000000000E+00 -0.45593999997E+02  0.45594000000E+02  0.51100000000E-03 0. -1.
    9900012    2    1    2    0    0  0.20797322980E+02 -0.35729105485E+02 -0.17888989329E+02  0.46142316953E+02  0.99999926337E+01 0.  0.
        -12    1    1    2    0    0 -0.20797322980E+02  0.35729105485E+02  0.17888989329E+02  0.45045683047E+02  0.00000000000E+00 0.  1.
         11    1    3    3    0    0  0.10313022565E+02 -0.11282955907E+02 -0.10010809156E+02  0.18272378845E+02  0.51100000000E-03 0.  1.
        -11    1    3    3    0    0  0.26323718824E+01 -0.70935466052E+01 -0.10609382300E+01  0.76402470743E+01  0.51100000000E-03 0. -1.
         12    1    3    3    0    0  0.78519285326E+01 -0.17352602973E+02 -0.68172419435E+01  0.20229691034E+02  0.00000000000E+00 0. -1.
</event>
<event>
 7    1  0.1538805E-008  0.4614232E+02  0.7816164E-02  0.1320468E+00
        -11   -1    0    0    0    0  0.00000000000E+00  0.00000000000E+00  0.45593999997E+02  0.45594000000E+02  0.51100000000E-03 0.  1.
         11   -1    0    0    0    0 -0.00000000000E+00 -0.00000000000E+00 -0.45593999997E+02  0.45594000000E+02  0.51100000000E-03 0. -1.
    9900012    2    1    2    0    0  0.57580659359E-01  0.42575046264E+02 -0.14713111209E+02  0.46142317395E+02  0.99999966582E+01 0.  0.
        -12    1    1    2    0    0 -0.57580659359E-01 -0.42575046264E+02  0.14713111209E+02  0.45045682605E+02  0.00000000000E+00 0.  1.
         11    1    3    3    0    0 -0.32173155707E+01  0.11339222982E+02 -0.48421433084E+01  0.12742662571E+02  0.51100000000E-03 0. -1.
        -11    1    3    3    0    0  0.11440641536E+01  0.37441096370E+01 -0.31327704847E+01  0.50141291301E+01  0.51100000000E-03 0.  1.
        -12    1    3    3    0    0  0.21308320765E+01  0.27491713645E+02 -0.67381974158E+01  0.28385525693E+02  0.00000000000E+00 0.  1.
</event>
<event>
 7    1  0.1538805E-008  0.4614232E+02  0.7816164E-02  0.1320468E+00
        -11   -1    0    0    0    0  0.00000000000E+00  0.00000000000E+00  0.45593999997E+02  0.45594000000E+02  0.51100000000E-03 0.  1.
         11   -1    0    0    0    0 -0.00000000000E+00 -0.00000000000E+00 -0.45593999997E+02  0.45594000000E+02  0.51100000000E-03 0. -1.
    9900012    2    1    2    0    0 -0.10836684564E+02 -0.43702870307E+02  0.13186592143E+01  0.46142317992E+02  0.10000002108E+02 0.  0.
        -12    1    1    2    0    0  0.10836684564E+02  0.43702870307E+02 -0.13186592143E+01  0.45045682008E+02  0.00000000000E+00 0.  1.
         11    1    3    3    0    0 -0.55681593953E+01 -0.88449646790E+01 -0.11856758955E+01  0.10518727433E+02  0.51100000000E-03 0. -1.
        -11    1    3    3    0    0 -0.22687442300E+01 -0.18227866732E+02  0.34872086661E+01  0.18696602647E+02  0.51100000000E-03 0.  1.
         12    1    3    3    0    0 -0.29997809390E+01 -0.16630038896E+02 -0.98287355641E+00  0.16926987912E+02  0.00000000000E+00 0. -1.
</event>
<event>
 7    1  0.1538805E-008  0.4614232E+02  0.7816164E-02  0.1320468E+00
        -11   -1    0    0    0    0  0.00000000000E+00  0.00000000000E+00  0.45593999997E+02  0.45594000000E+02  0.51100000000E-03 0.  1.
         11   -1    0    0    0    0 -0.00000000000E+00 -0.00000000000E+00 -0.45593999997E+02  0.45594000000E+02  0.51100000000E-03 0. -1.
    9900012    2    1    2    0    0 -0.35126953535E+02 -0.17733565656E+02 -0.21925581558E+02  0.46142319383E+02  0.10000014793E+02 0.  0.
        -12    1    1    2    0    0  0.35126953535E+02  0.17733565656E+02  0.21925581558E+02  0.45045680617E+02  0.00000000000E+00 0.  1.
         11    1    3    3    0    0 -0.11862381687E+02 -0.16654409191E+01 -0.44743496337E+01  0.12787087145E+02  0.51100000000E-03 0. -1.
        -11    1    3    3    0    0 -0.22856632405E+01 -0.26300874102E+01 -0.16716689761E+01  0.38647242672E+01  0.51100000000E-03 0.  1.
         12    1    3    3    0    0 -0.20978908608E+02 -0.13438037327E+02 -0.15779562948E+02  0.29490507971E+02  0.00000000000E+00 0. -1.
</event>
<event>
 7    1  0.1538805E-008  0.4614232E+02  0.7816164E-02  0.1320468E+00
        -11   -1    0    0    0    0  0.00000000000E+00  0.00000000000E+00  0.45593999997E+02  0.45594000000E+02  0.51100000000E-03 0.  1.
         11   -1    0    0    0    0 -0.00000000000E+00 -0.00000000000E+00 -0.45593999997E+02  0.45594000000E+02  0.51100000000E-03 0. -1.
    9900012    2    1    2    0    0  0.16162837610E+02  0.31697979739E+02 -0.27624522306E+02  0.46142317945E+02  0.10000001679E+02 0.  0.
        -12    1    1    2    0    0 -0.16162837610E+02 -0.31697979739E+02  0.27624522306E+02  0.45045682055E+02  0.00000000000E+00 0.  1.
         11    1    3    3    0    0  0.75928751317E+01  0.19445037987E+02 -0.14539893517E+02  0.25439531419E+02  0.51100000000E-03 0. -1.
        -11    1    3    3    0    0  0.74962151349E+01  0.58788177277E+01 -0.86139597639E+01  0.12843443553E+02  0.51100000000E-03 0.  1.
        -12    1    3    3    0    0  0.10737473437E+01  0.63741240244E+01 -0.44706690253E+01  0.78593429732E+01  0.00000000000E+00 0.  1.
</event>
<event>
 7    1  0.1538805E-008  0.4614231E+02  0.7816164E-02  0.1320468E+00
        -11   -1    0    0    0    0  0.00000000000E+00  0.00000000000E+00  0.45593999997E+02  0.45594000000E+02  0.51100000000E-03 0.  1.
         11   -1    0    0    0    0 -0.00000000000E+00 -0.00000000000E+00 -0.45593999997E+02  0.45594000000E+02  0.51100000000E-03 0. -1.
    9900012    2    1    2    0    0 -0.23856919861E+02 -0.26777173742E+02 -0.27257006863E+02  0.46142311172E+02  0.99999399125E+01 0.  0.
        -12    1    1    2    0    0  0.23856919861E+02  0.26777173742E+02  0.27257006863E+02  0.45045688828E+02  0.00000000000E+00 0.  1.
         11    1    3    3    0    0 -0.29718347137E+01 -0.37207451998E+01 -0.55903790776E+01  0.73435743953E+01  0.51100000000E-03 0. -1.
        -11    1    3    3    0    0 -0.12607665706E+02 -0.10402344556E+02 -0.71604427689E+01  0.17844717642E+02  0.51100000000E-03 0.  1.
        -12    1    3    3    0    0 -0.82774194410E+01 -0.12654083987E+02 -0.14506185017E+02  0.20954019134E+02  0.00000000000E+00 0.  1.
</event>
<event>
 7    1  0.1538805E-008  0.4614232E+02  0.7816164E-02  0.1320468E+00
        -11   -1    0    0    0    0  0.00000000000E+00  0.00000000000E+00  0.45593999997E+02  0.45594000000E+02  0.51100000000E-03 0. -1.
         11   -1    0    0    0    0 -0.00000000000E+00 -0.00000000000E+00 -0.45593999997E+02  0.45594000000E+02  0.51100000000E-03 0.  1.
    9900012    2    1    2    0    0 -0.14862353988E+02 -0.27020918002E+01  0.42437277444E+02  0.46142318930E+02  0.10000010659E+02 0.  0.
        -12    1    1    2    0    0  0.14862353988E+02  0.27020918002E+01 -0.42437277444E+02  0.45045681070E+02  0.00000000000E+00 0.  1.
         11    1    3    3    0    0 -0.88182314920E+01 -0.28394803113E+00  0.20411373414E+02  0.22236591421E+02  0.51100000000E-03 0. -1.
        -11    1    3    3    0    0  0.53945721675E+00 -0.26488935604E+01  0.65860589139E+01  0.71192572269E+01  0.51100000000E-03 0.  1.
        -12    1    3    3    0    0 -0.65835797128E+01  0.23074979133E+00  0.15439845117E+02  0.16786470282E+02  0.00000000000E+00 0.  1.
</event>
<event>
 7    1  0.1538805E-008  0.4614232E+02  0.7816164E-02  0.1320468E+00
        -11   -1    0    0    0    0  0.00000000000E+00  0.00000000000E+00  0.45593999997E+02  0.45594000000E+02  0.51100000000E-03 0. -1.
         11   -1    0    0    0    0 -0.00000000000E+00 -0.00000000000E+00 -0.45593999997E+02  0.45594000000E+02  0.51100000000E-03 0.  1.
    9900012    2    1    2    0    0  0.59857468470E+01  0.44644356529E+02  0.40712680719E+00  0.46142317772E+02  0.10000000096E+02 0.  0.
        -12    1    1    2    0    0 -0.59857468470E+01 -0.44644356529E+02 -0.40712680719E+00  0.45045682228E+02  0.00000000000E+00 0.  1.
         11    1    3    3    0    0  0.24571663832E+01  0.31404700564E+02  0.35724871875E+01  0.31702611078E+02  0.51100000000E-03 0. -1.
        -11    1    3    3    0    0  0.41650924686E+01  0.11567536903E+02 -0.28876734900E+01  0.12629115714E+02  0.51100000000E-03 0.  1.
        -12    1    3    3    0    0 -0.63651200474E+00  0.16721190616E+01 -0.27768689026E+00  0.18105909801E+01  0.00000000000E+00 0.  1.
</event>
<event>
 7    1  0.1538805E-008  0.4614232E+02  0.7816164E-02  0.1320468E+00
        -11   -1    0    0    0    0  0.00000000000E+00  0.00000000000E+00  0.45593999997E+02  0.45594000000E+02  0.51100000000E-03 0. -1.
         11   -1    0    0    0    0 -0.00000000000E+00 -0.00000000000E+00 -0.45593999997E+02  0.45594000000E+02  0.51100000000E-03 0.  1.
    9900012    2    1    2    0    0  0.22964067395E+02  0.36761410405E+02 -0.12262284275E+02  0.46142319831E+02  0.10000018874E+02 0.  0.
        -12    1    1    2    0    0 -0.22964067395E+02 -0.36761410405E+02  0.12262284275E+02  0.45045680169E+02  0.00000000000E+00 0.  1.
         11    1    3    3    0    0  0.14267381964E+02  0.21568644984E+02 -0.65776416292E+01  0.26683890350E+02  0.51100000000E-03 0. -1.
        -11    1    3    3    0    0  0.60878663206E+00  0.44029965678E+01  0.76596755697E+00  0.45103998158E+01  0.51100000000E-03 0.  1.
        -12    1    3    3    0    0  0.80878987986E+01  0.10789768853E+02 -0.64506102027E+01  0.14948029665E+02  0.00000000000E+00 0.  1.
</event>
<event>
 7    1  0.1538805E-008  0.4614232E+02  0.7816164E-02  0.1320468E+00
        -11   -1    0    0    0    0  0.00000000000E+00  0.00000000000E+00  0.45593999997E+02  0.45594000000E+02  0.51100000000E-03 0. -1.
         11   -1    0    0    0    0 -0.00000000000E+00 -0.00000000000E+00 -0.45593999997E+02  0.45594000000E+02  0.51100000000E-03 0.  1.
    9900012    2    1    2    0    0  0.31626307698E+02  0.16484220683E+02  0.27516551415E+02  0.46142317943E+02  0.10000001663E+02 0.  0.
        -12    1    1    2    0    0 -0.31626307698E+02 -0.16484220683E+02 -0.27516551415E+02  0.45045682057E+02  0.00000000000E+00 0.  1.
         11    1    3    3    0    0  0.15728146152E+02  0.12933181676E+02  0.15847184104E+02  0.25802616416E+02  0.51100000000E-03 0. -1.
        -11    1    3    3    0    0  0.62693238952E+01  0.85984855818E+00  0.26005512589E+01  0.68415370172E+01  0.51100000000E-03 0.  1.
         12    1    3    3    0    0  0.96288376511E+01  0.26911904484E+01  0.90688160525E+01  0.13498164510E+02  0.00000000000E+00 0. -1.
</event>
<event>
 7    1  0.1538805E-008  0.4614232E+02  0.7816164E-02  0.1320468E+00
        -11   -1    0    0    0    0  0.00000000000E+00  0.00000000000E+00  0.45593999997E+02  0.45594000000E+02  0.51100000000E-03 0. -1.
         11   -1    0    0    0    0 -0.00000000000E+00 -0.00000000000E+00 -0.45593999997E+02  0.45594000000E+02  0.51100000000E-03 0.  1.
    9900012    2    1    2    0    0  0.43757402184E+02 -0.95471826120E+01 -0.48222703385E+01  0.46142320597E+02  0.10000025856E+02 0.  0.
        -12    1    1    2    0    0 -0.43757402184E+02  0.95471826120E+01  0.48222703385E+01  0.45045679403E+02  0.00000000000E+00 0.  1.
         11    1    3    3    0    0  0.31768858804E+02 -0.62274097071E+01  0.58906024245E+00  0.32378820448E+02  0.51100000000E-03 0. -1.
        -11    1    3    3    0    0  0.57296950541E+01 -0.27841246272E+01 -0.28760473828E+01  0.69894494892E+01  0.51100000000E-03 0.  1.
         12    1    3    3    0    0  0.62588483255E+01 -0.53564827761E+00 -0.25352831982E+01  0.67740506592E+01  0.00000000000E+00 0. -1.
</event>
<event>
 7    1  0.1538805E-008  0.4614232E+02  0.7816164E-02  0.1320468E+00
        -11   -1    0    0    0    0  0.00000000000E+00  0.00000000000E+00  0.45593999997E+02  0.45594000000E+02  0.51100000000E-03 0.  1.
         11   -1    0    0    0    0 -0.00000000000E+00 -0.00000000000E+00 -0.45593999997E+02  0.45594000000E+02  0.51100000000E-03 0. -1.
    9900012    2    1    2    0    0  0.34545180971E+02  0.26741521360E+02  0.10983397304E+02  0.46142317528E+02  0.99999978770E+01 0.  0.
        -12    1    1    2    0    0 -0.34545180971E+02 -0.26741521360E+02 -0.10983397304E+02  0.45045682472E+02  0.00000000000E+00 0.  1.
         11    1    3    3    0    0  0.73648467867E+01  0.64707843658E+01  0.25662139471E+01  0.10133976159E+02  0.51100000000E-03 0. -1.
        -11    1    3    3    0    0 -0.49861512548E+00 -0.70346848734E-01  0.59505526190E+00  0.77952341101E+00  0.51100000000E-03 0.  1.
        -12    1    3    3    0    0  0.27678949310E+02  0.20341083843E+02  0.78221280949E+01  0.35228817959E+02  0.00000000000E+00 0.  1.
</event>
<event>
 7    1  0.1538805E-008  0.4614232E+02  0.7816164E-02  0.1320468E+00
        -11   -1    0    0    0    0  0.00000000000E+00  0.00000000000E+00  0.45593999997E+02  0.45594000000E+02  0.51100000000E-03 0.  1.
         11   -1    0    0    0    0 -0.00000000000E+00 -0.00000000000E+00 -0.45593999997E+02  0.45594000000E+02  0.51100000000E-03 0. -1.
    9900012    2    1    2    0    0 -0.10600403584E+02  0.34840446212E+02 -0.26512036245E+02  0.46142319694E+02  0.10000017622E+02 0.  0.
        -12    1    1    2    0    0  0.10600403584E+02 -0.34840446212E+02  0.26512036245E+02  0.45045680306E+02  0.00000000000E+00 0.  1.
         11    1    3    3    0    0 -0.62560429715E+01  0.13229910705E+02 -0.71784303527E+01  0.16300259922E+02  0.51100000000E-03 0. -1.
        -11    1    3    3    0    0  0.54887565861E+00  0.11320515478E+02 -0.93500514696E+01  0.14692814500E+02  0.51100000000E-03 0.  1.
        -12    1    3    3    0    0 -0.48932362713E+01  0.10290020029E+02 -0.99835544230E+01  0.15149245272E+02  0.00000000000E+00 0.  1.
</event>
<event>
 7    1  0.1538805E-008  0.4614232E+02  0.7816164E-02  0.1320468E+00
        -11   -1    0    0    0    0  0.00000000000E+00  0.00000000000E+00  0.45593999997E+02  0.45594000000E+02  0.51100000000E-03 0.  1.
         11   -1    0    0    0    0 -0.00000000000E+00 -0.00000000000E+00 -0.45593999997E+02  0.45594000000E+02  0.51100000000E-03 0. -1.
    9900012    2    1    2    0    0 -0.32885719959E+02 -0.17708029233E+02 -0.25180718210E+02  0.46142318230E+02  0.10000004274E+02 0.  0.
        -12    1    1    2    0    0  0.32885719959E+02  0.17708029233E+02  0.25180718210E+02  0.45045681770E+02  0.00000000000E+00 0.  1.
         11    1    3    3    0    0 -0.28112273984E+02 -0.12482129660E+02 -0.17730204583E+02  0.35503009228E+02  0.51100000000E-03 0. -1.
        -11    1    3    3    0    0 -0.49491880223E+01 -0.50539136497E+01 -0.75745555244E+01  0.10363898731E+02  0.51100000000E-03 0.  1.
         12    1    3    3    0    0  0.17574204723E+00 -0.17198592284E+00  0.12404189717E+00  0.27541027046E+00  0.00000000000E+00 0. -1.
</event>
<event>
 7    1  0.1538805E-008  0.4614232E+02  0.7816164E-02  0.1320468E+00
        -11   -1    0    0    0    0  0.00000000000E+00  0.00000000000E+00  0.45593999997E+02  0.45594000000E+02  0.51100000000E-03 0. -1.
         11   -1    0    0    0    0 -0.00000000000E+00 -0.00000000000E+00 -0.45593999997E+02  0.45594000000E+02  0.51100000000E-03 0.  1.
    9900012    2    1    2    0    0  0.43085915465E+02  0.54372841719E+01  0.11964669582E+02  0.46142317756E+02  0.99999999517E+01 0.  0.
        -12    1    1    2    0    0 -0.43085915465E+02 -0.54372841719E+01 -0.11964669582E+02  0.45045682244E+02  0.00000000000E+00 0.  1.
         11    1    3    3    0    0  0.66923361814E+01  0.35990825652E+00  0.34879761657E+01  0.75553210065E+01  0.51100000000E-03 0. -1.
        -11    1    3    3    0    0  0.23310771538E+02  0.50216929253E+01  0.18384380820E+01  0.23916298300E+02  0.51100000000E-03 0.  1.
        -12    1    3    3    0    0  0.13082807746E+02  0.55682990054E-01  0.66382553340E+01  0.14670698450E+02  0.00000000000E+00 0.  1.
</event>
<event>
 7    1  0.1538805E-008  0.4614232E+02  0.7816164E-02  0.1320468E+00
        -11   -1    0    0    0    0  0.00000000000E+00  0.00000000000E+00  0.45593999997E+02  0.45594000000E+02  0.51100000000E-03 0.  1.
         11   -1    0    0    0    0 -0.00000000000E+00 -0.00000000000E+00 -0.45593999997E+02  0.45594000000E+02  0.51100000000E-03 0. -1.
    9900012    2    1    2    0    0 -0.44499294888E+02  0.69891166752E+01 -0.28003445893E+00  0.46142318557E+02  0.10000007254E+02 0.  0.
        -12    1    1    2    0    0  0.44499294888E+02 -0.69891166752E+01  0.28003445893E+00  0.45045681443E+02  0.00000000000E+00 0.  1.
         11    1    3    3    0    0 -0.13571208919E+02  0.16212304739E+01 -0.35255377777E+01  0.14115081178E+02  0.51100000000E-03 0. -1.
        -11    1    3    3    0    0 -0.27591122521E+02  0.58334500353E+01  0.42312640842E+01  0.28516710492E+02  0.51100000000E-03 0.  1.
        -12    1    3    3    0    0 -0.33369634477E+01 -0.46556383399E+00 -0.98576076548E+00  0.35105268866E+01  0.00000000000E+00 0.  1.
</event>
<event>
 7    1  0.1538805E-008  0.4614232E+02  0.7816164E-02  0.1320468E+00
        -11   -1    0    0    0    0  0.00000000000E+00  0.00000000000E+00  0.45593999997E+02  0.45594000000E+02  0.51100000000E-03 0.  1.
         11   -1    0    0    0    0 -0.00000000000E+00 -0.00000000000E+00 -0.45593999997E+02  0.45594000000E+02  0.51100000000E-03 0. -1.
    9900012    2    1    2    0    0  0.42584330345E+02 -0.13928741225E+02 -0.46560147510E+01  0.46142317672E+02  0.99999991896E+01 0.  0.
        -12    1    1    2    0    0 -0.42584330345E+02  0.13928741225E+02  0.46560147510E+01  0.45045682328E+02  0.00000000000E+00 0.  1.
         11    1    3    3    0    0  0.34784002405E+02 -0.12153908037E+02 -0.21946726808E+00  0.36846878701E+02  0.51100000000E-03 0. -1.
        -11    1    3    3    0    0  0.39784086444E+01 -0.16388687237E+01 -0.28134295901E+01  0.51409155172E+01  0.51100000000E-03 0.  1.
         12    1    3    3    0    0  0.38219192955E+01 -0.13596446453E+00 -0.16231178928E+01  0.41545234541E+01  0.00000000000E+00 0. -1.
</event>
<event>
 7    1  0.1538805E-008  0.4614232E+02  0.7816164E-02  0.1320468E+00
        -11   -1    0    0    0    0  0.00000000000E+00  0.00000000000E+00  0.45593999997E+02  0.45594000000E+02  0.51100000000E-03 0.  1.
         11   -1    0    0    0    0 -0.00000000000E+00 -0.00000000000E+00 -0.45593999997E+02  0.45594000000E+02  0.51100000000E-03 0. -1.
    9900012    2    1    2    0    0 -0.29147638124E+02 -0.31595368227E+02 -0.13463333366E+02  0.46142318221E+02  0.10000004197E+02 0.  0.
        -12    1    1    2    0    0  0.29147638124E+02  0.31595368227E+02  0.13463333366E+02  0.45045681779E+02  0.00000000000E+00 0.  1.
         11    1    3    3    0    0 -0.18992638999E+02 -0.24098503174E+02 -0.12604801842E+02  0.33171361460E+02  0.51100000000E-03 0. -1.
        -11    1    3    3    0    0 -0.45703225479E+01 -0.37262744316E+01  0.99978175394E+00  0.59810143912E+01  0.51100000000E-03 0.  1.
        -12    1    3    3    0    0 -0.55846765765E+01 -0.37705906218E+01 -0.18583132778E+01  0.69899423703E+01  0.00000000000E+00 0.  1.
</event>
<event>
 7    1  0.1538805E-008  0.4614232E+02  0.7816164E-02  0.1320468E+00
        -11   -1    0    0    0    0  0.00000000000E+00  0.00000000000E+00  0.45593999997E+02  0.45594000000E+02  0.51100000000E-03 0. -1.
         11   -1    0    0    0    0 -0.00000000000E+00 -0.00000000000E+00 -0.45593999997E+02  0.45594000000E+02  0.51100000000E-03 0.  1.
    9900012    2    1    2    0    0  0.28972591257E+02 -0.33972828398E+02 -0.59623130625E+01  0.46142319956E+02  0.10000020018E+02 0.  0.
        -12    1    1    2    0    0 -0.28972591257E+02  0.33972828398E+02  0.59623130625E+01  0.45045680044E+02  0.00000000000E+00 0.  1.
         11    1    3    3    0    0  0.15542999656E+02 -0.20892132822E+02 -0.75942234473E+01  0.27124495980E+02  0.51100000000E-03 0. -1.
        -11    1    3    3    0    0  0.51857311496E+01 -0.33081298626E+01  0.83804987967E+00  0.62078868068E+01  0.51100000000E-03 0.  1.
         12    1    3    3    0    0  0.82438604521E+01 -0.97725657138E+01  0.79386050520E+00  0.12809937169E+02  0.00000000000E+00 0. -1.
</event>
<event>
 7    1  0.1538805E-008  0.4614232E+02  0.7816164E-02  0.1320468E+00
        -11   -1    0    0    0    0  0.00000000000E+00  0.00000000000E+00  0.45593999997E+02  0.45594000000E+02  0.51100000000E-03 0.  1.
         11   -1    0    0    0    0 -0.00000000000E+00 -0.00000000000E+00 -0.45593999997E+02  0.45594000000E+02  0.51100000000E-03 0. -1.
    9900012    2    1    2    0    0 -0.30319711475E+02 -0.30963302119E+02 -0.12292377316E+02  0.46142317386E+02  0.99999965817E+01 0.  0.
        -12    1    1    2    0    0  0.30319711475E+02  0.30963302119E+02  0.12292377316E+02  0.45045682614E+02  0.00000000000E+00 0.  1.
         11    1    3    3    0    0 -0.27004405713E+02 -0.27271180825E+02 -0.10636892730E+02  0.39825854902E+02  0.51100000000E-03 0. -1.
        -11    1    3    3    0    0 -0.72479137592E+00 -0.49909195300E-01  0.90887572549E+00  0.11635586843E+01  0.51100000000E-03 0.  1.
        -12    1    3    3    0    0 -0.25905143862E+01 -0.36422120991E+01 -0.25643603117E+01  0.51529037996E+01  0.00000000000E+00 0.  1.
</event>
<event>
 7    1  0.1538805E-008  0.4614232E+02  0.7816164E-02  0.1320468E+00
        -11   -1    0    0    0    0  0.00000000000E+00  0.00000000000E+00  0.45593999997E+02  0.45594000000E+02  0.51100000000E-03 0. -1.
         11   -1    0    0    0    0 -0.00000000000E+00 -0.00000000000E+00 -0.45593999997E+02  0.45594000000E+02  0.51100000000E-03 0.  1.
    9900012    2    1    2    0    0  0.27978801386E+01  0.21861853413E+02  0.39285425876E+02  0.46142318140E+02  0.10000003459E+02 0.  0.
        -12    1    1    2    0    0 -0.27978801386E+01 -0.21861853413E+02 -0.39285425876E+02  0.45045681860E+02  0.00000000000E+00 0.  1.
         11    1    3    3    0    0 -0.15974395787E+00  0.11715161412E+01  0.21909949548E+01  0.24896641047E+01  0.51100000000E-03 0. -1.
        -11    1    3    3    0    0  0.45844855331E+01  0.19851431387E+02  0.36362597268E+02  0.41681354537E+02  0.51100000000E-03 0.  1.
        -12    1    3    3    0    0 -0.16268614367E+01  0.83890588492E+00  0.73183365370E+00  0.19712994990E+01  0.00000000000E+00 0.  1.
</event>
<event>
 7    1  0.1538805E-008  0.4614232E+02  0.7816164E-02  0.1320468E+00
        -11   -1    0    0    0    0  0.00000000000E+00  0.00000000000E+00  0.45593999997E+02  0.45594000000E+02  0.51100000000E-03 0.  1.
         11   -1    0    0    0    0 -0.00000000000E+00 -0.00000000000E+00 -0.45593999997E+02  0.45594000000E+02  0.51100000000E-03 0. -1.
    9900012    2    1    2    0    0 -0.20321190959E+02  0.39989442550E+02 -0.41239771956E+01  0.46142317573E+02  0.99999982810E+01 0.  0.
        -12    1    1    2    0    0  0.20321190959E+02 -0.39989442550E+02  0.41239771956E+01  0.45045682427E+02  0.00000000000E+00 0.  1.
         11    1    3    3    0    0 -0.39269406762E+01  0.10290067541E+02  0.29329376871E+01  0.11397739987E+02  0.51100000000E-03 0.  1.
        -11    1    3    3    0    0 -0.53925007875E+01  0.12290427311E+02 -0.30773158689E+01  0.13769660179E+02  0.51100000000E-03 0. -1.
        -12    1    3    3    0    0 -0.11001749495E+02  0.17408947699E+02 -0.39795990138E+01  0.20974917407E+02  0.00000000000E+00 0.  1.
</event>
<event>
 7    1  0.1538805E-008  0.4614232E+02  0.7816164E-02  0.1320468E+00
        -11   -1    0    0    0    0  0.00000000000E+00  0.00000000000E+00  0.45593999997E+02  0.45594000000E+02  0.51100000000E-03 0.  1.
         11   -1    0    0    0    0 -0.00000000000E+00 -0.00000000000E+00 -0.45593999997E+02  0.45594000000E+02  0.51100000000E-03 0. -1.
    9900012    2    1    2    0    0 -0.33484848124E+02 -0.24363237320E+01 -0.30032361079E+02  0.46142318306E+02  0.10000004973E+02 0.  0.
        -12    1    1    2    0    0  0.33484848124E+02  0.24363237320E+01  0.30032361079E+02  0.45045681694E+02  0.00000000000E+00 0.  1.
         11    1    3    3    0    0 -0.12405473292E+02  0.84708486204E+00 -0.14930454054E+02  0.19430177016E+02  0.51100000000E-03 0. -1.
        -11    1    3    3    0    0 -0.11952660396E+02  0.89434438869E+00 -0.86167066935E+01  0.14761896116E+02  0.51100000000E-03 0.  1.
         12    1    3    3    0    0 -0.91267144369E+01 -0.41777529827E+01 -0.64852003318E+01  0.11950245175E+02  0.00000000000E+00 0. -1.
</event>
<event>
 7    1  0.1538805E-008  0.4614232E+02  0.7816164E-02  0.1320468E+00
        -11   -1    0    0    0    0  0.00000000000E+00  0.00000000000E+00  0.45593999997E+02  0.45594000000E+02  0.51100000000E-03 0.  1.
         11   -1    0    0    0    0 -0.00000000000E+00 -0.00000000000E+00 -0.45593999997E+02  0.45594000000E+02  0.51100000000E-03 0. -1.
    9900012    2    1    2    0    0  0.32351606912E+02 -0.64588523072E+01 -0.30671979421E+02  0.46142316916E+02  0.99999922930E+01 0.  0.
        -12    1    1    2    0    0 -0.32351606912E+02  0.64588523072E+01  0.30671979421E+02  0.45045683084E+02  0.00000000000E+00 0.  1.
         11    1    3    3    0    0  0.23458726450E+02 -0.71629266731E+01 -0.23617010413E+02  0.34049706993E+02  0.51100000000E-03 0. -1.
        -11    1    3    3    0    0  0.68425275013E+01  0.21801281938E+01 -0.43730531657E+01  0.84081350963E+01  0.51100000000E-03 0.  1.
        -12    1    3    3    0    0  0.20503529615E+01 -0.14760538279E+01 -0.26819158417E+01  0.36844748271E+01  0.00000000000E+00 0.  1.
</event>
<event>
 7    1  0.1538805E-008  0.4614232E+02  0.7816164E-02  0.1320468E+00
        -11   -1    0    0    0    0  0.00000000000E+00  0.00000000000E+00  0.45593999997E+02  0.45594000000E+02  0.51100000000E-03 0.  1.
         11   -1    0    0    0    0 -0.00000000000E+00 -0.00000000000E+00 -0.45593999997E+02  0.45594000000E+02  0.51100000000E-03 0. -1.
    9900012    2    1    2    0    0  0.34306008914E+02 -0.29187440723E+02 -0.55160279071E+00  0.46142320859E+02  0.10000028253E+02 0.  0.
        -12    1    1    2    0    0 -0.34306008914E+02  0.29187440723E+02  0.55160279071E+00  0.45045679141E+02  0.00000000000E+00 0.  1.
         11    1    3    3    0    0  0.54517955114E+01 -0.57874992625E+01  0.18522329466E+01  0.81638219702E+01  0.51100000000E-03 0.  1.
        -11    1    3    3    0    0  0.25206507020E+02 -0.17531863667E+02 -0.12905769456E+00  0.30704248826E+02  0.51100000000E-03 0. -1.
        -12    1    3    3    0    0  0.36477063831E+01 -0.58680777933E+01 -0.22747780428E+01  0.72742500637E+01  0.00000000000E+00 0.  1.
</event>
<event>
 7    1  0.1538805E-008  0.4614232E+02  0.7816164E-02  0.1320468E+00
        -11   -1    0    0    0    0  0.00000000000E+00  0.00000000000E+00  0.45593999997E+02  0.45594000000E+02  0.51100000000E-03 0. -1.
         11   -1    0    0    0    0 -0.00000000000E+00 -0.00000000000E+00 -0.45593999997E+02  0.45594000000E+02  0.51100000000E-03 0.  1.
    9900012    2    1    2    0    0 -0.34313269965E+02 -0.26686769208E+02  0.11812253951E+02  0.46142317745E+02  0.99999998511E+01 0.  0.
        -12    1    1    2    0    0  0.34313269965E+02  0.26686769208E+02 -0.11812253951E+02  0.45045682255E+02  0.00000000000E+00 0.  1.
         11    1    3    3    0    0 -0.35601335101E+01 -0.27393845131E+01  0.34820849681E+01  0.56836338822E+01  0.51100000000E-03 0. -1.
        -11    1    3    3    0    0 -0.19464116372E+02 -0.18431703639E+02  0.76468882540E+01  0.27875695963E+02  0.51100000000E-03 0.  1.
        -12    1    3    3    0    0 -0.11289020082E+02 -0.55156810566E+01  0.68328072857E+00  0.12582987900E+02  0.00000000000E+00 0.  1.
</event>
<event>
 7    1  0.1538805E-008  0.4614232E+02  0.7816164E-02  0.1320468E+00
        -11   -1    0    0    0    0  0.00000000000E+00  0.00000000000E+00  0.45593999997E+02  0.45594000000E+02  0.51100000000E-03 0.  1.
         11   -1    0    0    0    0 -0.00000000000E+00 -0.00000000000E+00 -0.45593999997E+02  0.45594000000E+02  0.51100000000E-03 0. -1.
    9900012    2    1    2    0    0  0.89602678853E+01  0.15023392006E+02 -0.41510541059E+02  0.46142315113E+02  0.99999758513E+01 0.  0.
        -12    1    1    2    0    0 -0.89602678853E+01 -0.15023392006E+02  0.41510541059E+02  0.45045684887E+02  0.00000000000E+00 0.  1.
         11    1    3    3    0    0  0.59402075180E+01  0.85792206949E+01 -0.21702368341E+02  0.24080736803E+02  0.51100000000E-03 0. -1.
        -11    1    3    3    0    0  0.79133313460E+00  0.29388008626E+01 -0.16424097948E+02  0.16703704748E+02  0.51100000000E-03 0.  1.
        -12    1    3    3    0    0  0.22287272327E+01  0.35053704487E+01 -0.33840747696E+01  0.53578735620E+01  0.00000000000E+00 0.  1.
</event>
<event>
 7    1  0.1538805E-008  0.4614232E+02  0.7816164E-02  0.1320468E+00
        -11   -1    0    0    0    0  0.00000000000E+00  0.00000000000E+00  0.45593999997E+02  0.45594000000E+02  0.51100000000E-03 0.  1.
         11   -1    0    0    0    0 -0.00000000000E+00 -0.00000000000E+00 -0.45593999997E+02  0.45594000000E+02  0.51100000000E-03 0. -1.
    9900012    2    1    2    0    0  0.40722006056E+02 -0.84420206893E+01 -0.17307915684E+02  0.46142318343E+02  0.10000005310E+02 0.  0.
        -12    1    1    2    0    0 -0.40722006056E+02  0.84420206893E+01  0.17307915684E+02  0.45045681657E+02  0.00000000000E+00 0.  1.
         11    1    3    3    0    0  0.14182609116E+02 -0.72941386431E+00 -0.68382737477E+01  0.15761993339E+02  0.51100000000E-03 0. -1.
        -11    1    3    3    0    0  0.10683284153E+02  0.14191868628E+00 -0.54123211840E+01  0.11976891169E+02  0.51100000000E-03 0.  1.
         12    1    3    3    0    0  0.15856112788E+02 -0.78545255113E+01 -0.50573207524E+01  0.18403433836E+02  0.00000000000E+00 0. -1.
</event>
<event>
 7    1  0.1538805E-008  0.4614232E+02  0.7816164E-02  0.1320468E+00
        -11   -1    0    0    0    0  0.00000000000E+00  0.00000000000E+00  0.45593999997E+02  0.45594000000E+02  0.51100000000E-03 0. -1.
         11   -1    0    0    0    0 -0.00000000000E+00 -0.00000000000E+00 -0.45593999997E+02  0.45594000000E+02  0.51100000000E-03 0.  1.
    9900012    2    1    2    0    0 -0.44607037397E+02 -0.41326291778E+01  0.47166762542E+01  0.46142318252E+02  0.10000004473E+02 0.  0.
        -12    1    1    2    0    0  0.44607037397E+02  0.41326291778E+01 -0.47166762542E+01  0.45045681748E+02  0.00000000000E+00 0.  1.
         11    1    3    3    0    0 -0.24953252808E+02  0.68450395454E-01  0.41387328148E+01  0.25294240861E+02  0.51100000000E-03 0. -1.
        -11    1    3    3    0    0 -0.17418950460E+02 -0.18035011223E+01  0.10148893336E+01  0.17541449542E+02  0.51100000000E-03 0.  1.
         12    1    3    3    0    0 -0.22348341302E+01 -0.23975784510E+01 -0.43694589430E+00  0.33066278491E+01  0.00000000000E+00 0. -1.
</event>
<event>
 7    1  0.1538805E-008  0.4614232E+02  0.7816164E-02  0.1320468E+00
        -11   -1    0    0    0    0  0.00000000000E+00  0.00000000000E+00  0.45593999997E+02  0.45594000000E+02  0.51100000000E-03 0. -1.
         11   -1    0    0    0    0 -0.00000000000E+00 -0.00000000000E+00 -0.45593999997E+02  0.45594000000E+02  0.51100000000E-03 0.  1.
    9900012    2    1    2    0    0  0.27327259898E+01  0.37989943551E+02  0.24050154111E+02  0.46142317465E+02  0.99999972986E+01 0.  0.
        -12    1    1    2    0    0 -0.27327259898E+01 -0.37989943551E+02 -0.24050154111E+02  0.45045682535E+02  0.00000000000E+00 0.  1.
         11    1    3    3    0    0 -0.13084801548E+01  0.38977650913E+01  0.17067813233E+01  0.44517182940E+01  0.51100000000E-03 0.  1.
        -11    1    3    3    0    0  0.24548130534E+01  0.30406306380E+02  0.22102115748E+02  0.37670586611E+02  0.51100000000E-03 0. -1.
        -12    1    3    3    0    0  0.15863930912E+01  0.36858720791E+01  0.24125703941E+00  0.40200125600E+01  0.00000000000E+00 0.  1.
</event>
<event>
 7    1  0.1538805E-008  0.4614232E+02  0.7816164E-02  0.1320468E+00
        -11   -1    0    0    0    0  0.00000000000E+00  0.00000000000E+00  0.45593999997E+02  0.45594000000E+02  0.51100000000E-03 0. -1.
         11   -1    0    0    0    0 -0.00000000000E+00 -0.00000000000E+00 -0.45593999997E+02  0.45594000000E+02  0.51100000000E-03 0.  1.
    9900012    2    1    2    0    0 -0.15731853502E+02  0.10593983978E+02  0.40858169079E+02  0.46142315505E+02  0.99999794287E+01 0.  0.
        -12    1    1    2    0    0  0.15731853502E+02 -0.10593983978E+02 -0.40858169079E+02  0.45045684495E+02  0.00000000000E+00 0.  1.
         11    1    3    3    0    0 -0.68814212771E+01  0.16947266336E+01  0.11067961185E+02  0.13142519629E+02  0.51100000000E-03 0. -1.
        -11    1    3    3    0    0 -0.13970494071E+01 -0.59530390823E+00  0.74897628310E+01  0.76421647008E+01  0.51100000000E-03 0.  1.
         12    1    3    3    0    0 -0.74533828177E+01  0.94945612521E+01  0.22300445063E+02  0.25357631175E+02  0.00000000000E+00 0. -1.
</event>
<event>
 7    1  0.1538805E-008  0.4614232E+02  0.7816164E-02  0.1320468E+00
        -11   -1    0    0    0    0  0.00000000000E+00  0.00000000000E+00  0.45593999997E+02  0.45594000000E+02  0.51100000000E-03 0.  1.
         11   -1    0    0    0    0 -0.00000000000E+00 -0.00000000000E+00 -0.45593999997E+02  0.45594000000E+02  0.51100000000E-03 0. -1.
    9900012    2    1    2    0    0  0.39848319826E+02  0.11948412367E+01 -0.20971344623E+02  0.46142317256E+02  0.99999953962E+01 0.  0.
        -12    1    1    2    0    0 -0.39848319826E+02 -0.11948412367E+01  0.20971344623E+02  0.45045682744E+02  0.00000000000E+00 0.  1.
         11    1    3    3    0    0  0.30236993468E+02 -0.20043742862E+01 -0.13049446286E+02  0.32993656040E+02  0.51100000000E-03 0. -1.
        -11    1    3    3    0    0  0.19834294502E+00 -0.22734235102E+00 -0.80764759656E+00  0.86215971244E+00  0.51100000000E-03 0.  1.
         12    1    3    3    0    0  0.94129834130E+01  0.34265578739E+01 -0.71142507406E+01  0.12286501503E+02  0.00000000000E+00 0. -1.
</event>
<event>
 7    1  0.1538805E-008  0.4614232E+02  0.7816164E-02  0.1320468E+00
        -11   -1    0    0    0    0  0.00000000000E+00  0.00000000000E+00  0.45593999997E+02  0.45594000000E+02  0.51100000000E-03 0.  1.
         11   -1    0    0    0    0 -0.00000000000E+00 -0.00000000000E+00 -0.45593999997E+02  0.45594000000E+02  0.51100000000E-03 0. -1.
    9900012    2    1    2    0    0  0.65577201931E+01  0.32330686220E+01 -0.44448364316E+02  0.46142317441E+02  0.99999970844E+01 0.  0.
        -12    1    1    2    0    0 -0.65577201931E+01 -0.32330686220E+01  0.44448364316E+02  0.45045682559E+02  0.00000000000E+00 0.  1.
         11    1    3    3    0    0  0.39028004417E+01 -0.26167743882E+01 -0.20892574596E+02  0.21414458503E+02  0.51100000000E-03 0. -1.
        -11    1    3    3    0    0 -0.72090858953E+00  0.59840349271E+00 -0.12332044411E+01  0.15487379989E+01  0.51100000000E-03 0.  1.
         12    1    3    3    0    0  0.33758283410E+01  0.52514395174E+01 -0.22322585279E+02  0.23179120939E+02  0.00000000000E+00 0. -1.
</event>
<event>
 7    1  0.1538805E-008  0.4614232E+02  0.7816164E-02  0.1320468E+00
        -11   -1    0    0    0    0  0.00000000000E+00  0.00000000000E+00  0.45593999997E+02  0.45594000000E+02  0.51100000000E-03 0. -1.
         11   -1    0    0    0    0 -0.00000000000E+00 -0.00000000000E+00 -0.45593999997E+02  0.45594000000E+02  0.51100000000E-03 0.  1.
    9900012    2    1    2    0    0  0.24374592635E+02 -0.15710725187E+02  0.34469781887E+02  0.46142317462E+02  0.99999972693E+01 0.  0.
        -12    1    1    2    0    0 -0.24374592635E+02  0.15710725187E+02 -0.34469781887E+02  0.45045682538E+02  0.00000000000E+00 0.  1.
         11    1    3    3    0    0  0.75173313290E+01 -0.92500299233E+01  0.12907046960E+02  0.17568869781E+02  0.51100000000E-03 0.  1.
        -11    1    3    3    0    0  0.16159271189E+02 -0.50106324116E+01  0.18220418648E+02  0.24863872154E+02  0.51100000000E-03 0. -1.
         12    1    3    3    0    0  0.69799011655E+00 -0.14500628526E+01  0.33423162791E+01  0.37095755268E+01  0.00000000000E+00 0. -1.
</event>
<event>
 7    1  0.1538805E-008  0.4614231E+02  0.7816164E-02  0.1320468E+00
        -11   -1    0    0    0    0  0.00000000000E+00  0.00000000000E+00  0.45593999997E+02  0.45594000000E+02  0.51100000000E-03 0. -1.
         11   -1    0    0    0    0 -0.00000000000E+00 -0.00000000000E+00 -0.45593999997E+02  0.45594000000E+02  0.51100000000E-03 0.  1.
    9900012    2    1    2    0    0 -0.13409148266E+02 -0.25688206382E+02  0.34488042219E+02  0.46142309191E+02  0.99999218493E+01 0.  0.
        -12    1    1    2    0    0  0.13409148266E+02  0.25688206382E+02 -0.34488042219E+02  0.45045690809E+02  0.00000000000E+00 0.  1.
         11    1    3    3    0    0 -0.63374217911E+01 -0.13379807056E+02  0.23756480329E+02  0.27992007961E+02  0.51100000000E-03 0. -1.
        -11    1    3    3    0    0 -0.22142750750E+01 -0.58721013503E+01  0.29137521983E+01  0.69191430474E+01  0.51100000000E-03 0.  1.
         12    1    3    3    0    0 -0.48574513997E+01 -0.64362979758E+01  0.78178096918E+01  0.11231158182E+02  0.00000000000E+00 0. -1.
</event>
<event>
 7    1  0.1538805E-008  0.4614232E+02  0.7816164E-02  0.1320468E+00
        -11   -1    0    0    0    0  0.00000000000E+00  0.00000000000E+00  0.45593999997E+02  0.45594000000E+02  0.51100000000E-03 0.  1.
         11   -1    0    0    0    0 -0.00000000000E+00 -0.00000000000E+00 -0.45593999997E+02  0.45594000000E+02  0.51100000000E-03 0. -1.
    9900012    2    1    2    0    0  0.21702006480E+02 -0.36150011263E+02 -0.15852863051E+02  0.46142315784E+02  0.99999819705E+01 0.  0.
        -12    1    1    2    0    0 -0.21702006480E+02  0.36150011263E+02  0.15852863051E+02  0.45045684216E+02  0.00000000000E+00 0.  1.
         11    1    3    3    0    0  0.39020045195E+01 -0.77448904746E+01 -0.63378922017E+01  0.10741407988E+02  0.51100000000E-03 0. -1.
        -11    1    3    3    0    0  0.45124865282E+01 -0.32670086119E+01 -0.25477428061E+01  0.61259181846E+01  0.51100000000E-03 0.  1.
        -12    1    3    3    0    0  0.13287515433E+02 -0.25138112176E+02 -0.69672280436E+01  0.29274989612E+02  0.00000000000E+00 0.  1.
</event>
<event>
 7    1  0.1538805E-008  0.4614232E+02  0.7816164E-02  0.1320468E+00
        -11   -1    0    0    0    0  0.00000000000E+00  0.00000000000E+00  0.45593999997E+02  0.45594000000E+02  0.51100000000E-03 0.  1.
         11   -1    0    0    0    0 -0.00000000000E+00 -0.00000000000E+00 -0.45593999997E+02  0.45594000000E+02  0.51100000000E-03 0. -1.
    9900012    2    1    2    0    0  0.66631405659E+01 -0.26178448910E+02 -0.36047258015E+02  0.46142318298E+02  0.10000004899E+02 0.  0.
        -12    1    1    2    0    0 -0.66631405659E+01  0.26178448910E+02  0.36047258015E+02  0.45045681702E+02  0.00000000000E+00 0.  1.
         11    1    3    3    0    0  0.46974608592E+01 -0.22542487202E+02 -0.27397441937E+02  0.35788960487E+02  0.51100000000E-03 0. -1.
        -11    1    3    3    0    0  0.31396037506E+01 -0.23627370912E+01 -0.64646779917E+01  0.75651635852E+01  0.51100000000E-03 0.  1.
         12    1    3    3    0    0 -0.11739240440E+01 -0.12732246167E+01 -0.21851380862E+01  0.27881942259E+01  0.00000000000E+00 0. -1.
</event>
<event>
 7    1  0.1538805E-008  0.4614232E+02  0.7816164E-02  0.1320468E+00
        -11   -1    0    0    0    0  0.00000000000E+00  0.00000000000E+00  0.45593999997E+02  0.45594000000E+02  0.51100000000E-03 0. -1.
         11   -1    0    0    0    0 -0.00000000000E+00 -0.00000000000E+00 -0.45593999997E+02  0.45594000000E+02  0.51100000000E-03 0.  1.
    9900012    2    1    2    0    0  0.10464340431E+02  0.38367982711E+02 -0.21154407653E+02  0.46142317842E+02  0.10000000736E+02 0.  0.
        -12    1    1    2    0    0 -0.10464340431E+02 -0.38367982711E+02  0.21154407653E+02  0.45045682158E+02  0.00000000000E+00 0.  1.
         11    1    3    3    0    0  0.44179647687E+01  0.28144463364E+02 -0.14570015488E+02  0.31998665321E+02  0.51100000000E-03 0. -1.
        -11    1    3    3    0    0  0.49277518500E+01  0.50660572714E+01 -0.49153994776E+01  0.86086483758E+01  0.51100000000E-03 0.  1.
        -12    1    3    3    0    0  0.11186238127E+01  0.51574620760E+01 -0.16689926864E+01  0.55350041452E+01  0.00000000000E+00 0.  1.
</event>
<event>
 7    1  0.1538805E-008  0.4614232E+02  0.7816164E-02  0.1320468E+00
        -11   -1    0    0    0    0  0.00000000000E+00  0.00000000000E+00  0.45593999997E+02  0.45594000000E+02  0.51100000000E-03 0.  1.
         11   -1    0    0    0    0 -0.00000000000E+00 -0.00000000000E+00 -0.45593999997E+02  0.45594000000E+02  0.51100000000E-03 0. -1.
    9900012    2    1    2    0    0  0.88756281068E+01 -0.14115672096E+01 -0.44140046149E+02  0.46142323512E+02  0.10000052438E+02 0.  0.
        -12    1    1    2    0    0 -0.88756281068E+01  0.14115672096E+01  0.44140046149E+02  0.45045676488E+02  0.00000000000E+00 0.  1.
         11    1    3    3    0    0  0.14669111441E+01  0.15420179573E+01 -0.14716830126E+01  0.25875661993E+01  0.51100000000E-03 0. -1.
        -11    1    3    3    0    0 -0.18033803030E+00  0.33450964002E+00 -0.36326554512E+01  0.36524792118E+01  0.51100000000E-03 0.  1.
         12    1    3    3    0    0  0.75890549930E+01 -0.32880948069E+01 -0.39035707685E+02  0.39902278101E+02  0.00000000000E+00 0. -1.
</event>
<event>
 7    1  0.1538805E-008  0.4614232E+02  0.7816164E-02  0.1320468E+00
        -11   -1    0    0    0    0  0.00000000000E+00  0.00000000000E+00  0.45593999997E+02  0.45594000000E+02  0.51100000000E-03 0.  1.
         11   -1    0    0    0    0 -0.00000000000E+00 -0.00000000000E+00 -0.45593999997E+02  0.45594000000E+02  0.51100000000E-03 0. -1.
    9900012    2    1    2    0    0  0.34074950215E+02  0.11690670254E+01 -0.29438829063E+02  0.46142316450E+02  0.99999880457E+01 0.  0.
        -12    1    1    2    0    0 -0.34074950215E+02 -0.11690670254E+01  0.29438829063E+02  0.45045683550E+02  0.00000000000E+00 0.  1.
         11    1    3    3    0    0  0.94744027160E+01  0.11536914037E+01 -0.65675820666E+01  0.11585700028E+02  0.51100000000E-03 0. -1.
        -11    1    3    3    0    0  0.86342678615E+01  0.35476442942E+01 -0.62109896015E+01  0.11212169890E+02  0.51100000000E-03 0.  1.
        -12    1    3    3    0    0  0.15966279638E+02 -0.35322686725E+01 -0.16660257395E+02  0.23344446532E+02  0.00000000000E+00 0.  1.
</event>
<event>
 7    1  0.1538805E-008  0.4614232E+02  0.7816164E-02  0.1320468E+00
        -11   -1    0    0    0    0  0.00000000000E+00  0.00000000000E+00  0.45593999997E+02  0.45594000000E+02  0.51100000000E-03 0.  1.
         11   -1    0    0    0    0 -0.00000000000E+00 -0.00000000000E+00 -0.45593999997E+02  0.45594000000E+02  0.51100000000E-03 0. -1.
    9900012    2    1    2    0    0  0.18346631700E+02  0.40261933967E+02 -0.84552474013E+01  0.46142318408E+02  0.10000005900E+02 0.  0.
        -12    1    1    2    0    0 -0.18346631700E+02 -0.40261933967E+02  0.84552474013E+01  0.45045681592E+02  0.00000000000E+00 0.  1.
         11    1    3    3    0    0  0.35882454583E+01  0.13402321463E+02 -0.29236774192E+01  0.14179055539E+02  0.51100000000E-03 0. -1.
        -11    1    3    3    0    0  0.10817712777E+02  0.22643566670E+02 -0.69121976535E+01  0.26029454430E+02  0.51100000000E-03 0.  1.
        -12    1    3    3    0    0  0.39406734647E+01  0.42160458342E+01  0.13806276714E+01  0.59338084396E+01  0.00000000000E+00 0.  1.
</event>
<event>
 7    1  0.1538805E-008  0.4614232E+02  0.7816164E-02  0.1320468E+00
        -11   -1    0    0    0    0  0.00000000000E+00  0.00000000000E+00  0.45593999997E+02  0.45594000000E+02  0.51100000000E-03 0.  1.
         11   -1    0    0    0    0 -0.00000000000E+00 -0.00000000000E+00 -0.45593999997E+02  0.45594000000E+02  0.51100000000E-03 0. -1.
    9900012    2    1    2    0    0  0.16565637434E+02 -0.11195759060E+02 -0.40365180214E+02  0.46142321648E+02  0.10000035440E+02 0.  0.
        -12    1    1    2    0    0 -0.16565637434E+02  0.11195759060E+02  0.40365180214E+02  0.45045678352E+02  0.00000000000E+00 0.  1.
         11    1    3    3    0    0  0.77302016399E+00 -0.22157492433E+01 -0.29101378593E+01  0.37384498799E+01  0.51100000000E-03 0. -1.
        -11    1    3    3    0    0 -0.92378593655E+00 -0.85994052523E+00 -0.18331007797E+01  0.22255643988E+01  0.51100000000E-03 0.  1.
         12    1    3    3    0    0  0.16716403207E+02 -0.81200692918E+01 -0.35621941575E+02  0.40178307369E+02  0.00000000000E+00 0. -1.
</event>
<event>
 7    1  0.1538805E-008  0.4614232E+02  0.7816164E-02  0.1320468E+00
        -11   -1    0    0    0    0  0.00000000000E+00  0.00000000000E+00  0.45593999997E+02  0.45594000000E+02  0.51100000000E-03 0. -1.
         11   -1    0    0    0    0 -0.00000000000E+00 -0.00000000000E+00 -0.45593999997E+02  0.45594000000E+02  0.51100000000E-03 0.  1.
    9900012    2    1    2    0    0 -0.22658453307E+02 -0.34710879793E+02  0.17631303375E+02  0.46142317178E+02  0.99999946782E+01 0.  0.
        -12    1    1    2    0    0  0.22658453307E+02  0.34710879793E+02 -0.17631303375E+02  0.45045682822E+02  0.00000000000E+00 0.  1.
         11    1    3    3    0    0 -0.13064256621E+02 -0.22927395978E+02  0.65101247006E+01  0.27179440967E+02  0.51100000000E-03 0. -1.
        -11    1    3    3    0    0 -0.63755759075E+01 -0.61170607307E+01  0.66847686894E+01  0.11079374207E+02  0.51100000000E-03 0.  1.
         12    1    3    3    0    0 -0.32186207789E+01 -0.56664230839E+01  0.44364099848E+01  0.78835020034E+01  0.00000000000E+00 0. -1.
</event>
<event>
 7    1  0.1538805E-008  0.4614232E+02  0.7816164E-02  0.1320468E+00
        -11   -1    0    0    0    0  0.00000000000E+00  0.00000000000E+00  0.45593999997E+02  0.45594000000E+02  0.51100000000E-03 0.  1.
         11   -1    0    0    0    0 -0.00000000000E+00 -0.00000000000E+00 -0.45593999997E+02  0.45594000000E+02  0.51100000000E-03 0. -1.
    9900012    2    1    2    0    0  0.86989527822E+01 -0.22892719805E+02 -0.37806944699E+02  0.46142317997E+02  0.10000002155E+02 0.  0.
        -12    1    1    2    0    0 -0.86989527822E+01  0.22892719805E+02  0.37806944699E+02  0.45045682003E+02  0.00000000000E+00 0.  1.
         11    1    3    3    0    0  0.55618753314E+01 -0.10389402329E+02 -0.24098804710E+02  0.26825855563E+02  0.51100000000E-03 0. -1.
        -11    1    3    3    0    0  0.39606479723E+01 -0.10804191097E+02 -0.10416083200E+02  0.15521342310E+02  0.51100000000E-03 0.  1.
        -12    1    3    3    0    0 -0.82357052147E+00 -0.16991263787E+01 -0.32920567894E+01  0.37951201245E+01  0.00000000000E+00 0.  1.
</event>
<event>
 7    1  0.1538805E-008  0.4614232E+02  0.7816164E-02  0.1320468E+00
        -11   -1    0    0    0    0  0.00000000000E+00  0.00000000000E+00  0.45593999997E+02  0.45594000000E+02  0.51100000000E-03 0. -1.
         11   -1    0    0    0    0 -0.00000000000E+00 -0.00000000000E+00 -0.45593999997E+02  0.45594000000E+02  0.51100000000E-03 0.  1.
    9900012    2    1    2    0    0 -0.64707622048E+00 -0.20087320518E+02  0.40313700110E+02  0.46142316857E+02  0.99999917579E+01 0.  0.
        -12    1    1    2    0    0  0.64707622048E+00  0.20087320518E+02 -0.40313700110E+02  0.45045683143E+02  0.00000000000E+00 0.  1.
         11    1    3    3    0    0  0.15536349505E+00 -0.71283607782E+01  0.12569704225E+02  0.14451129014E+02  0.51100000000E-03 0. -1.
        -11    1    3    3    0    0  0.29983077290E+01 -0.51816310829E+01  0.69834963742E+01  0.91982809147E+01  0.51100000000E-03 0.  1.
        -12    1    3    3    0    0 -0.38007474445E+01 -0.77773286569E+01  0.20760499511E+02  0.22492906929E+02  0.00000000000E+00 0.  1.
</event>
<event>
 7    1  0.1538805E-008  0.4614232E+02  0.7816164E-02  0.1320468E+00
        -11   -1    0    0    0    0  0.00000000000E+00  0.00000000000E+00  0.45593999997E+02  0.45594000000E+02  0.51100000000E-03 0.  1.
         11   -1    0    0    0    0 -0.00000000000E+00 -0.00000000000E+00 -0.45593999997E+02  0.45594000000E+02  0.51100000000E-03 0. -1.
    9900012    2    1    2    0    0 -0.17222813644E+02 -0.40951669867E+02 -0.74464023937E+01  0.46142317817E+02  0.10000000514E+02 0.  0.
        -12    1    1    2    0    0  0.17222813644E+02  0.40951669867E+02  0.74464023937E+01  0.45045682183E+02  0.00000000000E+00 0.  1.
         11    1    3    3    0    0 -0.11668648358E+01 -0.72755074897E+01 -0.51804981767E+00  0.73866743974E+01  0.51100000000E-03 0.  1.
        -11    1    3    3    0    0 -0.12982699275E+02 -0.18452921305E+02 -0.32457177364E+01  0.22794636849E+02  0.51100000000E-03 0. -1.
         12    1    3    3    0    0 -0.30732495329E+01 -0.15223241071E+02 -0.36826348397E+01  0.15961006571E+02  0.00000000000E+00 0. -1.
</event>
<event>
 7    1  0.1538805E-008  0.4614232E+02  0.7816164E-02  0.1320468E+00
        -11   -1    0    0    0    0  0.00000000000E+00  0.00000000000E+00  0.45593999997E+02  0.45594000000E+02  0.51100000000E-03 0.  1.
         11   -1    0    0    0    0 -0.00000000000E+00 -0.00000000000E+00 -0.45593999997E+02  0.45594000000E+02  0.51100000000E-03 0. -1.
    9900012    2    1    2    0    0 -0.31038519230E+02 -0.21442063461E+00 -0.32644724040E+02  0.46142315858E+02  0.99999826429E+01 0.  0.
        -12    1    1    2    0    0  0.31038519230E+02  0.21442063461E+00  0.32644724040E+02  0.45045684142E+02  0.00000000000E+00 0.  1.
         11    1    3    3    0    0 -0.12718457010E+02  0.14163140669E+01 -0.10563044381E+02  0.16593462602E+02  0.51100000000E-03 0. -1.
        -11    1    3    3    0    0 -0.97107685558E+01 -0.26914658026E+01 -0.74224838831E+01  0.12515441717E+02  0.51100000000E-03 0.  1.
         12    1    3    3    0    0 -0.86092936636E+01  0.10607311011E+01 -0.14659195776E+02  0.17033411539E+02  0.00000000000E+00 0. -1.
</event>
<event>
 7    1  0.1538805E-008  0.4614232E+02  0.7816164E-02  0.1320468E+00
        -11   -1    0    0    0    0  0.00000000000E+00  0.00000000000E+00  0.45593999997E+02  0.45594000000E+02  0.51100000000E-03 0.  1.
         11   -1    0    0    0    0 -0.00000000000E+00 -0.00000000000E+00 -0.45593999997E+02  0.45594000000E+02  0.51100000000E-03 0. -1.
    9900012    2    1    2    0    0 -0.37986551066E+02  0.32789776537E+01 -0.23987154699E+02  0.46142319332E+02  0.10000014322E+02 0.  0.
        -12    1    1    2    0    0  0.37986551066E+02 -0.32789776537E+01  0.23987154699E+02  0.45045680668E+02  0.00000000000E+00 0.  1.
         11    1    3    3    0    0 -0.26953315694E+01 -0.11606403617E+01 -0.84696044192E+00  0.30543805541E+01  0.51100000000E-03 0. -1.
        -11    1    3    3    0    0 -0.11255105141E+02  0.27627348824E+01 -0.11508644595E+02  0.16332758384E+02  0.51100000000E-03 0.  1.
        -12    1    3    3    0    0 -0.24036114355E+02  0.16768831330E+01 -0.11631549662E+02  0.26755180393E+02  0.00000000000E+00 0.  1.
</event>
<event>
 7    1  0.1538805E-008  0.4614232E+02  0.7816164E-02  0.1320468E+00
        -11   -1    0    0    0    0  0.00000000000E+00  0.00000000000E+00  0.45593999997E+02  0.45594000000E+02  0.51100000000E-03 0.  1.
         11   -1    0    0    0    0 -0.00000000000E+00 -0.00000000000E+00 -0.45593999997E+02  0.45594000000E+02  0.51100000000E-03 0. -1.
    9900012    2    1    2    0    0 -0.11507602935E+02 -0.25962749209E+02 -0.34966040788E+02  0.46142320072E+02  0.10000021071E+02 0.  0.
        -12    1    1    2    0    0  0.11507602935E+02  0.25962749209E+02  0.34966040788E+02  0.45045679928E+02  0.00000000000E+00 0.  1.
         11    1    3    3    0    0 -0.39450751171E+01 -0.11632289272E+02 -0.18939294113E+02  0.22573671238E+02  0.51100000000E-03 0. -1.
        -11    1    3    3    0    0 -0.45556791926E+01 -0.13295220771E+02 -0.12370016240E+02  0.18722564202E+02  0.51100000000E-03 0.  1.
        -12    1    3    3    0    0 -0.30068486252E+01 -0.10352391654E+01 -0.36567304357E+01  0.48460846324E+01  0.00000000000E+00 0.  1.
</event>
<event>
 7    1  0.1538805E-008  0.4614232E+02  0.7816164E-02  0.1320468E+00
        -11   -1    0    0    0    0  0.00000000000E+00  0.00000000000E+00  0.45593999997E+02  0.45594000000E+02  0.51100000000E-03 0. -1.
         11   -1    0    0    0    0 -0.00000000000E+00 -0.00000000000E+00 -0.45593999997E+02  0.45594000000E+02  0.51100000000E-03 0.  1.
    9900012    2    1    2    0    0  0.41903902837E+02 -0.15811585433E+02  0.48135560738E+01  0.46142316201E+02  0.99999857705E+01 0.  0.
        -12    1    1    2    0    0 -0.41903902837E+02  0.15811585433E+02 -0.48135560738E+01  0.45045683799E+02  0.00000000000E+00 0.  1.
         11    1    3    3    0    0  0.28553361975E+02 -0.12357063865E+02  0.37510929884E+01  0.31337871758E+02  0.51100000000E-03 0. -1.
        -11    1    3    3    0    0  0.21026001977E+01 -0.24856679539E+01 -0.82396937126E+00  0.33583327045E+01  0.51100000000E-03 0.  1.
         12    1    3    3    0    0  0.11247940664E+02 -0.96885361393E+00  0.18864324566E+01  0.11446111738E+02  0.00000000000E+00 0. -1.
</event>
<event>
 7    1  0.1538805E-008  0.4614232E+02  0.7816164E-02  0.1320468E+00
        -11   -1    0    0    0    0  0.00000000000E+00  0.00000000000E+00  0.45593999997E+02  0.45594000000E+02  0.51100000000E-03 0. -1.
         11   -1    0    0    0    0 -0.00000000000E+00 -0.00000000000E+00 -0.45593999997E+02  0.45594000000E+02  0.51100000000E-03 0.  1.
    9900012    2    1    2    0    0 -0.44168435654E+02  0.29084595066E+01  0.83548589320E+01  0.46142317492E+02  0.99999975465E+01 0.  0.
        -12    1    1    2    0    0  0.44168435654E+02 -0.29084595066E+01 -0.83548589320E+01  0.45045682508E+02  0.00000000000E+00 0.  1.
         11    1    3    3    0    0 -0.18273725572E+02 -0.10406919029E+01  0.94201668922E+00  0.18327560711E+02  0.51100000000E-03 0. -1.
        -11    1    3    3    0    0 -0.25904464681E+02  0.32826249998E+01  0.70112724940E+01  0.27036546739E+02  0.51100000000E-03 0.  1.
        -12    1    3    3    0    0  0.97545987738E-02  0.66652640972E+00  0.40156974878E+00  0.77821004246E+00  0.00000000000E+00 0.  1.
</event>
<event>
 7    1  0.1538805E-008  0.4614232E+02  0.7816164E-02  0.1320468E+00
        -11   -1    0    0    0    0  0.00000000000E+00  0.00000000000E+00  0.45593999997E+02  0.45594000000E+02  0.51100000000E-03 0. -1.
         11   -1    0    0    0    0 -0.00000000000E+00 -0.00000000000E+00 -0.45593999997E+02  0.45594000000E+02  0.51100000000E-03 0.  1.
    9900012    2    1    2    0    0  0.20795643192E+02 -0.26863675488E+02  0.29580359285E+02  0.46142317721E+02  0.99999996365E+01 0.  0.
        -12    1    1    2    0    0 -0.20795643192E+02  0.26863675488E+02 -0.29580359285E+02  0.45045682279E+02  0.00000000000E+00 0.  1.
         11    1    3    3    0    0  0.12593351553E+02 -0.14656417324E+02  0.16050625212E+02  0.25120223767E+02  0.51100000000E-03 0. -1.
        -11    1    3    3    0    0 -0.41916943662E-01 -0.50340642369E+01  0.30784479692E+01  0.59008814538E+01  0.51100000000E-03 0.  1.
        -12    1    3    3    0    0  0.82442085825E+01 -0.71731939273E+01  0.10451286104E+02  0.15121212501E+02  0.00000000000E+00 0.  1.
</event>
<event>
 7    1  0.1538805E-008  0.4614232E+02  0.7816164E-02  0.1320468E+00
        -11   -1    0    0    0    0  0.00000000000E+00  0.00000000000E+00  0.45593999997E+02  0.45594000000E+02  0.51100000000E-03 0.  1.
         11   -1    0    0    0    0 -0.00000000000E+00 -0.00000000000E+00 -0.45593999997E+02  0.45594000000E+02  0.51100000000E-03 0. -1.
    9900012    2    1    2    0    0  0.11740528724E+02  0.43370574231E+02  0.32041705091E+01  0.46142318382E+02  0.10000005659E+02 0.  0.
        -12    1    1    2    0    0 -0.11740528724E+02 -0.43370574231E+02 -0.32041705091E+01  0.45045681618E+02  0.00000000000E+00 0.  1.
         11    1    3    3    0    0  0.52799998328E+01  0.25298768877E+02  0.36551424147E+01  0.26101076056E+02  0.51100000000E-03 0. -1.
        -11    1    3    3    0    0 -0.13903777416E+00  0.56562123933E+01 -0.17457548429E+01  0.59211257691E+01  0.51100000000E-03 0.  1.
        -12    1    3    3    0    0  0.65995666656E+01  0.12415592960E+02  0.12947829373E+01  0.14120116557E+02  0.00000000000E+00 0.  1.
</event>
<event>
 7    1  0.1538805E-008  0.4614232E+02  0.7816164E-02  0.1320468E+00
        -11   -1    0    0    0    0  0.00000000000E+00  0.00000000000E+00  0.45593999997E+02  0.45594000000E+02  0.51100000000E-03 0.  1.
         11   -1    0    0    0    0 -0.00000000000E+00 -0.00000000000E+00 -0.45593999997E+02  0.45594000000E+02  0.51100000000E-03 0. -1.
    9900012    2    1    2    0    0  0.16557724501E+02  0.35179674761E+02  0.22745235086E+02  0.46142317898E+02  0.10000001246E+02 0.  0.
        -12    1    1    2    0    0 -0.16557724501E+02 -0.35179674761E+02 -0.22745235086E+02  0.45045682102E+02  0.00000000000E+00 0.  1.
         11    1    3    3    0    0  0.33310037853E+01  0.71646611386E+01  0.64817941992E+00  0.79276788703E+01  0.51100000000E-03 0. -1.
        -11    1    3    3    0    0  0.10365890812E+02  0.18112154198E+02  0.14977717135E+02  0.25687230930E+02  0.51100000000E-03 0.  1.
         12    1    3    3    0    0  0.28608299037E+01  0.99028594245E+01  0.71193385311E+01  0.12527408097E+02  0.00000000000E+00 0. -1.
</event>
<event>
 7    1  0.1538805E-008  0.4614232E+02  0.7816164E-02  0.1320468E+00
        -11   -1    0    0    0    0  0.00000000000E+00  0.00000000000E+00  0.45593999997E+02  0.45594000000E+02  0.51100000000E-03 0.  1.
         11   -1    0    0    0    0 -0.00000000000E+00 -0.00000000000E+00 -0.45593999997E+02  0.45594000000E+02  0.51100000000E-03 0. -1.
    9900012    2    1    2    0    0  0.29968488137E+02 -0.25383311595E+02  0.22061067746E+02  0.46142317645E+02  0.99999989390E+01 0.  0.
        -12    1    1    2    0    0 -0.29968488137E+02  0.25383311595E+02 -0.22061067746E+02  0.45045682355E+02  0.00000000000E+00 0.  1.
         11    1    3    3    0    0  0.18196294701E+02 -0.13199789349E+02  0.81728393772E+01  0.23919341200E+02  0.51100000000E-03 0. -1.
        -11    1    3    3    0    0  0.90518396367E+01 -0.74671163815E+01  0.10881937845E+02  0.16003443361E+02  0.51100000000E-03 0.  1.
        -12    1    3    3    0    0  0.27203537998E+01 -0.47164058645E+01  0.30062905232E+01  0.62195330842E+01  0.00000000000E+00 0.  1.
</event>
<event>
 7    1  0.1538805E-008  0.4614232E+02  0.7816164E-02  0.1320468E+00
        -11   -1    0    0    0    0  0.00000000000E+00  0.00000000000E+00  0.45593999997E+02  0.45594000000E+02  0.51100000000E-03 0.  1.
         11   -1    0    0    0    0 -0.00000000000E+00 -0.00000000000E+00 -0.45593999997E+02  0.45594000000E+02  0.51100000000E-03 0. -1.
    9900012    2    1    2    0    0  0.23769047717E+02 -0.38130021269E+02 -0.32011484838E+01  0.46142317599E+02  0.99999985215E+01 0.  0.
        -12    1    1    2    0    0 -0.23769047717E+02  0.38130021269E+02  0.32011484838E+01  0.45045682401E+02  0.00000000000E+00 0.  1.
         11    1    3    3    0    0  0.60994342106E+01 -0.16110923886E+02 -0.41941245877E+01  0.17730077481E+02  0.51100000000E-03 0. -1.
        -11    1    3    3    0    0  0.48643576189E+01 -0.41861073184E+01 -0.25365555464E+00  0.64226015700E+01  0.51100000000E-03 0.  1.
         12    1    3    3    0    0  0.12805255887E+02 -0.17832990065E+02  0.12466316586E+01  0.21989638548E+02  0.00000000000E+00 0. -1.
</event>
<event>
 7    1  0.1538805E-008  0.4614232E+02  0.7816164E-02  0.1320468E+00
        -11   -1    0    0    0    0  0.00000000000E+00  0.00000000000E+00  0.45593999997E+02  0.45594000000E+02  0.51100000000E-03 0.  1.
         11   -1    0    0    0    0 -0.00000000000E+00 -0.00000000000E+00 -0.45593999997E+02  0.45594000000E+02  0.51100000000E-03 0. -1.
    9900012    2    1    2    0    0  0.13102839931E+02 -0.27042385351E+02 -0.33557987818E+02  0.46142316898E+02  0.99999921305E+01 0.  0.
        -12    1    1    2    0    0 -0.13102839931E+02  0.27042385351E+02  0.33557987818E+02  0.45045683102E+02  0.00000000000E+00 0.  1.
         11    1    3    3    0    0  0.80106075869E+01 -0.10381165565E+02 -0.11911079810E+02  0.17714746820E+02  0.51100000000E-03 0. -1.
        -11    1    3    3    0    0  0.51893704841E+01 -0.82639267173E+01 -0.91907237727E+01  0.13404904123E+02  0.51100000000E-03 0.  1.
        -12    1    3    3    0    0 -0.97138140226E-01 -0.83972930683E+01 -0.12456184236E+02  0.15022665955E+02  0.00000000000E+00 0.  1.
</event>
<event>
 7    1  0.1538805E-008  0.4614232E+02  0.7816164E-02  0.1320468E+00
        -11   -1    0    0    0    0  0.00000000000E+00  0.00000000000E+00  0.45593999997E+02  0.45594000000E+02  0.51100000000E-03 0.  1.
         11   -1    0    0    0    0 -0.00000000000E+00 -0.00000000000E+00 -0.45593999997E+02  0.45594000000E+02  0.51100000000E-03 0. -1.
    9900012    2    1    2    0    0  0.36294343130E+02  0.22616481302E+02  0.14153759159E+02  0.46142317987E+02  0.10000002056E+02 0.  0.
        -12    1    1    2    0    0 -0.36294343130E+02 -0.22616481302E+02 -0.14153759159E+02  0.45045682013E+02  0.00000000000E+00 0.  1.
         11    1    3    3    0    0  0.13070233752E+02  0.43107636618E+01  0.66756941937E+01  0.15296358616E+02  0.51100000000E-03 0. -1.
        -11    1    3    3    0    0  0.17194859346E+01  0.57158227592E-01  0.35939885776E+00  0.17575741072E+01  0.51100000000E-03 0.  1.
         12    1    3    3    0    0  0.21504623443E+02  0.18248559412E+02  0.71186661076E+01  0.29088385263E+02  0.00000000000E+00 0. -1.
</event>
<event>
 7    1  0.1538805E-008  0.4614232E+02  0.7816164E-02  0.1320468E+00
        -11   -1    0    0    0    0  0.00000000000E+00  0.00000000000E+00  0.45593999997E+02  0.45594000000E+02  0.51100000000E-03 0.  1.
         11   -1    0    0    0    0 -0.00000000000E+00 -0.00000000000E+00 -0.45593999997E+02  0.45594000000E+02  0.51100000000E-03 0. -1.
    9900012    2    1    2    0    0 -0.19628742809E+02 -0.19109641953E+01 -0.40499063958E+02  0.46142317523E+02  0.99999978247E+01 0.  0.
        -12    1    1    2    0    0  0.19628742809E+02  0.19109641953E+01  0.40499063958E+02  0.45045682477E+02  0.00000000000E+00 0.  1.
         11    1    3    3    0    0 -0.11499487091E+02 -0.28967757188E+01 -0.25726327075E+02  0.28327961768E+02  0.51100000000E-03 0. -1.
        -11    1    3    3    0    0  0.28692328412E+00 -0.11801990574E+01 -0.24614635248E+01  0.27448128772E+01  0.51100000000E-03 0.  1.
         12    1    3    3    0    0 -0.84161790015E+01  0.21660105809E+01 -0.12311273358E+02  0.15069542877E+02  0.00000000000E+00 0. -1.
</event>
<event>
 7    1  0.1538805E-008  0.4614232E+02  0.7816164E-02  0.1320468E+00
        -11   -1    0    0    0    0  0.00000000000E+00  0.00000000000E+00  0.45593999997E+02  0.45594000000E+02  0.51100000000E-03 0.  1.
         11   -1    0    0    0    0 -0.00000000000E+00 -0.00000000000E+00 -0.45593999997E+02  0.45594000000E+02  0.51100000000E-03 0. -1.
    9900012    2    1    2    0    0 -0.31082981909E+01 -0.44754668639E+02 -0.40585340506E+01  0.46142316729E+02  0.99999905922E+01 0.  0.
        -12    1    1    2    0    0  0.31082981909E+01  0.44754668639E+02  0.40585340506E+01  0.45045683271E+02  0.00000000000E+00 0.  1.
         11    1    3    3    0    0  0.25392792870E+00 -0.16211063356E+02  0.28630558146E+01  0.16463904257E+02  0.51100000000E-03 0. -1.
        -11    1    3    3    0    0 -0.15554541959E+01 -0.21936054228E+02 -0.57305728947E+01  0.22725522630E+02  0.51100000000E-03 0.  1.
         12    1    3    3    0    0 -0.18067719237E+01 -0.66075510557E+01 -0.11910169705E+01  0.69528898425E+01  0.00000000000E+00 0. -1.
</event>
<event>
 7    1  0.1538805E-008  0.4614232E+02  0.7816164E-02  0.1320468E+00
        -11   -1    0    0    0    0  0.00000000000E+00  0.00000000000E+00  0.45593999997E+02  0.45594000000E+02  0.51100000000E-03 0. -1.
         11   -1    0    0    0    0 -0.00000000000E+00 -0.00000000000E+00 -0.45593999997E+02  0.45594000000E+02  0.51100000000E-03 0.  1.
    9900012    2    1    2    0    0  0.62027474295E+00 -0.14935499099E+02  0.42493055756E+02  0.46142315839E+02  0.99999824708E+01 0.  0.
        -12    1    1    2    0    0 -0.62027474295E+00  0.14935499099E+02 -0.42493055756E+02  0.45045684161E+02  0.00000000000E+00 0.  1.
         11    1    3    3    0    0  0.16532211118E+01 -0.85596576747E+01  0.31562133315E+02  0.32743993941E+02  0.51100000000E-03 0. -1.
        -11    1    3    3    0    0 -0.12685415603E+01  0.51046899682E-01  0.23967349447E+01  0.27122208856E+01  0.51100000000E-03 0.  1.
         12    1    3    3    0    0  0.23559519143E+00 -0.64268883245E+01  0.85341874960E+01  0.10686101012E+02  0.00000000000E+00 0. -1.
</event>
<event>
 7    1  0.1538805E-008  0.4614232E+02  0.7816164E-02  0.1320468E+00
        -11   -1    0    0    0    0  0.00000000000E+00  0.00000000000E+00  0.45593999997E+02  0.45594000000E+02  0.51100000000E-03 0.  1.
         11   -1    0    0    0    0 -0.00000000000E+00 -0.00000000000E+00 -0.45593999997E+02  0.45594000000E+02  0.51100000000E-03 0. -1.
    9900012    2    1    2    0    0 -0.79041480571E+01 -0.41754746749E+02  0.14939182996E+02  0.46142316287E+02  0.99999865604E+01 0.  0.
        -12    1    1    2    0    0  0.79041480571E+01  0.41754746749E+02 -0.14939182996E+02  0.45045683713E+02  0.00000000000E+00 0.  1.
         11    1    3    3    0    0  0.13309187750E+01 -0.14783401888E+01  0.58551858814E+00  0.20735637867E+01  0.51100000000E-03 0.  1.
        -11    1    3    3    0    0 -0.97629107992E+01 -0.35262957546E+02  0.12016472007E+02  0.38512156547E+02  0.51100000000E-03 0. -1.
         12    1    3    3    0    0  0.52784396711E+00 -0.50134490140E+01  0.23371924015E+01  0.55565959535E+01  0.00000000000E+00 0. -1.
</event>
<event>
 7    1  0.1538805E-008  0.4614232E+02  0.7816164E-02  0.1320468E+00
        -11   -1    0    0    0    0  0.00000000000E+00  0.00000000000E+00  0.45593999997E+02  0.45594000000E+02  0.51100000000E-03 0.  1.
         11   -1    0    0    0    0 -0.00000000000E+00 -0.00000000000E+00 -0.45593999997E+02  0.45594000000E+02  0.51100000000E-03 0. -1.
    9900012    2    1    2    0    0  0.24947676139E+01  0.37773393703E+02 -0.24414347511E+02  0.46142317613E+02  0.99999986512E+01 0.  0.
        -12    1    1    2    0    0 -0.24947676139E+01 -0.37773393703E+02  0.24414347511E+02  0.45045682387E+02  0.00000000000E+00 0.  1.
         11    1    3    3    0    0  0.54974938182E+01  0.15019842762E+02 -0.11137047446E+02  0.19489790685E+02  0.51100000000E-03 0.  1.
        -11    1    3    3    0    0 -0.32893608875E+01  0.21383507500E+02 -0.12951563986E+02  0.25215417863E+02  0.51100000000E-03 0. -1.
         12    1    3    3    0    0  0.28663468323E+00  0.13700434406E+01 -0.32573607898E+00  0.14371090647E+01  0.00000000000E+00 0. -1.
</event>
<event>
 7    1  0.1538805E-008  0.4614232E+02  0.7816164E-02  0.1320468E+00
        -11   -1    0    0    0    0  0.00000000000E+00  0.00000000000E+00  0.45593999997E+02  0.45594000000E+02  0.51100000000E-03 0.  1.
         11   -1    0    0    0    0 -0.00000000000E+00 -0.00000000000E+00 -0.45593999997E+02  0.45594000000E+02  0.51100000000E-03 0. -1.
    9900012    2    1    2    0    0 -0.41066617141E+02 -0.15616324425E+02 -0.99386560144E+01  0.46142317461E+02  0.99999972671E+01 0.  0.
        -12    1    1    2    0    0  0.41066617141E+02  0.15616324425E+02  0.99386560144E+01  0.45045682539E+02  0.00000000000E+00 0.  1.
         11    1    3    3    0    0 -0.25559133241E+02 -0.63227854899E+01 -0.92723545742E+01  0.27914574473E+02  0.51100000000E-03 0. -1.
        -11    1    3    3    0    0 -0.79154061630E+01 -0.41367188913E+01  0.65556988786E+00  0.89552146848E+01  0.51100000000E-03 0.  1.
         12    1    3    3    0    0 -0.75920777370E+01 -0.51568200442E+01 -0.13218713281E+01  0.92725283036E+01  0.00000000000E+00 0. -1.
</event>
<event>
 7    1  0.1538805E-008  0.4614232E+02  0.7816164E-02  0.1320468E+00
        -11   -1    0    0    0    0  0.00000000000E+00  0.00000000000E+00  0.45593999997E+02  0.45594000000E+02  0.51100000000E-03 0.  1.
         11   -1    0    0    0    0 -0.00000000000E+00 -0.00000000000E+00 -0.45593999997E+02  0.45594000000E+02  0.51100000000E-03 0. -1.
    9900012    2    1    2    0    0  0.21026107314E+02 -0.69670709147E+01 -0.39223413866E+02  0.46142318062E+02  0.10000002746E+02 0.  0.
        -12    1    1    2    0    0 -0.21026107314E+02  0.69670709147E+01  0.39223413866E+02  0.45045681938E+02  0.00000000000E+00 0.  1.
         11    1    3    3    0    0  0.57086575739E+01 -0.14058524994E+01 -0.47206343087E+01  0.75398661184E+01  0.51100000000E-03 0. -1.
        -11    1    3    3    0    0  0.59431159551E+01  0.62733456300E+00 -0.14048390565E+02  0.15266677885E+02  0.51100000000E-03 0.  1.
         12    1    3    3    0    0  0.93743337853E+01 -0.61885529782E+01 -0.20454388992E+02  0.23335774059E+02  0.00000000000E+00 0. -1.
</event>
<event>
 7    1  0.1538805E-008  0.4614232E+02  0.7816164E-02  0.1320468E+00
        -11   -1    0    0    0    0  0.00000000000E+00  0.00000000000E+00  0.45593999997E+02  0.45594000000E+02  0.51100000000E-03 0.  1.
         11   -1    0    0    0    0 -0.00000000000E+00 -0.00000000000E+00 -0.45593999997E+02  0.45594000000E+02  0.51100000000E-03 0. -1.
    9900012    2    1    2    0    0 -0.29988344204E+02 -0.31855688150E+02 -0.10725108391E+02  0.46142316460E+02  0.99999881332E+01 0.  0.
        -12    1    1    2    0    0  0.29988344204E+02  0.31855688150E+02  0.10725108391E+02  0.45045683540E+02  0.00000000000E+00 0.  1.
         11    1    3    3    0    0 -0.95181938792E+00  0.15891596258E+00 -0.89015699043E+00  0.13128572501E+01  0.51100000000E-03 0. -1.
        -11    1    3    3    0    0 -0.14635440146E+02 -0.11256216730E+02 -0.46084897179E+01  0.19029889676E+02  0.51100000000E-03 0.  1.
         12    1    3    3    0    0 -0.14401084670E+02 -0.20758387383E+02 -0.52264616827E+01  0.25799569534E+02  0.00000000000E+00 0. -1.
</event>
<event>
 7    1  0.1538805E-008  0.4614231E+02  0.7816164E-02  0.1320468E+00
        -11   -1    0    0    0    0  0.00000000000E+00  0.00000000000E+00  0.45593999997E+02  0.45594000000E+02  0.51100000000E-03 0.  1.
         11   -1    0    0    0    0 -0.00000000000E+00 -0.00000000000E+00 -0.45593999997E+02  0.45594000000E+02  0.51100000000E-03 0. -1.
    9900012    2    1    2    0    0 -0.12398660100E+02 -0.43254483611E+02 -0.21063418231E+01  0.46142314296E+02  0.99999683980E+01 0.  0.
        -12    1    1    2    0    0  0.12398660100E+02  0.43254483611E+02  0.21063418231E+01  0.45045685704E+02  0.00000000000E+00 0.  1.
         11    1    3    3    0    0 -0.78391552481E+00 -0.10189365322E+02 -0.10442743814E+01  0.10272691879E+02  0.51100000000E-03 0. -1.
        -11    1    3    3    0    0 -0.11246221925E+02 -0.21375975982E+02 -0.43282191143E+00  0.24157756350E+02  0.51100000000E-03 0.  1.
        -12    1    3    3    0    0 -0.36852264985E+00 -0.11689142307E+02 -0.62924553032E+00  0.11711866066E+02  0.00000000000E+00 0.  1.
</event>
<event>
 7    1  0.1538805E-008  0.4614232E+02  0.7816164E-02  0.1320468E+00
        -11   -1    0    0    0    0  0.00000000000E+00  0.00000000000E+00  0.45593999997E+02  0.45594000000E+02  0.51100000000E-03 0. -1.
         11   -1    0    0    0    0 -0.00000000000E+00 -0.00000000000E+00 -0.45593999997E+02  0.45594000000E+02  0.51100000000E-03 0.  1.
    9900012    2    1    2    0    0  0.16568113225E+02 -0.29499054537E+02  0.29739146767E+02  0.46142318244E+02  0.10000004407E+02 0.  0.
        -12    1    1    2    0    0 -0.16568113225E+02  0.29499054537E+02 -0.29739146767E+02  0.45045681756E+02  0.00000000000E+00 0.  1.
         11    1    3    3    0    0  0.12869735873E+02 -0.16848586337E+02  0.19973621869E+02  0.29128174227E+02  0.51100000000E-03 0. -1.
        -11    1    3    3    0    0  0.25036404139E+01 -0.52328194818E+01  0.18220003664E+01  0.60803207685E+01  0.51100000000E-03 0.  1.
        -12    1    3    3    0    0  0.11947369390E+01 -0.74176487181E+01  0.79435245312E+01  0.10933823249E+02  0.00000000000E+00 0.  1.
</event>
<event>
 7    1  0.1538805E-008  0.4614232E+02  0.7816164E-02  0.1320468E+00
        -11   -1    0    0    0    0  0.00000000000E+00  0.00000000000E+00  0.45593999997E+02  0.45594000000E+02  0.51100000000E-03 0. -1.
         11   -1    0    0    0    0 -0.00000000000E+00 -0.00000000000E+00 -0.45593999997E+02  0.45594000000E+02  0.51100000000E-03 0.  1.
    9900012    2    1    2    0    0 -0.29149814486E+02  0.92392320546E+01  0.33076251999E+02  0.46142317190E+02  0.99999947886E+01 0.  0.
        -12    1    1    2    0    0  0.29149814486E+02 -0.92392320546E+01 -0.33076251999E+02  0.45045682810E+02  0.00000000000E+00 0.  1.
         11    1    3    3    0    0 -0.16440111777E+02  0.38054462510E+01  0.13021803933E+02  0.21314926093E+02  0.51100000000E-03 0.  1.
        -11    1    3    3    0    0 -0.49000258153E+01  0.63291047800E+00  0.40721771284E+01  0.64026131767E+01  0.51100000000E-03 0. -1.
         12    1    3    3    0    0 -0.78096768941E+01  0.48008753257E+01  0.15982270938E+02  0.18424777920E+02  0.00000000000E+00 0. -1.
</event>
<event>
 7    1  0.1538805E-008  0.4614232E+02  0.7816164E-02  0.1320468E+00
        -11   -1    0    0    0    0  0.00000000000E+00  0.00000000000E+00  0.45593999997E+02  0.45594000000E+02  0.51100000000E-03 0. -1.
         11   -1    0    0    0    0 -0.00000000000E+00 -0.00000000000E+00 -0.45593999997E+02  0.45594000000E+02  0.51100000000E-03 0.  1.
    9900012    2    1    2    0    0 -0.20110101241E+02  0.39591283386E+02  0.75648959271E+01  0.46142317160E+02  0.99999945219E+01 0.  0.
        -12    1    1    2    0    0  0.20110101241E+02 -0.39591283386E+02 -0.75648959271E+01  0.45045682840E+02  0.00000000000E+00 0.  1.
         11    1    3    3    0    0 -0.43607654998E+01  0.82785862179E+01  0.30417716712E+01  0.98388841172E+01  0.51100000000E-03 0. -1.
        -11    1    3    3    0    0 -0.90820843407E+01  0.23054004244E+02  0.32400874595E-01  0.24778466816E+02  0.51100000000E-03 0.  1.
        -12    1    3    3    0    0 -0.66672514007E+01  0.82586929244E+01  0.44907233812E+01  0.11524966228E+02  0.00000000000E+00 0.  1.
</event>
<event>
 7    1  0.1538805E-008  0.4614232E+02  0.7816164E-02  0.1320468E+00
        -11   -1    0    0    0    0  0.00000000000E+00  0.00000000000E+00  0.45593999997E+02  0.45594000000E+02  0.51100000000E-03 0.  1.
         11   -1    0    0    0    0 -0.00000000000E+00 -0.00000000000E+00 -0.45593999997E+02  0.45594000000E+02  0.51100000000E-03 0. -1.
    9900012    2    1    2    0    0  0.56757348546E+00 -0.32671746608E+02 -0.31005617746E+02  0.46142317655E+02  0.99999990325E+01 0.  0.
        -12    1    1    2    0    0 -0.56757348546E+00  0.32671746608E+02  0.31005617746E+02  0.45045682345E+02  0.00000000000E+00 0.  1.
         11    1    3    3    0    0 -0.27014228784E+01 -0.92497171984E+01 -0.13029708359E+02  0.16205809267E+02  0.51100000000E-03 0. -1.
        -11    1    3    3    0    0  0.38155388484E+01 -0.14822026659E+02 -0.12024157098E+02  0.19463585620E+02  0.51100000000E-03 0.  1.
         12    1    3    3    0    0 -0.54654248452E+00 -0.86000027505E+01 -0.59517522891E+01  0.10472922768E+02  0.00000000000E+00 0. -1.
</event>
<event>
 7    1  0.1538805E-008  0.4614232E+02  0.7816164E-02  0.1320468E+00
        -11   -1    0    0    0    0  0.00000000000E+00  0.00000000000E+00  0.45593999997E+02  0.45594000000E+02  0.51100000000E-03 0. -1.
         11   -1    0    0    0    0 -0.00000000000E+00 -0.00000000000E+00 -0.45593999997E+02  0.45594000000E+02  0.51100000000E-03 0.  1.
    9900012    2    1    2    0    0  0.24761998761E+02  0.23302530503E+02  0.29545712282E+02  0.46142316248E+02  0.99999861988E+01 0.  0.
        -12    1    1    2    0    0 -0.24761998761E+02 -0.23302530503E+02 -0.29545712282E+02  0.45045683752E+02  0.00000000000E+00 0.  1.
         11    1    3    3    0    0  0.16673595480E+02  0.20305527856E+02  0.23504672167E+02  0.35253267390E+02  0.51100000000E-03 0. -1.
        -11    1    3    3    0    0  0.39810049661E+01  0.13152991256E-01  0.25474251007E+01  0.47263038885E+01  0.51100000000E-03 0.  1.
        -12    1    3    3    0    0  0.41073983153E+01  0.29838496562E+01  0.34936150133E+01  0.61627449690E+01  0.00000000000E+00 0.  1.
</event>
<event>
 7    1  0.1538805E-008  0.4614232E+02  0.7816164E-02  0.1320468E+00
        -11   -1    0    0    0    0  0.00000000000E+00  0.00000000000E+00  0.45593999997E+02  0.45594000000E+02  0.51100000000E-03 0.  1.
         11   -1    0    0    0    0 -0.00000000000E+00 -0.00000000000E+00 -0.45593999997E+02  0.45594000000E+02  0.51100000000E-03 0. -1.
    9900012    2    1    2    0    0 -0.83653435950E+01  0.40967252091E+02 -0.16757649292E+02  0.46142317330E+02  0.99999960699E+01 0.  0.
        -12    1    1    2    0    0  0.83653435950E+01 -0.40967252091E+02  0.16757649292E+02  0.45045682670E+02  0.00000000000E+00 0.  1.
         11    1    3    3    0    0 -0.27004399563E+01  0.14206088420E+02 -0.44026266331E+01  0.15115834270E+02  0.51100000000E-03 0. -1.
        -11    1    3    3    0    0 -0.22794645084E+01  0.37046993760E+01 -0.49162701690E+01  0.65643330619E+01  0.51100000000E-03 0.  1.
        -12    1    3    3    0    0 -0.33854391303E+01  0.23056464296E+02 -0.74387524904E+01  0.24462149998E+02  0.00000000000E+00 0.  1.
</event>
<event>
 7    1  0.1538805E-008  0.4614232E+02  0.7816164E-02  0.1320468E+00
        -11   -1    0    0    0    0  0.00000000000E+00  0.00000000000E+00  0.45593999997E+02  0.45594000000E+02  0.51100000000E-03 0. -1.
         11   -1    0    0    0    0 -0.00000000000E+00 -0.00000000000E+00 -0.45593999997E+02  0.45594000000E+02  0.51100000000E-03 0.  1.
    9900012    2    1    2    0    0 -0.30273179057E+02 -0.94369298005E+01  0.31993631791E+02  0.46142317749E+02  0.99999998909E+01 0.  0.
        -12    1    1    2    0    0  0.30273179057E+02  0.94369298005E+01 -0.31993631791E+02  0.45045682251E+02  0.00000000000E+00 0.  1.
         11    1    3    3    0    0 -0.14401826163E+02 -0.79212746835E+01  0.19360192785E+02  0.25396382702E+02  0.51100000000E-03 0. -1.
        -11    1    3    3    0    0 -0.93298126865E+01  0.11188539081E+01  0.75140241632E+01  0.12031533494E+02  0.51100000000E-03 0.  1.
        -12    1    3    3    0    0 -0.65415402071E+01 -0.26345090251E+01  0.51194148433E+01  0.87144015527E+01  0.00000000000E+00 0.  1.
</event>
<event>
 7    1  0.1538805E-008  0.4614232E+02  0.7816164E-02  0.1320468E+00
        -11   -1    0    0    0    0  0.00000000000E+00  0.00000000000E+00  0.45593999997E+02  0.45594000000E+02  0.51100000000E-03 0.  1.
         11   -1    0    0    0    0 -0.00000000000E+00 -0.00000000000E+00 -0.45593999997E+02  0.45594000000E+02  0.51100000000E-03 0. -1.
    9900012    2    1    2    0    0  0.61377951280E+01 -0.33691825047E+02 -0.29262628044E+02  0.46142323137E+02  0.10000049021E+02 0.  0.
        -12    1    1    2    0    0 -0.61377951280E+01  0.33691825047E+02  0.29262628044E+02  0.45045676863E+02  0.00000000000E+00 0.  1.
         11    1    3    3    0    0  0.16839178431E+01 -0.62710314793E+01 -0.87569581217E+01  0.10901638910E+02  0.51100000000E-03 0. -1.
        -11    1    3    3    0    0  0.57183163482E+01 -0.13657976107E+02 -0.97607421421E+01  0.17734473227E+02  0.51100000000E-03 0.  1.
        -12    1    3    3    0    0 -0.12644390634E+01 -0.13762817460E+02 -0.10744927780E+02  0.17506211000E+02  0.00000000000E+00 0.  1.
</event>
<event>
 7    1  0.1538805E-008  0.4614231E+02  0.7816164E-02  0.1320468E+00
        -11   -1    0    0    0    0  0.00000000000E+00  0.00000000000E+00  0.45593999997E+02  0.45594000000E+02  0.51100000000E-03 0.  1.
         11   -1    0    0    0    0 -0.00000000000E+00 -0.00000000000E+00 -0.45593999997E+02  0.45594000000E+02  0.51100000000E-03 0. -1.
    9900012    2    1    2    0    0  0.28977034176E+02 -0.19078328348E+01 -0.34435526926E+02  0.46142313742E+02  0.99999633546E+01 0.  0.
        -12    1    1    2    0    0 -0.28977034176E+02  0.19078328348E+01  0.34435526926E+02  0.45045686258E+02  0.00000000000E+00 0.  1.
         11    1    3    3    0    0  0.80060044526E+01 -0.25905162844E+01 -0.13619757187E+02  0.16009518044E+02  0.51100000000E-03 0. -1.
        -11    1    3    3    0    0  0.46255842391E+01 -0.64208532756E+00 -0.17560793821E+01  0.49892001541E+01  0.51100000000E-03 0.  1.
         12    1    3    3    0    0  0.16345445484E+02  0.13247687772E+01 -0.19059690357E+02  0.25143595544E+02  0.00000000000E+00 0. -1.
</event>
<event>
 7    1  0.1538805E-008  0.4614232E+02  0.7816164E-02  0.1320468E+00
        -11   -1    0    0    0    0  0.00000000000E+00  0.00000000000E+00  0.45593999997E+02  0.45594000000E+02  0.51100000000E-03 0.  1.
         11   -1    0    0    0    0 -0.00000000000E+00 -0.00000000000E+00 -0.45593999997E+02  0.45594000000E+02  0.51100000000E-03 0. -1.
    9900012    2    1    2    0    0 -0.16547151377E+02  0.22692998775E+02 -0.35218362402E+02  0.46142318050E+02  0.10000002631E+02 0.  0.
        -12    1    1    2    0    0  0.16547151377E+02 -0.22692998775E+02  0.35218362402E+02  0.45045681950E+02  0.00000000000E+00 0.  1.
         11    1    3    3    0    0 -0.91146972468E+01  0.16144042599E+02 -0.24133244151E+02  0.30432240976E+02  0.51100000000E-03 0. -1.
        -11    1    3    3    0    0 -0.75656881135E-01  0.63663352855E+00  0.46662413251E+00  0.79294675452E+00  0.51100000000E-03 0.  1.
         12    1    3    3    0    0 -0.73567972489E+01  0.59123226477E+01 -0.11551742383E+02  0.14917130319E+02  0.00000000000E+00 0. -1.
</event>
<event>
 7    1  0.1538805E-008  0.4614232E+02  0.7816164E-02  0.1320468E+00
        -11   -1    0    0    0    0  0.00000000000E+00  0.00000000000E+00  0.45593999997E+02  0.45594000000E+02  0.51100000000E-03 0. -1.
         11   -1    0    0    0    0 -0.00000000000E+00 -0.00000000000E+00 -0.45593999997E+02  0.45594000000E+02  0.51100000000E-03 0.  1.
    9900012    2    1    2    0    0  0.21367490789E+02 -0.39547409429E+02 -0.29233905513E+01  0.46142317993E+02  0.10000002115E+02 0.  0.
        -12    1    1    2    0    0 -0.21367490789E+02  0.39547409429E+02  0.29233905513E+01  0.45045682007E+02  0.00000000000E+00 0.  1.
         11    1    3    3    0    0  0.15408423243E+02 -0.23039758872E+02 -0.49140161392E+01  0.28149556845E+02  0.51100000000E-03 0. -1.
        -11    1    3    3    0    0  0.58412877099E+01 -0.12437737148E+02  0.86445105137E+00  0.13768268713E+02  0.51100000000E-03 0.  1.
         12    1    3    3    0    0  0.11777983668E+00 -0.40699134091E+01  0.11261745365E+01  0.42244924351E+01  0.00000000000E+00 0. -1.
</event>
<event>
 7    1  0.1538805E-008  0.4614232E+02  0.7816164E-02  0.1320468E+00
        -11   -1    0    0    0    0  0.00000000000E+00  0.00000000000E+00  0.45593999997E+02  0.45594000000E+02  0.51100000000E-03 0. -1.
         11   -1    0    0    0    0 -0.00000000000E+00 -0.00000000000E+00 -0.45593999997E+02  0.45594000000E+02  0.51100000000E-03 0.  1.
    9900012    2    1    2    0    0  0.25679302530E+02 -0.36816837511E+02 -0.37692787383E+01  0.46142316911E+02  0.99999922497E+01 0.  0.
        -12    1    1    2    0    0 -0.25679302530E+02  0.36816837511E+02  0.37692787383E+01  0.45045683089E+02  0.00000000000E+00 0.  1.
         11    1    3    3    0    0  0.86638047142E+01 -0.19976377276E+02 -0.19510645243E+01  0.21861468712E+02  0.51100000000E-03 0. -1.
        -11    1    3    3    0    0  0.30502212993E+01 -0.13028314277E+01 -0.41137682547E+00  0.33422224428E+01  0.51100000000E-03 0.  1.
         12    1    3    3    0    0  0.13965276517E+02 -0.15537628807E+02 -0.14068373886E+01  0.20938625756E+02  0.00000000000E+00 0. -1.
</event>
<event>
 7    1  0.1538805E-008  0.4614232E+02  0.7816164E-02  0.1320468E+00
        -11   -1    0    0    0    0  0.00000000000E+00  0.00000000000E+00  0.45593999997E+02  0.45594000000E+02  0.51100000000E-03 0.  1.
         11   -1    0    0    0    0 -0.00000000000E+00 -0.00000000000E+00 -0.45593999997E+02  0.45594000000E+02  0.51100000000E-03 0. -1.
    9900012    2    1    2    0    0  0.21635349539E+02 -0.20964433742E+02 -0.33489068696E+02  0.46142317033E+02  0.99999933614E+01 0.  0.
        -12    1    1    2    0    0 -0.21635349539E+02  0.20964433742E+02  0.33489068696E+02  0.45045682967E+02  0.00000000000E+00 0.  1.
         11    1    3    3    0    0  0.17732045722E+02 -0.18712606455E+02 -0.27937595292E+02  0.38014422484E+02  0.51100000000E-03 0. -1.
        -11    1    3    3    0    0  0.43292712368E+01 -0.21486044703E+01 -0.33436741100E+01  0.58770100754E+01  0.51100000000E-03 0.  1.
         12    1    3    3    0    0 -0.42596741903E+00 -0.10322281702E+00 -0.22077992942E+01  0.22508844740E+01  0.00000000000E+00 0. -1.
</event>
<event>
 7    1  0.1538805E-008  0.4614232E+02  0.7816164E-02  0.1320468E+00
        -11   -1    0    0    0    0  0.00000000000E+00  0.00000000000E+00  0.45593999997E+02  0.45594000000E+02  0.51100000000E-03 0.  1.
         11   -1    0    0    0    0 -0.00000000000E+00 -0.00000000000E+00 -0.45593999997E+02  0.45594000000E+02  0.51100000000E-03 0. -1.
    9900012    2    1    2    0    0 -0.17607918302E+02 -0.40668288055E+01 -0.41261794193E+02  0.46142317149E+02  0.99999944193E+01 0.  0.
        -12    1    1    2    0    0  0.17607918302E+02  0.40668288055E+01  0.41261794193E+02  0.45045682851E+02  0.00000000000E+00 0.  1.
         11    1    3    3    0    0 -0.33379636912E+01 -0.79809354754E+00 -0.13342516220E+02  0.13776853569E+02  0.51100000000E-03 0. -1.
        -11    1    3    3    0    0 -0.16280197863E+01 -0.26602887194E+01 -0.26057836342E+01  0.40641964895E+01  0.51100000000E-03 0.  1.
        -12    1    3    3    0    0 -0.12641934825E+02 -0.60844653850E+00 -0.25313494339E+02  0.28301267091E+02  0.00000000000E+00 0.  1.
</event>
<event>
 7    1  0.1538805E-008  0.4614232E+02  0.7816164E-02  0.1320468E+00
        -11   -1    0    0    0    0  0.00000000000E+00  0.00000000000E+00  0.45593999997E+02  0.45594000000E+02  0.51100000000E-03 0. -1.
         11   -1    0    0    0    0 -0.00000000000E+00 -0.00000000000E+00 -0.45593999997E+02  0.45594000000E+02  0.51100000000E-03 0.  1.
    9900012    2    1    2    0    0  0.47093176682E+01 -0.43828153346E+02  0.92751699074E+01  0.46142317905E+02  0.10000001314E+02 0.  0.
        -12    1    1    2    0    0 -0.47093176682E+01  0.43828153346E+02 -0.92751699074E+01  0.45045682095E+02  0.00000000000E+00 0.  1.
         11    1    3    3    0    0  0.12562213920E+01 -0.18865636912E+02  0.82509375054E+01  0.20629307266E+02  0.51100000000E-03 0. -1.
        -11    1    3    3    0    0 -0.42166510546E+00 -0.36748663403E+00 -0.17413933908E+00  0.58580940406E+00  0.51100000000E-03 0.  1.
         12    1    3    3    0    0  0.38747613816E+01 -0.24595029800E+02  0.11983717411E+01  0.24927201236E+02  0.00000000000E+00 0. -1.
</event>
<event>
 7    1  0.1538805E-008  0.4614232E+02  0.7816164E-02  0.1320468E+00
        -11   -1    0    0    0    0  0.00000000000E+00  0.00000000000E+00  0.45593999997E+02  0.45594000000E+02  0.51100000000E-03 0.  1.
         11   -1    0    0    0    0 -0.00000000000E+00 -0.00000000000E+00 -0.45593999997E+02  0.45594000000E+02  0.51100000000E-03 0. -1.
    9900012    2    1    2    0    0  0.40337321989E+01  0.32051452361E+02 -0.31393420656E+02  0.46142318138E+02  0.10000003435E+02 0.  0.
        -12    1    1    2    0    0 -0.40337321989E+01 -0.32051452361E+02  0.31393420656E+02  0.45045681862E+02  0.00000000000E+00 0.  1.
         11    1    3    3    0    0 -0.65144455701E+00  0.11221545137E+01 -0.18468493758E+01  0.22570918549E+01  0.51100000000E-03 0.  1.
        -11    1    3    3    0    0  0.20483811588E+01  0.10291692003E+02 -0.15733892034E+02  0.18912169322E+02  0.51100000000E-03 0. -1.
        -12    1    3    3    0    0  0.26367955972E+01  0.20637605844E+02 -0.13812679247E+02  0.24973056961E+02  0.00000000000E+00 0.  1.
</event>
<event>
 7    1  0.1538805E-008  0.4614232E+02  0.7816164E-02  0.1320468E+00
        -11   -1    0    0    0    0  0.00000000000E+00  0.00000000000E+00  0.45593999997E+02  0.45594000000E+02  0.51100000000E-03 0. -1.
         11   -1    0    0    0    0 -0.00000000000E+00 -0.00000000000E+00 -0.45593999997E+02  0.45594000000E+02  0.51100000000E-03 0.  1.
    9900012    2    1    2    0    0 -0.31962115881E+02 -0.26783539709E+02 -0.17034631696E+02  0.46142317321E+02  0.99999959882E+01 0.  0.
        -12    1    1    2    0    0  0.31962115881E+02  0.26783539709E+02  0.17034631696E+02  0.45045682679E+02  0.00000000000E+00 0.  1.
         11    1    3    3    0    0 -0.10864952637E+02 -0.14023343647E+02 -0.10315865289E+02  0.20521170526E+02  0.51100000000E-03 0. -1.
        -11    1    3    3    0    0 -0.13078634383E+02 -0.87118399347E+01 -0.36925999077E+01  0.16142556387E+02  0.51100000000E-03 0.  1.
         12    1    3    3    0    0 -0.80185288613E+01 -0.40483561279E+01 -0.30261664999E+01  0.94785904080E+01  0.00000000000E+00 0. -1.
</event>
<event>
 7    1  0.1538805E-008  0.4614232E+02  0.7816164E-02  0.1320468E+00
        -11   -1    0    0    0    0  0.00000000000E+00  0.00000000000E+00  0.45593999997E+02  0.45594000000E+02  0.51100000000E-03 0.  1.
         11   -1    0    0    0    0 -0.00000000000E+00 -0.00000000000E+00 -0.45593999997E+02  0.45594000000E+02  0.51100000000E-03 0. -1.
    9900012    2    1    2    0    0  0.42281234123E+02 -0.14253572255E+02 -0.61843699052E+01  0.46142317498E+02  0.99999975980E+01 0.  0.
        -12    1    1    2    0    0 -0.42281234123E+02  0.14253572255E+02  0.61843699052E+01  0.45045682502E+02  0.00000000000E+00 0.  1.
         11    1    3    3    0    0  0.82263357713E+01 -0.27517278646E+01  0.53231444641E+00  0.86906826771E+01  0.51100000000E-03 0. -1.
        -11    1    3    3    0    0  0.14117972964E+01 -0.10573105828E+01 -0.22946577587E+01  0.28942238623E+01  0.51100000000E-03 0.  1.
        -12    1    3    3    0    0  0.32643101055E+02 -0.10444533808E+02 -0.44220265929E+01  0.34557410958E+02  0.00000000000E+00 0.  1.
</event>
<event>
 7    1  0.1538805E-008  0.4614232E+02  0.7816164E-02  0.1320468E+00
        -11   -1    0    0    0    0  0.00000000000E+00  0.00000000000E+00  0.45593999997E+02  0.45594000000E+02  0.51100000000E-03 0.  1.
         11   -1    0    0    0    0 -0.00000000000E+00 -0.00000000000E+00 -0.45593999997E+02  0.45594000000E+02  0.51100000000E-03 0. -1.
    9900012    2    1    2    0    0  0.18752742040E+02  0.40395408152E+02  0.67571599189E+01  0.46142317144E+02  0.99999943728E+01 0.  0.
        -12    1    1    2    0    0 -0.18752742040E+02 -0.40395408152E+02 -0.67571599189E+01  0.45045682856E+02  0.00000000000E+00 0.  1.
         11    1    3    3    0    0  0.16034681759E+02  0.34022367673E+02  0.69149786603E+01  0.38241985452E+02  0.51100000000E-03 0. -1.
        -11    1    3    3    0    0  0.19605231294E+01  0.29142606032E+01 -0.18569170698E+01  0.39729972401E+01  0.51100000000E-03 0.  1.
        -12    1    3    3    0    0  0.75753715137E+00  0.34587798765E+01  0.16990983285E+01  0.39273344522E+01  0.00000000000E+00 0.  1.
</event>
<event>
 7    1  0.1538805E-008  0.4614232E+02  0.7816164E-02  0.1320468E+00
        -11   -1    0    0    0    0  0.00000000000E+00  0.00000000000E+00  0.45593999997E+02  0.45594000000E+02  0.51100000000E-03 0.  1.
         11   -1    0    0    0    0 -0.00000000000E+00 -0.00000000000E+00 -0.45593999997E+02  0.45594000000E+02  0.51100000000E-03 0. -1.
    9900012    2    1    2    0    0  0.23104649481E+02 -0.28369152229E+02  0.26276982542E+02  0.46142318327E+02  0.10000005160E+02 0.  0.
        -12    1    1    2    0    0 -0.23104649481E+02  0.28369152229E+02 -0.26276982542E+02  0.45045681673E+02  0.00000000000E+00 0.  1.
         11    1    3    3    0    0  0.79794313070E+01 -0.53354140839E+01  0.35106659098E+01  0.10220701680E+02  0.51100000000E-03 0. -1.
        -11    1    3    3    0    0  0.10402719623E+02 -0.12860426665E+02  0.12759167684E+02  0.20890273091E+02  0.51100000000E-03 0.  1.
         12    1    3    3    0    0  0.47224985514E+01 -0.10173311481E+02  0.10007148948E+02  0.15031343557E+02  0.00000000000E+00 0. -1.
</event>
<event>
 7    1  0.1538805E-008  0.4614232E+02  0.7816164E-02  0.1320468E+00
        -11   -1    0    0    0    0  0.00000000000E+00  0.00000000000E+00  0.45593999997E+02  0.45594000000E+02  0.51100000000E-03 0. -1.
         11   -1    0    0    0    0 -0.00000000000E+00 -0.00000000000E+00 -0.45593999997E+02  0.45594000000E+02  0.51100000000E-03 0.  1.
    9900012    2    1    2    0    0 -0.47688232964E+01 -0.44695565416E+02  0.29458841151E+01  0.46142317890E+02  0.10000001179E+02 0.  0.
        -12    1    1    2    0    0  0.47688232964E+01  0.44695565416E+02 -0.29458841151E+01  0.45045682110E+02  0.00000000000E+00 0.  1.
         11    1    3    3    0    0 -0.16921648128E+00 -0.22051169649E+02  0.18770393166E+01  0.22131561038E+02  0.51100000000E-03 0. -1.
        -11    1    3    3    0    0 -0.55392848256E+01 -0.21975161002E+02  0.37723495259E+00  0.22665693987E+02  0.51100000000E-03 0.  1.
        -12    1    3    3    0    0  0.93967801044E+00 -0.66923476551E+00  0.69160984592E+00  0.13450628661E+01  0.00000000000E+00 0.  1.
</event>
<event>
 7    1  0.1538805E-008  0.4614232E+02  0.7816164E-02  0.1320468E+00
        -11   -1    0    0    0    0  0.00000000000E+00  0.00000000000E+00  0.45593999997E+02  0.45594000000E+02  0.51100000000E-03 0.  1.
         11   -1    0    0    0    0 -0.00000000000E+00 -0.00000000000E+00 -0.45593999997E+02  0.45594000000E+02  0.51100000000E-03 0. -1.
    9900012    2    1    2    0    0 -0.13237711183E+02  0.26535711298E+02 -0.33907705105E+02  0.46142318332E+02  0.10000005208E+02 0.  0.
        -12    1    1    2    0    0  0.13237711183E+02 -0.26535711298E+02  0.33907705105E+02  0.45045681668E+02  0.00000000000E+00 0.  1.
         11    1    3    3    0    0 -0.78074382486E+01  0.23656692747E+02 -0.27031921925E+02  0.36760304773E+02  0.51100000000E-03 0. -1.
        -11    1    3    3    0    0 -0.98837910544E+00  0.19258874602E+00 -0.20969509178E+01  0.23261958417E+01  0.51100000000E-03 0.  1.
         12    1    3    3    0    0 -0.44418938290E+01  0.26864298045E+01 -0.47788322614E+01  0.70558177177E+01  0.00000000000E+00 0. -1.
</event>
<event>
 7    1  0.1538805E-008  0.4614232E+02  0.7816164E-02  0.1320468E+00
        -11   -1    0    0    0    0  0.00000000000E+00  0.00000000000E+00  0.45593999997E+02  0.45594000000E+02  0.51100000000E-03 0. -1.
         11   -1    0    0    0    0 -0.00000000000E+00 -0.00000000000E+00 -0.45593999997E+02  0.45594000000E+02  0.51100000000E-03 0.  1.
    9900012    2    1    2    0    0 -0.29306066316E+02 -0.28332405245E+02  0.19171404383E+02  0.46142318122E+02  0.10000003287E+02 0.  0.
        -12    1    1    2    0    0  0.29306066316E+02  0.28332405245E+02 -0.19171404383E+02  0.45045681878E+02  0.00000000000E+00 0.  1.
         11    1    3    3    0    0 -0.99758611809E+01 -0.61165008833E+01  0.41927274591E+01  0.12430138904E+02  0.51100000000E-03 0. -1.
        -11    1    3    3    0    0 -0.12596192154E+02 -0.17872698654E+02  0.87020113256E+01  0.23533431864E+02  0.51100000000E-03 0.  1.
        -12    1    3    3    0    0 -0.67340129815E+01 -0.43432057080E+01  0.62766655985E+01  0.10178747354E+02  0.00000000000E+00 0.  1.
</event>
<event>
 7    1  0.1538805E-008  0.4614232E+02  0.7816164E-02  0.1320468E+00
        -11   -1    0    0    0    0  0.00000000000E+00  0.00000000000E+00  0.45593999997E+02  0.45594000000E+02  0.51100000000E-03 0.  1.
         11   -1    0    0    0    0 -0.00000000000E+00 -0.00000000000E+00 -0.45593999997E+02  0.45594000000E+02  0.51100000000E-03 0. -1.
    9900012    2    1    2    0    0  0.18135420676E+02 -0.25778104051E+02 -0.32182438835E+02  0.46142317622E+02  0.99999987318E+01 0.  0.
        -12    1    1    2    0    0 -0.18135420676E+02  0.25778104051E+02  0.32182438835E+02  0.45045682378E+02  0.00000000000E+00 0.  1.
         11    1    3    3    0    0  0.24359572626E+01 -0.94450661451E+00 -0.45755878637E+01  0.52689643280E+01  0.51100000000E-03 0. -1.
        -11    1    3    3    0    0  0.23276815891E+01 -0.57990291673E+01 -0.27426195203E+01  0.68241338614E+01  0.51100000000E-03 0.  1.
        -12    1    3    3    0    0  0.13371781824E+02 -0.19034568269E+02 -0.24864231451E+02  0.34049219433E+02  0.00000000000E+00 0.  1.
</event>
<event>
 7    1  0.1538805E-008  0.4614232E+02  0.7816164E-02  0.1320468E+00
        -11   -1    0    0    0    0  0.00000000000E+00  0.00000000000E+00  0.45593999997E+02  0.45594000000E+02  0.51100000000E-03 0. -1.
         11   -1    0    0    0    0 -0.00000000000E+00 -0.00000000000E+00 -0.45593999997E+02  0.45594000000E+02  0.51100000000E-03 0.  1.
    9900012    2    1    2    0    0  0.72629145447E+01  0.53646063560E+00  0.44453073475E+02  0.46142318086E+02  0.10000002964E+02 0.  0.
        -12    1    1    2    0    0 -0.72629145447E+01 -0.53646063560E+00 -0.44453073475E+02  0.45045681914E+02  0.00000000000E+00 0.  1.
         11    1    3    3    0    0 -0.13763004783E+00  0.14116460026E+01  0.12926159422E+02  0.13003741159E+02  0.51100000000E-03 0. -1.
        -11    1    3    3    0    0  0.17371122109E+01 -0.32642719753E+01  0.78578890801E+01  0.86844373115E+01  0.51100000000E-03 0.  1.
        -12    1    3    3    0    0  0.56634323816E+01  0.23890866083E+01  0.23669024973E+02  0.24454139615E+02  0.00000000000E+00 0.  1.
</event>
<event>
 7    1  0.1538805E-008  0.4614232E+02  0.7816164E-02  0.1320468E+00
        -11   -1    0    0    0    0  0.00000000000E+00  0.00000000000E+00  0.45593999997E+02  0.45594000000E+02  0.51100000000E-03 0.  1.
         11   -1    0    0    0    0 -0.00000000000E+00 -0.00000000000E+00 -0.45593999997E+02  0.45594000000E+02  0.51100000000E-03 0. -1.
    9900012    2    1    2    0    0  0.17975190633E+02 -0.14586834420E+02 -0.38642338960E+02  0.46142316777E+02  0.99999910261E+01 0.  0.
        -12    1    1    2    0    0 -0.17975190633E+02  0.14586834420E+02  0.38642338960E+02  0.45045683223E+02  0.00000000000E+00 0.  1.
         11    1    3    3    0    0  0.10500295408E+02 -0.10640056438E+02 -0.28305423351E+02  0.32010373256E+02  0.51100000000E-03 0. -1.
        -11    1    3    3    0    0  0.47348500318E+01  0.11420249726E+00 -0.49677307538E+01  0.68636867745E+01  0.51100000000E-03 0.  1.
         12    1    3    3    0    0  0.27400451936E+01 -0.40609804798E+01 -0.53691848550E+01  0.72682567461E+01  0.00000000000E+00 0. -1.
</event>
<event>
 7    1  0.1538805E-008  0.4614232E+02  0.7816164E-02  0.1320468E+00
        -11   -1    0    0    0    0  0.00000000000E+00  0.00000000000E+00  0.45593999997E+02  0.45594000000E+02  0.51100000000E-03 0.  1.
         11   -1    0    0    0    0 -0.00000000000E+00 -0.00000000000E+00 -0.45593999997E+02  0.45594000000E+02  0.51100000000E-03 0. -1.
    9900012    2    1    2    0    0  0.29442024731E+02 -0.86161922629E+01 -0.32985480212E+02  0.46142317696E+02  0.99999994101E+01 0.  0.
        -12    1    1    2    0    0 -0.29442024731E+02  0.86161922629E+01  0.32985480212E+02  0.45045682304E+02  0.00000000000E+00 0.  1.
         11    1    3    3    0    0  0.13084695168E+02 -0.62025329599E+01 -0.14799775051E+02  0.20705410032E+02  0.51100000000E-03 0. -1.
        -11    1    3    3    0    0  0.14389767395E+02 -0.35028010190E+01 -0.12705438072E+02  0.19513153961E+02  0.51100000000E-03 0.  1.
         12    1    3    3    0    0  0.19675621668E+01  0.10891417160E+01 -0.54802670898E+01  0.59237537029E+01  0.00000000000E+00 0. -1.
</event>
<event>
 7    1  0.1538805E-008  0.4614232E+02  0.7816164E-02  0.1320468E+00
        -11   -1    0    0    0    0  0.00000000000E+00  0.00000000000E+00  0.45593999997E+02  0.45594000000E+02  0.51100000000E-03 0. -1.
         11   -1    0    0    0    0 -0.00000000000E+00 -0.00000000000E+00 -0.45593999997E+02  0.45594000000E+02  0.51100000000E-03 0.  1.
    9900012    2    1    2    0    0 -0.98976584723E+01  0.36972806141E+02  0.23752083978E+02  0.46142317293E+02  0.99999957347E+01 0.  0.
        -12    1    1    2    0    0  0.98976584723E+01 -0.36972806141E+02 -0.23752083978E+02  0.45045682707E+02  0.00000000000E+00 0.  1.
         11    1    3    3    0    0 -0.20154658208E+01  0.47621794804E+01  0.63376284292E+01  0.81796081963E+01  0.51100000000E-03 0. -1.
        -11    1    3    3    0    0 -0.51722225701E+01  0.20245517596E+02  0.75407596984E+01  0.22214768199E+02  0.51100000000E-03 0.  1.
        -12    1    3    3    0    0 -0.27099700813E+01  0.11965109065E+02  0.98736958507E+01  0.15747940898E+02  0.00000000000E+00 0.  1.
</event>
<event>
 7    1  0.1538805E-008  0.4614232E+02  0.7816164E-02  0.1320468E+00
        -11   -1    0    0    0    0  0.00000000000E+00  0.00000000000E+00  0.45593999997E+02  0.45594000000E+02  0.51100000000E-03 0.  1.
         11   -1    0    0    0    0 -0.00000000000E+00 -0.00000000000E+00 -0.45593999997E+02  0.45594000000E+02  0.51100000000E-03 0. -1.
    9900012    2    1    2    0    0 -0.24645707500E+02 -0.39041435537E+01 -0.37502803772E+02  0.46142317345E+02  0.99999962068E+01 0.  0.
        -12    1    1    2    0    0  0.24645707500E+02  0.39041435537E+01  0.37502803772E+02  0.45045682655E+02  0.00000000000E+00 0.  1.
         11    1    3    3    0    0 -0.14328874296E+02 -0.13055164314E+01 -0.16303941611E+02  0.21744873512E+02  0.51100000000E-03 0. -1.
        -11    1    3    3    0    0  0.60349586698E+00 -0.80906093115E+00 -0.18701045941E+01  0.21251066575E+01  0.51100000000E-03 0.  1.
        -12    1    3    3    0    0 -0.10920329071E+02 -0.17895661911E+01 -0.19328757567E+02  0.22272337175E+02  0.00000000000E+00 0.  1.
</event>
<event>
 7    1  0.1538805E-008  0.4614231E+02  0.7816164E-02  0.1320468E+00
        -11   -1    0    0    0    0  0.00000000000E+00  0.00000000000E+00  0.45593999997E+02  0.45594000000E+02  0.51100000000E-03 0.  1.
         11   -1    0    0    0    0 -0.00000000000E+00 -0.00000000000E+00 -0.45593999997E+02  0.45594000000E+02  0.51100000000E-03 0. -1.
    9900012    2    1    2    0    0 -0.34023650563E+02  0.11778406317E+02 -0.27069804428E+02  0.46142312473E+02  0.99999517747E+01 0.  0.
        -12    1    1    2    0    0  0.34023650563E+02 -0.11778406317E+02  0.27069804428E+02  0.45045687527E+02  0.00000000000E+00 0.  1.
         11    1    3    3    0    0 -0.21105715070E+02  0.57877590587E+01 -0.18193124236E+02  0.28459429602E+02  0.51100000000E-03 0. -1.
        -11    1    3    3    0    0 -0.13742130494E+00 -0.33497115644E+00 -0.16628690974E+01  0.17018296586E+01  0.51100000000E-03 0.  1.
         12    1    3    3    0    0 -0.12780514188E+02  0.63256184152E+01 -0.72138110947E+01  0.15981053212E+02  0.00000000000E+00 0. -1.
</event>
<event>
 7    1  0.1538805E-008  0.4614232E+02  0.7816164E-02  0.1320468E+00
        -11   -1    0    0    0    0  0.00000000000E+00  0.00000000000E+00  0.45593999997E+02  0.45594000000E+02  0.51100000000E-03 0.  1.
         11   -1    0    0    0    0 -0.00000000000E+00 -0.00000000000E+00 -0.45593999997E+02  0.45594000000E+02  0.51100000000E-03 0. -1.
    9900012    2    1    2    0    0 -0.11173352687E+02  0.18255693961E+02 -0.39635828587E+02  0.46142322293E+02  0.10000041325E+02 0.  0.
        -12    1    1    2    0    0  0.11173352687E+02 -0.18255693961E+02  0.39635828587E+02  0.45045677707E+02  0.00000000000E+00 0.  1.
         11    1    3    3    0    0 -0.12146627720E+02  0.13983245857E+02 -0.35162595872E+02  0.39742670750E+02  0.51100000000E-03 0. -1.
        -11    1    3    3    0    0  0.12678055554E+01  0.30405401413E+01 -0.34619233746E+01  0.47788208786E+01  0.51100000000E-03 0.  1.
         12    1    3    3    0    0 -0.29453052321E+00  0.12319079634E+01 -0.10113093406E+01  0.16208306641E+01  0.00000000000E+00 0. -1.
</event>
<event>
 7    1  0.1538805E-008  0.4614232E+02  0.7816164E-02  0.1320468E+00
        -11   -1    0    0    0    0  0.00000000000E+00  0.00000000000E+00  0.45593999997E+02  0.45594000000E+02  0.51100000000E-03 0.  1.
         11   -1    0    0    0    0 -0.00000000000E+00 -0.00000000000E+00 -0.45593999997E+02  0.45594000000E+02  0.51100000000E-03 0. -1.
    9900012    2    1    2    0    0 -0.19817938343E+02 -0.25379815007E+02 -0.31499648545E+02  0.46142317094E+02  0.99999939181E+01 0.  0.
        -12    1    1    2    0    0  0.19817938343E+02  0.25379815007E+02  0.31499648545E+02  0.45045682906E+02  0.00000000000E+00 0.  1.
         11    1    3    3    0    0 -0.36713105136E+01 -0.60318345326E+01 -0.88034997490E+01  0.11285528645E+02  0.51100000000E-03 0. -1.
        -11    1    3    3    0    0 -0.13702146929E+02 -0.10501806146E+02 -0.14278719598E+02  0.22403539819E+02  0.51100000000E-03 0.  1.
        -12    1    3    3    0    0 -0.24444809001E+01 -0.88461743287E+01 -0.84174291985E+01  0.12453248630E+02  0.00000000000E+00 0.  1.
</event>
<event>
 7    1  0.1538805E-008  0.4614232E+02  0.7816164E-02  0.1320468E+00
        -11   -1    0    0    0    0  0.00000000000E+00  0.00000000000E+00  0.45593999997E+02  0.45594000000E+02  0.51100000000E-03 0.  1.
         11   -1    0    0    0    0 -0.00000000000E+00 -0.00000000000E+00 -0.45593999997E+02  0.45594000000E+02  0.51100000000E-03 0. -1.
    9900012    2    1    2    0    0  0.25387972301E+02  0.28805141755E+02 -0.23554795658E+02  0.46142315106E+02  0.99999757856E+01 0.  0.
        -12    1    1    2    0    0 -0.25387972301E+02 -0.28805141755E+02  0.23554795658E+02  0.45045684894E+02  0.00000000000E+00 0.  1.
         11    1    3    3    0    0  0.62336828775E+01  0.73486711734E+01 -0.10190697619E+02  0.14025408674E+02  0.51100000000E-03 0. -1.
        -11    1    3    3    0    0  0.13016102796E+02  0.17318116097E+02 -0.85724499014E+01  0.23298561644E+02  0.51100000000E-03 0.  1.
         12    1    3    3    0    0  0.61381866273E+01  0.41383544855E+01 -0.47916481377E+01  0.88183447877E+01  0.00000000000E+00 0. -1.
</event>
<event>
 7    1  0.1538805E-008  0.4614232E+02  0.7816164E-02  0.1320468E+00
        -11   -1    0    0    0    0  0.00000000000E+00  0.00000000000E+00  0.45593999997E+02  0.45594000000E+02  0.51100000000E-03 0.  1.
         11   -1    0    0    0    0 -0.00000000000E+00 -0.00000000000E+00 -0.45593999997E+02  0.45594000000E+02  0.51100000000E-03 0. -1.
    9900012    2    1    2    0    0 -0.77426628808E+01 -0.22032586216E+02 -0.38519213719E+02  0.46142317528E+02  0.99999978719E+01 0.  0.
        -12    1    1    2    0    0  0.77426628808E+01  0.22032586216E+02  0.38519213719E+02  0.45045682472E+02  0.00000000000E+00 0.  1.
         11    1    3    3    0    0 -0.20455323488E+00 -0.23953822177E+01 -0.65594779440E+00  0.24919802898E+01  0.51100000000E-03 0. -1.
        -11    1    3    3    0    0 -0.26771443145E+01 -0.78824377002E+01 -0.20503924971E+02  0.22129411770E+02  0.51100000000E-03 0.  1.
         12    1    3    3    0    0 -0.48609653315E+01 -0.11754766298E+02 -0.17359340953E+02  0.21520925468E+02  0.00000000000E+00 0. -1.
</event>
<event>
 7    1  0.1538805E-008  0.4614232E+02  0.7816164E-02  0.1320468E+00
        -11   -1    0    0    0    0  0.00000000000E+00  0.00000000000E+00  0.45593999997E+02  0.45594000000E+02  0.51100000000E-03 0.  1.
         11   -1    0    0    0    0 -0.00000000000E+00 -0.00000000000E+00 -0.45593999997E+02  0.45594000000E+02  0.51100000000E-03 0. -1.
    9900012    2    1    2    0    0  0.30654575316E+02 -0.29284243754E+02 -0.15226409550E+02  0.46142317989E+02  0.10000002080E+02 0.  0.
        -12    1    1    2    0    0 -0.30654575316E+02  0.29284243754E+02  0.15226409550E+02  0.45045682011E+02  0.00000000000E+00 0.  1.
         11    1    3    3    0    0  0.55706007311E+01 -0.10133443874E+02 -0.51869205639E+01  0.12673690167E+02  0.51100000000E-03 0. -1.
        -11    1    3    3    0    0  0.19012485033E+02 -0.13034366756E+02 -0.53779491053E+01  0.23670480365E+02  0.51100000000E-03 0.  1.
        -12    1    3    3    0    0  0.60714895514E+01 -0.61164331239E+01 -0.46615398810E+01  0.97981474573E+01  0.00000000000E+00 0.  1.
</event>
<event>
 7    1  0.1538805E-008  0.4614232E+02  0.7816164E-02  0.1320468E+00
        -11   -1    0    0    0    0  0.00000000000E+00  0.00000000000E+00  0.45593999997E+02  0.45594000000E+02  0.51100000000E-03 0.  1.
         11   -1    0    0    0    0 -0.00000000000E+00 -0.00000000000E+00 -0.45593999997E+02  0.45594000000E+02  0.51100000000E-03 0. -1.
    9900012    2    1    2    0    0 -0.66067832225E+01  0.11699711802E+02 -0.42995122786E+02  0.46142318474E+02  0.10000006498E+02 0.  0.
        -12    1    1    2    0    0  0.66067832225E+01 -0.11699711802E+02  0.42995122786E+02  0.45045681526E+02  0.00000000000E+00 0.  1.
         11    1    3    3    0    0  0.56312526408E+00  0.21636995162E+01 -0.17673441438E+02  0.17814298701E+02  0.51100000000E-03 0. -1.
        -11    1    3    3    0    0 -0.27749538901E+01  0.63958623998E+01 -0.11019278965E+02  0.13039629369E+02  0.51100000000E-03 0.  1.
         12    1    3    3    0    0 -0.43949545965E+01  0.31401498856E+01 -0.14302402383E+02  0.15288390404E+02  0.00000000000E+00 0. -1.
</event>
<event>
 7    1  0.1538805E-008  0.4614232E+02  0.7816164E-02  0.1320468E+00
        -11   -1    0    0    0    0  0.00000000000E+00  0.00000000000E+00  0.45593999997E+02  0.45594000000E+02  0.51100000000E-03 0.  1.
         11   -1    0    0    0    0 -0.00000000000E+00 -0.00000000000E+00 -0.45593999997E+02  0.45594000000E+02  0.51100000000E-03 0. -1.
    9900012    2    1    2    0    0  0.33623802838E+02  0.46972682522E+01 -0.29605557855E+02  0.46142317608E+02  0.99999986000E+01 0.  0.
        -12    1    1    2    0    0 -0.33623802838E+02 -0.46972682522E+01  0.29605557855E+02  0.45045682392E+02  0.00000000000E+00 0.  1.
         11    1    3    3    0    0  0.13390035344E+02  0.34111473279E+01 -0.69186694981E+01  0.15453056671E+02  0.51100000000E-03 0. -1.
        -11    1    3    3    0    0  0.15277179295E+02 -0.41136790498E+00 -0.15229465117E+02  0.21575403560E+02  0.51100000000E-03 0.  1.
         12    1    3    3    0    0  0.49565881990E+01  0.16974888293E+01 -0.74574232398E+01  0.91138573764E+01  0.00000000000E+00 0. -1.
</event>
<event>
 7    1  0.1538805E-008  0.4614232E+02  0.7816164E-02  0.1320468E+00
        -11   -1    0    0    0    0  0.00000000000E+00  0.00000000000E+00  0.45593999997E+02  0.45594000000E+02  0.51100000000E-03 0.  1.
         11   -1    0    0    0    0 -0.00000000000E+00 -0.00000000000E+00 -0.45593999997E+02  0.45594000000E+02  0.51100000000E-03 0. -1.
    9900012    2    1    2    0    0  0.13040216877E+02 -0.32051106287E+02 -0.28840818655E+02  0.46142317731E+02  0.99999997226E+01 0.  0.
        -12    1    1    2    0    0 -0.13040216877E+02  0.32051106287E+02  0.28840818655E+02  0.45045682269E+02  0.00000000000E+00 0.  1.
         11    1    3    3    0    0  0.38170726041E+01 -0.14333828293E+02 -0.15570203899E+02  0.21504881458E+02  0.51100000000E-03 0. -1.
        -11    1    3    3    0    0  0.31657055661E+01 -0.11859484264E+02 -0.69676806437E+01  0.14114447653E+02  0.51100000000E-03 0.  1.
        -12    1    3    3    0    0  0.60574387065E+01 -0.58577937304E+01 -0.63029341115E+01  0.10522988619E+02  0.00000000000E+00 0.  1.
</event>
<event>
 7    1  0.1538805E-008  0.4614232E+02  0.7816164E-02  0.1320468E+00
        -11   -1    0    0    0    0  0.00000000000E+00  0.00000000000E+00  0.45593999997E+02  0.45594000000E+02  0.51100000000E-03 0. -1.
         11   -1    0    0    0    0 -0.00000000000E+00 -0.00000000000E+00 -0.45593999997E+02  0.45594000000E+02  0.51100000000E-03 0.  1.
    9900012    2    1    2    0    0  0.10920372934E+02  0.26119787201E+02  0.35037345699E+02  0.46142318497E+02  0.10000006709E+02 0.  0.
        -12    1    1    2    0    0 -0.10920372934E+02 -0.26119787201E+02 -0.35037345699E+02  0.45045681503E+02  0.00000000000E+00 0.  1.
         11    1    3    3    0    0  0.34510032100E+01  0.15827786667E+02  0.22043507458E+02  0.27355885569E+02  0.51100000000E-03 0. -1.
        -11    1    3    3    0    0  0.20217402767E+01  0.43773048459E+01  0.21319150184E+01  0.52719344995E+01  0.51100000000E-03 0.  1.
        -12    1    3    3    0    0  0.54476294478E+01  0.59146956880E+01  0.10861923222E+02  0.13514498428E+02  0.00000000000E+00 0.  1.
</event>
<event>
 7    1  0.1538805E-008  0.4614232E+02  0.7816164E-02  0.1320468E+00
        -11   -1    0    0    0    0  0.00000000000E+00  0.00000000000E+00  0.45593999997E+02  0.45594000000E+02  0.51100000000E-03 0.  1.
         11   -1    0    0    0    0 -0.00000000000E+00 -0.00000000000E+00 -0.45593999997E+02  0.45594000000E+02  0.51100000000E-03 0. -1.
    9900012    2    1    2    0    0 -0.21496636013E+02  0.38110436024E+02 -0.10705269346E+02  0.46142317792E+02  0.10000000279E+02 0.  0.
        -12    1    1    2    0    0  0.21496636013E+02 -0.38110436024E+02  0.10705269346E+02  0.45045682208E+02  0.00000000000E+00 0.  1.
         11    1    3    3    0    0 -0.11509037118E+02  0.13802070311E+02 -0.35234531371E+01  0.18313104666E+02  0.51100000000E-03 0. -1.
        -11    1    3    3    0    0 -0.39041835203E+01  0.55670717353E+01 -0.39451330615E+01  0.78612347504E+01  0.51100000000E-03 0.  1.
        -12    1    3    3    0    0 -0.60834153752E+01  0.18741293978E+02 -0.32366831475E+01  0.19967978375E+02  0.00000000000E+00 0.  1.
</event>
<event>
 7    1  0.1538805E-008  0.4614232E+02  0.7816164E-02  0.1320468E+00
        -11   -1    0    0    0    0  0.00000000000E+00  0.00000000000E+00  0.45593999997E+02  0.45594000000E+02  0.51100000000E-03 0. -1.
         11   -1    0    0    0    0 -0.00000000000E+00 -0.00000000000E+00 -0.45593999997E+02  0.45594000000E+02  0.51100000000E-03 0.  1.
    9900012    2    1    2    0    0 -0.33176597492E+02 -0.24702383771E+02 -0.17838696053E+02  0.46142318054E+02  0.10000002672E+02 0.  0.
        -12    1    1    2    0    0  0.33176597492E+02  0.24702383771E+02  0.17838696053E+02  0.45045681946E+02  0.00000000000E+00 0.  1.
         11    1    3    3    0    0 -0.25384112399E+02 -0.22981431920E+02 -0.15591340264E+02  0.37624317494E+02  0.51100000000E-03 0. -1.
        -11    1    3    3    0    0 -0.87452700729E+00 -0.50601786553E+00  0.28795432331E+00  0.10506043595E+01  0.51100000000E-03 0.  1.
         12    1    3    3    0    0 -0.69179580850E+01 -0.12149339863E+01 -0.25353101116E+01  0.74673962007E+01  0.00000000000E+00 0. -1.
</event>
<event>
 7    1  0.1538805E-008  0.4614232E+02  0.7816164E-02  0.1320468E+00
        -11   -1    0    0    0    0  0.00000000000E+00  0.00000000000E+00  0.45593999997E+02  0.45594000000E+02  0.51100000000E-03 0.  1.
         11   -1    0    0    0    0 -0.00000000000E+00 -0.00000000000E+00 -0.45593999997E+02  0.45594000000E+02  0.51100000000E-03 0. -1.
    9900012    2    1    2    0    0 -0.15052662414E+02 -0.36258780358E+02 -0.22086910836E+02  0.46142318420E+02  0.10000006005E+02 0.  0.
        -12    1    1    2    0    0  0.15052662414E+02  0.36258780358E+02  0.22086910836E+02  0.45045681580E+02  0.00000000000E+00 0.  1.
         11    1    3    3    0    0 -0.67650620329E+01 -0.16921606379E+02 -0.11030622389E+02  0.21302146777E+02  0.51100000000E-03 0. -1.
        -11    1    3    3    0    0  0.13028149359E+01 -0.28711063950E+01 -0.20740643208E+01  0.37739000725E+01  0.51100000000E-03 0.  1.
        -12    1    3    3    0    0 -0.95904153166E+01 -0.16466067584E+02 -0.89822241255E+01  0.21066271570E+02  0.00000000000E+00 0.  1.
</event>
<event>
 7    1  0.1538805E-008  0.4614231E+02  0.7816164E-02  0.1320468E+00
        -11   -1    0    0    0    0  0.00000000000E+00  0.00000000000E+00  0.45593999997E+02  0.45594000000E+02  0.51100000000E-03 0.  1.
         11   -1    0    0    0    0 -0.00000000000E+00 -0.00000000000E+00 -0.45593999997E+02  0.45594000000E+02  0.51100000000E-03 0. -1.
    9900012    2    1    2    0    0  0.21166301346E+02 -0.25548443591E+02 -0.30469303528E+02  0.46142314967E+02  0.99999745218E+01 0.  0.
        -12    1    1    2    0    0 -0.21166301346E+02  0.25548443591E+02  0.30469303528E+02  0.45045685033E+02  0.00000000000E+00 0.  1.
         11    1    3    3    0    0  0.94122486317E+01 -0.84440545757E+01 -0.71076738116E+01  0.14505568216E+02  0.51100000000E-03 0. -1.
        -11    1    3    3    0    0 -0.25473514623E+00 -0.92698690679E+00 -0.22876541103E+01  0.24814423849E+01  0.51100000000E-03 0.  1.
         12    1    3    3    0    0  0.12008787861E+02 -0.16177402109E+02 -0.21073975606E+02  0.29155304367E+02  0.00000000000E+00 0. -1.
</event>
<event>
 7    1  0.1538805E-008  0.4614232E+02  0.7816164E-02  0.1320468E+00
        -11   -1    0    0    0    0  0.00000000000E+00  0.00000000000E+00  0.45593999997E+02  0.45594000000E+02  0.51100000000E-03 0.  1.
         11   -1    0    0    0    0 -0.00000000000E+00 -0.00000000000E+00 -0.45593999997E+02  0.45594000000E+02  0.51100000000E-03 0. -1.
    9900012    2    1    2    0    0 -0.12803002445E+02  0.37886738448E+02 -0.20731413141E+02  0.46142319711E+02  0.10000017784E+02 0.  0.
        -12    1    1    2    0    0  0.12803002445E+02 -0.37886738448E+02  0.20731413141E+02  0.45045680289E+02  0.00000000000E+00 0.  1.
         11    1    3    3    0    0 -0.82811524793E+01  0.20986684313E+02 -0.62493345314E+01  0.23410950155E+02  0.51100000000E-03 0. -1.
        -11    1    3    3    0    0 -0.43134278458E+01  0.15704045958E+02 -0.13747835151E+02  0.21312571193E+02  0.51100000000E-03 0.  1.
         12    1    3    3    0    0 -0.20842212004E+00  0.11960081767E+01 -0.73424345907E+00  0.14187983634E+01  0.00000000000E+00 0. -1.
</event>
<event>
 7    1  0.1538805E-008  0.4614232E+02  0.7816164E-02  0.1320468E+00
        -11   -1    0    0    0    0  0.00000000000E+00  0.00000000000E+00  0.45593999997E+02  0.45594000000E+02  0.51100000000E-03 0.  1.
         11   -1    0    0    0    0 -0.00000000000E+00 -0.00000000000E+00 -0.45593999997E+02  0.45594000000E+02  0.51100000000E-03 0. -1.
    9900012    2    1    2    0    0 -0.32766965160E+02 -0.18943257981E+02 -0.24425242297E+02  0.46142317743E+02  0.99999998309E+01 0.  0.
        -12    1    1    2    0    0  0.32766965160E+02  0.18943257981E+02  0.24425242297E+02  0.45045682257E+02  0.00000000000E+00 0.  1.
         11    1    3    3    0    0 -0.10431303635E+02 -0.81561368875E+01 -0.78114196981E+01  0.15373774501E+02  0.51100000000E-03 0. -1.
        -11    1    3    3    0    0 -0.14046264821E+02 -0.41657970552E+01 -0.12921902848E+02  0.19535275631E+02  0.51100000000E-03 0.  1.
        -12    1    3    3    0    0 -0.82893967053E+01 -0.66213240383E+01 -0.36919197511E+01  0.11233267610E+02  0.00000000000E+00 0.  1.
</event>
<event>
 7    1  0.1538805E-008  0.4614232E+02  0.7816164E-02  0.1320468E+00
        -11   -1    0    0    0    0  0.00000000000E+00  0.00000000000E+00  0.45593999997E+02  0.45594000000E+02  0.51100000000E-03 0.  1.
         11   -1    0    0    0    0 -0.00000000000E+00 -0.00000000000E+00 -0.45593999997E+02  0.45594000000E+02  0.51100000000E-03 0. -1.
    9900012    2    1    2    0    0 -0.26159104373E+02  0.11549227376E+02 -0.34805604943E+02  0.46142317299E+02  0.99999957823E+01 0.  0.
        -12    1    1    2    0    0  0.26159104373E+02 -0.11549227376E+02  0.34805604943E+02  0.45045682701E+02  0.00000000000E+00 0.  1.
         11    1    3    3    0    0 -0.10093110094E+02  0.17527767271E+01 -0.84320598367E+01  0.13268109548E+02  0.51100000000E-03 0. -1.
        -11    1    3    3    0    0 -0.52889312448E+01  0.59780612944E+01 -0.85322928506E+01  0.11683750772E+02  0.51100000000E-03 0.  1.
         12    1    3    3    0    0 -0.10777063034E+02  0.38183893542E+01 -0.17841252256E+02  0.21190456979E+02  0.00000000000E+00 0. -1.
</event>
<event>
 7    1  0.1538805E-008  0.4614232E+02  0.7816164E-02  0.1320468E+00
        -11   -1    0    0    0    0  0.00000000000E+00  0.00000000000E+00  0.45593999997E+02  0.45594000000E+02  0.51100000000E-03 0.  1.
         11   -1    0    0    0    0 -0.00000000000E+00 -0.00000000000E+00 -0.45593999997E+02  0.45594000000E+02  0.51100000000E-03 0. -1.
    9900012    2    1    2    0    0 -0.42632633478E+02  0.76049165422E+01 -0.12399087312E+02  0.46142316977E+02  0.99999928458E+01 0.  0.
        -12    1    1    2    0    0  0.42632633478E+02 -0.76049165422E+01  0.12399087312E+02  0.45045683023E+02  0.00000000000E+00 0.  1.
         11    1    3    3    0    0 -0.59287860438E+01  0.77260682976E-01 -0.18132973453E+00  0.59320615219E+01  0.51100000000E-03 0. -1.
        -11    1    3    3    0    0 -0.51934955876E+01 -0.13076316957E+01 -0.33027327659E+01  0.62920855886E+01  0.51100000000E-03 0.  1.
        -12    1    3    3    0    0 -0.31510351847E+02  0.88352875549E+01 -0.89150248117E+01  0.33918169866E+02  0.00000000000E+00 0.  1.
</event>
<event>
 7    1  0.1538805E-008  0.4614232E+02  0.7816164E-02  0.1320468E+00
        -11   -1    0    0    0    0  0.00000000000E+00  0.00000000000E+00  0.45593999997E+02  0.45594000000E+02  0.51100000000E-03 0.  1.
         11   -1    0    0    0    0 -0.00000000000E+00 -0.00000000000E+00 -0.45593999997E+02  0.45594000000E+02  0.51100000000E-03 0. -1.
    9900012    2    1    2    0    0  0.34526007183E+02 -0.22075254704E+02 -0.18701643774E+02  0.46142317386E+02  0.99999965828E+01 0.  0.
        -12    1    1    2    0    0 -0.34526007183E+02  0.22075254704E+02  0.18701643774E+02  0.45045682614E+02  0.00000000000E+00 0.  1.
         11    1    3    3    0    0  0.11875714542E+02 -0.83936533563E+01 -0.81884620237E+01  0.16689425488E+02  0.51100000000E-03 0. -1.
        -11    1    3    3    0    0  0.14126198179E+02 -0.67427269989E+01 -0.25013683531E+01  0.15851519999E+02  0.51100000000E-03 0.  1.
        -12    1    3    3    0    0  0.85240944619E+01 -0.69388743491E+01 -0.80118133970E+01  0.13601371899E+02  0.00000000000E+00 0.  1.
</event>
<event>
 7    1  0.1538805E-008  0.4614232E+02  0.7816164E-02  0.1320468E+00
        -11   -1    0    0    0    0  0.00000000000E+00  0.00000000000E+00  0.45593999997E+02  0.45594000000E+02  0.51100000000E-03 0. -1.
         11   -1    0    0    0    0 -0.00000000000E+00 -0.00000000000E+00 -0.45593999997E+02  0.45594000000E+02  0.51100000000E-03 0.  1.
    9900012    2    1    2    0    0  0.41385446367E+02 -0.10368462136E+02  0.14451761590E+02  0.46142316621E+02  0.99999896001E+01 0.  0.
        -12    1    1    2    0    0 -0.41385446367E+02  0.10368462136E+02 -0.14451761590E+02  0.45045683379E+02  0.00000000000E+00 0.  1.
         11    1    3    3    0    0  0.25155550614E+01 -0.22055399663E+01 -0.22455308707E+00  0.33530356634E+01  0.51100000000E-03 0. -1.
        -11    1    3    3    0    0  0.13967350265E+02 -0.78036115172E+00  0.29778475057E+01  0.14302566657E+02  0.51100000000E-03 0.  1.
         12    1    3    3    0    0  0.24902541041E+02 -0.73825610176E+01  0.11698467171E+02  0.28486714300E+02  0.00000000000E+00 0. -1.
</event>
<event>
 7    1  0.1538805E-008  0.4614232E+02  0.7816164E-02  0.1320468E+00
        -11   -1    0    0    0    0  0.00000000000E+00  0.00000000000E+00  0.45593999997E+02  0.45594000000E+02  0.51100000000E-03 0. -1.
         11   -1    0    0    0    0 -0.00000000000E+00 -0.00000000000E+00 -0.45593999997E+02  0.45594000000E+02  0.51100000000E-03 0.  1.
    9900012    2    1    2    0    0  0.42153633088E+02 -0.15651682893E+02  0.26850549637E+01  0.46142317854E+02  0.10000000844E+02 0.  0.
        -12    1    1    2    0    0 -0.42153633088E+02  0.15651682893E+02 -0.26850549637E+01  0.45045682146E+02  0.00000000000E+00 0.  1.
         11    1    3    3    0    0  0.30959152000E+02 -0.11704852715E+02  0.21719246291E+01  0.33169111029E+02  0.51100000000E-03 0. -1.
        -11    1    3    3    0    0  0.14259792082E+01  0.21078123637E+00 -0.15945757789E+01  0.21495389291E+01  0.51100000000E-03 0.  1.
        -12    1    3    3    0    0  0.97685018798E+01 -0.41576114139E+01  0.21077061135E+01  0.10823667895E+02  0.00000000000E+00 0.  1.
</event>
<event>
 7    1  0.1538805E-008  0.4614232E+02  0.7816164E-02  0.1320468E+00
        -11   -1    0    0    0    0  0.00000000000E+00  0.00000000000E+00  0.45593999997E+02  0.45594000000E+02  0.51100000000E-03 0.  1.
         11   -1    0    0    0    0 -0.00000000000E+00 -0.00000000000E+00 -0.45593999997E+02  0.45594000000E+02  0.51100000000E-03 0. -1.
    9900012    2    1    2    0    0  0.10575761842E+02  0.31868567366E+02 -0.30027672274E+02  0.46142318446E+02  0.10000006241E+02 0.  0.
        -12    1    1    2    0    0 -0.10575761842E+02 -0.31868567366E+02  0.30027672274E+02  0.45045681554E+02  0.00000000000E+00 0.  1.
         11    1    3    3    0    0  0.78964586071E+01  0.23916884319E+02 -0.26163715677E+02  0.36316820239E+02  0.51100000000E-03 0.  1.
        -11    1    3    3    0    0 -0.56301391941E+00  0.36734796587E+00  0.90341526041E-01  0.67830012084E+00  0.51100000000E-03 0. -1.
        -12    1    3    3    0    0  0.32423171544E+01  0.75843350818E+01 -0.39542981234E+01  0.91471980853E+01  0.00000000000E+00 0.  1.
</event>
<event>
 7    1  0.1538805E-008  0.4614232E+02  0.7816164E-02  0.1320468E+00
        -11   -1    0    0    0    0  0.00000000000E+00  0.00000000000E+00  0.45593999997E+02  0.45594000000E+02  0.51100000000E-03 0.  1.
         11   -1    0    0    0    0 -0.00000000000E+00 -0.00000000000E+00 -0.45593999997E+02  0.45594000000E+02  0.51100000000E-03 0. -1.
    9900012    2    1    2    0    0 -0.10891151025E+02 -0.42799498794E+02  0.88712387857E+01  0.46142321570E+02  0.10000034730E+02 0.  0.
        -12    1    1    2    0    0  0.10891151025E+02  0.42799498794E+02 -0.88712387857E+01  0.45045678430E+02  0.00000000000E+00 0.  1.
         11    1    3    3    0    0 -0.61806545032E+00 -0.95073907619E+01  0.84934062753E+00  0.95652424832E+01  0.51100000000E-03 0. -1.
        -11    1    3    3    0    0 -0.50044061177E+01 -0.27019649126E+02  0.66351829166E+01  0.28268908222E+02  0.51100000000E-03 0.  1.
        -12    1    3    3    0    0 -0.52686794572E+01 -0.62724589057E+01  0.13867152416E+01  0.83081708641E+01  0.00000000000E+00 0.  1.
</event>
<event>
 7    1  0.1538805E-008  0.4614232E+02  0.7816164E-02  0.1320468E+00
        -11   -1    0    0    0    0  0.00000000000E+00  0.00000000000E+00  0.45593999997E+02  0.45594000000E+02  0.51100000000E-03 0.  1.
         11   -1    0    0    0    0 -0.00000000000E+00 -0.00000000000E+00 -0.45593999997E+02  0.45594000000E+02  0.51100000000E-03 0. -1.
    9900012    2    1    2    0    0 -0.29853568493E+02  0.32864388029E+02 -0.76032851324E+01  0.46142317664E+02  0.99999991181E+01 0.  0.
        -12    1    1    2    0    0  0.29853568493E+02 -0.32864388029E+02  0.76032851324E+01  0.45045682336E+02  0.00000000000E+00 0.  1.
         11    1    3    3    0    0 -0.16707939604E+01  0.25742147452E+01 -0.12863737594E+01  0.33275954866E+01  0.51100000000E-03 0. -1.
        -11    1    3    3    0    0 -0.23383196836E+02  0.19691925001E+02 -0.61297666974E+01  0.31178836484E+02  0.51100000000E-03 0.  1.
        -12    1    3    3    0    0 -0.47995776962E+01  0.10598248283E+02 -0.18714467562E+00  0.11635885693E+02  0.00000000000E+00 0.  1.
</event>
<event>
 7    1  0.1538805E-008  0.4614232E+02  0.7816164E-02  0.1320468E+00
        -11   -1    0    0    0    0  0.00000000000E+00  0.00000000000E+00  0.45593999997E+02  0.45594000000E+02  0.51100000000E-03 0.  1.
         11   -1    0    0    0    0 -0.00000000000E+00 -0.00000000000E+00 -0.45593999997E+02  0.45594000000E+02  0.51100000000E-03 0. -1.
    9900012    2    1    2    0    0  0.15082018236E+02  0.56419617637E+01 -0.42069162524E+02  0.46142318275E+02  0.10000004684E+02 0.  0.
        -12    1    1    2    0    0 -0.15082018236E+02 -0.56419617637E+01  0.42069162524E+02  0.45045681725E+02  0.00000000000E+00 0.  1.
         11    1    3    3    0    0  0.52827982718E+01 -0.25305884700E+00 -0.14780816039E+02  0.15698551506E+02  0.51100000000E-03 0. -1.
        -11    1    3    3    0    0 -0.62604948675E+00  0.19060592540E+01 -0.70655126578E+01  0.73448260169E+01  0.51100000000E-03 0.  1.
        -12    1    3    3    0    0  0.10425269451E+02  0.39889613567E+01 -0.20222833827E+02  0.23098940752E+02  0.00000000000E+00 0.  1.
</event>
<event>
 7    1  0.1538805E-008  0.4614232E+02  0.7816164E-02  0.1320468E+00
        -11   -1    0    0    0    0  0.00000000000E+00  0.00000000000E+00  0.45593999997E+02  0.45594000000E+02  0.51100000000E-03 0.  1.
         11   -1    0    0    0    0 -0.00000000000E+00 -0.00000000000E+00 -0.45593999997E+02  0.45594000000E+02  0.51100000000E-03 0. -1.
    9900012    2    1    2    0    0 -0.45052100615E+01 -0.14377051738E+02 -0.42451347518E+02  0.46142318293E+02  0.10000004850E+02 0.  0.
        -12    1    1    2    0    0  0.45052100615E+01  0.14377051738E+02  0.42451347518E+02  0.45045681707E+02  0.00000000000E+00 0.  1.
         11    1    3    3    0    0 -0.39118390818E+00 -0.76805072562E+01 -0.18085859231E+02  0.19653028289E+02  0.51100000000E-03 0. -1.
        -11    1    3    3    0    0  0.68613436936E+00  0.10606982840E+01 -0.26582753590E+01  0.29431767476E+01  0.51100000000E-03 0.  1.
        -12    1    3    3    0    0 -0.48001605227E+01 -0.77572427655E+01 -0.21707212928E+02  0.23546113256E+02  0.00000000000E+00 0.  1.
</event>
<event>
 7    1  0.1538805E-008  0.4614232E+02  0.7816164E-02  0.1320468E+00
        -11   -1    0    0    0    0  0.00000000000E+00  0.00000000000E+00  0.45593999997E+02  0.45594000000E+02  0.51100000000E-03 0.  1.
         11   -1    0    0    0    0 -0.00000000000E+00 -0.00000000000E+00 -0.45593999997E+02  0.45594000000E+02  0.51100000000E-03 0. -1.
    9900012    2    1    2    0    0 -0.15768590626E+02 -0.34680373011E+02 -0.24036156930E+02  0.46142316939E+02  0.99999924990E+01 0.  0.
        -12    1    1    2    0    0  0.15768590626E+02  0.34680373011E+02  0.24036156930E+02  0.45045683061E+02  0.00000000000E+00 0.  1.
         11    1    3    3    0    0 -0.43765037293E+01 -0.19016103108E+02 -0.10935190608E+02  0.22368378489E+02  0.51100000000E-03 0. -1.
        -11    1    3    3    0    0 -0.50016325426E+01 -0.50076524053E+01 -0.69091014520E+01  0.98908338293E+01  0.51100000000E-03 0.  1.
         12    1    3    3    0    0 -0.63904543541E+01 -0.10656617497E+02 -0.61918648700E+01  0.13883104620E+02  0.00000000000E+00 0. -1.
</event>
<event>
 7    1  0.1538805E-008  0.4614232E+02  0.7816164E-02  0.1320468E+00
        -11   -1    0    0    0    0  0.00000000000E+00  0.00000000000E+00  0.45593999997E+02  0.45594000000E+02  0.51100000000E-03 0. -1.
         11   -1    0    0    0    0 -0.00000000000E+00 -0.00000000000E+00 -0.45593999997E+02  0.45594000000E+02  0.51100000000E-03 0.  1.
    9900012    2    1    2    0    0 -0.31237810818E+02 -0.13998507440E+02  0.29280615364E+02  0.46142317950E+02  0.10000001722E+02 0.  0.
        -12    1    1    2    0    0  0.31237810818E+02  0.13998507440E+02 -0.29280615364E+02  0.45045682050E+02  0.00000000000E+00 0.  1.
         11    1    3    3    0    0 -0.10281553878E+02 -0.61257713058E+01  0.48342731269E+01  0.12907579989E+02  0.51100000000E-03 0. -1.
        -11    1    3    3    0    0 -0.10751905817E+02 -0.43260473481E+01  0.14376187772E+02  0.18465994137E+02  0.51100000000E-03 0.  1.
         12    1    3    3    0    0 -0.10204351123E+02 -0.35466887859E+01  0.10070154465E+02  0.14768743824E+02  0.00000000000E+00 0. -1.
</event>
<event>
 7    1  0.1538805E-008  0.4614232E+02  0.7816164E-02  0.1320468E+00
        -11   -1    0    0    0    0  0.00000000000E+00  0.00000000000E+00  0.45593999997E+02  0.45594000000E+02  0.51100000000E-03 0.  1.
         11   -1    0    0    0    0 -0.00000000000E+00 -0.00000000000E+00 -0.45593999997E+02  0.45594000000E+02  0.51100000000E-03 0. -1.
    9900012    2    1    2    0    0  0.10047052517E+02  0.74395858383E+01 -0.43276122383E+02  0.46142317963E+02  0.10000001838E+02 0.  0.
        -12    1    1    2    0    0 -0.10047052517E+02 -0.74395858383E+01  0.43276122383E+02  0.45045682037E+02  0.00000000000E+00 0.  1.
         11    1    3    3    0    0  0.35322404350E+01 -0.11385447843E+01 -0.92496015436E+01  0.99663501691E+01  0.51100000000E-03 0. -1.
        -11    1    3    3    0    0 -0.45746367549E+00  0.25507012743E+01 -0.39935094930E+01  0.47606163821E+01  0.51100000000E-03 0.  1.
        -12    1    3    3    0    0  0.69722757574E+01  0.60274293483E+01 -0.30033011346E+02  0.31415351411E+02  0.00000000000E+00 0.  1.
</event>
<event>
 7    1  0.1538805E-008  0.4614230E+02  0.7816164E-02  0.1320468E+00
        -11   -1    0    0    0    0  0.00000000000E+00  0.00000000000E+00  0.45593999997E+02  0.45594000000E+02  0.51100000000E-03 0.  1.
         11   -1    0    0    0    0 -0.00000000000E+00 -0.00000000000E+00 -0.45593999997E+02  0.45594000000E+02  0.51100000000E-03 0. -1.
    9900012    2    1    2    0    0  0.16089424313E+02 -0.40130177916E+02 -0.12641754934E+02  0.46142304067E+02  0.99998751240E+01 0.  0.
        -12    1    1    2    0    0 -0.16089424313E+02  0.40130177916E+02  0.12641754934E+02  0.45045695933E+02  0.00000000000E+00 0.  1.
         11    1    3    3    0    0  0.30262176321E+01 -0.82291860426E+01 -0.39434849360E+01  0.96139778335E+01  0.51100000000E-03 0. -1.
        -11    1    3    3    0    0  0.91558272455E+01 -0.24196535115E+02 -0.10108001678E+02  0.27775406069E+02  0.51100000000E-03 0.  1.
        -12    1    3    3    0    0  0.39073794355E+01 -0.77044567587E+01  0.14097316799E+01  0.87529201646E+01  0.00000000000E+00 0.  1.
</event>
<event>
 7    1  0.1538805E-008  0.4614232E+02  0.7816164E-02  0.1320468E+00
        -11   -1    0    0    0    0  0.00000000000E+00  0.00000000000E+00  0.45593999997E+02  0.45594000000E+02  0.51100000000E-03 0.  1.
         11   -1    0    0    0    0 -0.00000000000E+00 -0.00000000000E+00 -0.45593999997E+02  0.45594000000E+02  0.51100000000E-03 0. -1.
    9900012    2    1    2    0    0  0.37354433707E+02  0.64143687464E+01 -0.24343698693E+02  0.46142317520E+02  0.99999978053E+01 0.  0.
        -12    1    1    2    0    0 -0.37354433707E+02 -0.64143687464E+01  0.24343698693E+02  0.45045682480E+02  0.00000000000E+00 0.  1.
         11    1    3    3    0    0  0.10532380126E+02 -0.15270840560E+00 -0.96182668626E+01  0.14264130141E+02  0.51100000000E-03 0. -1.
        -11    1    3    3    0    0  0.76825877037E+01  0.13081168423E+01 -0.12636192097E+01  0.78949387120E+01  0.51100000000E-03 0.  1.
        -12    1    3    3    0    0  0.19139465877E+02  0.52589603097E+01 -0.13461812621E+02  0.23983248668E+02  0.00000000000E+00 0.  1.
</event>
<event>
 7    1  0.1538805E-008  0.4614232E+02  0.7816164E-02  0.1320468E+00
        -11   -1    0    0    0    0  0.00000000000E+00  0.00000000000E+00  0.45593999997E+02  0.45594000000E+02  0.51100000000E-03 0.  1.
         11   -1    0    0    0    0 -0.00000000000E+00 -0.00000000000E+00 -0.45593999997E+02  0.45594000000E+02  0.51100000000E-03 0. -1.
    9900012    2    1    2    0    0  0.14481415893E+02 -0.31142914233E+02 -0.29146542816E+02  0.46142317950E+02  0.10000001725E+02 0.  0.
        -12    1    1    2    0    0 -0.14481415893E+02  0.31142914233E+02  0.29146542816E+02  0.45045682050E+02  0.00000000000E+00 0.  1.
         11    1    3    3    0    0  0.20827038341E+01 -0.49543108699E+01 -0.57196725596E+01  0.78484078581E+01  0.51100000000E-03 0. -1.
        -11    1    3    3    0    0  0.67958622979E+01 -0.22610783081E+02 -0.17510796739E+02  0.29394884905E+02  0.51100000000E-03 0.  1.
        -12    1    3    3    0    0  0.56028497610E+01 -0.35778202828E+01 -0.59160735172E+01  0.88990251871E+01  0.00000000000E+00 0.  1.
</event>
<event>
 7    1  0.1538805E-008  0.4614232E+02  0.7816164E-02  0.1320468E+00
        -11   -1    0    0    0    0  0.00000000000E+00  0.00000000000E+00  0.45593999997E+02  0.45594000000E+02  0.51100000000E-03 0.  1.
         11   -1    0    0    0    0 -0.00000000000E+00 -0.00000000000E+00 -0.45593999997E+02  0.45594000000E+02  0.51100000000E-03 0. -1.
    9900012    2    1    2    0    0  0.40959833636E+01 -0.44457333826E+02  0.59901377640E+01  0.46142319175E+02  0.10000012889E+02 0.  0.
        -12    1    1    2    0    0 -0.40959833636E+01  0.44457333826E+02 -0.59901377640E+01  0.45045680825E+02  0.00000000000E+00 0.  1.
         11    1    3    3    0    0  0.26773394913E+01 -0.21859875550E+02  0.12530345573E+00  0.22023578433E+02  0.51100000000E-03 0. -1.
        -11    1    3    3    0    0  0.53057096676E+00 -0.38857559762E-01  0.83351385562E+00  0.98881801629E+00  0.51100000000E-03 0.  1.
        -12    1    3    3    0    0  0.88807290553E+00 -0.22558600716E+02  0.50313204527E+01  0.23129922725E+02  0.00000000000E+00 0.  1.
</event>
<event>
 7    1  0.1538805E-008  0.4614232E+02  0.7816164E-02  0.1320468E+00
        -11   -1    0    0    0    0  0.00000000000E+00  0.00000000000E+00  0.45593999997E+02  0.45594000000E+02  0.51100000000E-03 0.  1.
         11   -1    0    0    0    0 -0.00000000000E+00 -0.00000000000E+00 -0.45593999997E+02  0.45594000000E+02  0.51100000000E-03 0. -1.
    9900012    2    1    2    0    0 -0.46495738639E+00 -0.35414350906E+02 -0.27833812438E+02  0.46142317074E+02  0.99999937308E+01 0.  0.
        -12    1    1    2    0    0  0.46495738639E+00  0.35414350906E+02  0.27833812438E+02  0.45045682926E+02  0.00000000000E+00 0.  1.
         11    1    3    3    0    0  0.98700014814E+00 -0.22239251743E+02 -0.20597397647E+02  0.30328390618E+02  0.51100000000E-03 0. -1.
        -11    1    3    3    0    0  0.10370714429E+00 -0.95108160590E+01 -0.29368667784E+01  0.99544745725E+01  0.51100000000E-03 0.  1.
        -12    1    3    3    0    0 -0.15556646788E+01 -0.36642831047E+01 -0.42995480124E+01  0.58594518835E+01  0.00000000000E+00 0.  1.
</event>
<event>
 7    1  0.1538805E-008  0.4614231E+02  0.7816164E-02  0.1320468E+00
        -11   -1    0    0    0    0  0.00000000000E+00  0.00000000000E+00  0.45593999997E+02  0.45594000000E+02  0.51100000000E-03 0. -1.
         11   -1    0    0    0    0 -0.00000000000E+00 -0.00000000000E+00 -0.45593999997E+02  0.45594000000E+02  0.51100000000E-03 0.  1.
    9900012    2    1    2    0    0  0.12184073890E+02  0.68452603659E+01  0.42822949022E+02  0.46142309762E+02  0.99999270593E+01 0.  0.
        -12    1    1    2    0    0 -0.12184073890E+02 -0.68452603659E+01 -0.42822949022E+02  0.45045690238E+02  0.00000000000E+00 0.  1.
         11    1    3    3    0    0  0.12309679555E+02  0.77779315075E+01  0.32635623460E+02  0.35736652727E+02  0.51100000000E-03 0. -1.
        -11    1    3    3    0    0 -0.61250788129E+00  0.34506804416E+00  0.46021785194E+01  0.46555649760E+01  0.51100000000E-03 0.  1.
         12    1    3    3    0    0  0.48690221684E+00 -0.12777391857E+01  0.55851470428E+01  0.57500920589E+01  0.00000000000E+00 0. -1.
</event>
<event>
 7    1  0.1538805E-008  0.4614232E+02  0.7816164E-02  0.1320468E+00
        -11   -1    0    0    0    0  0.00000000000E+00  0.00000000000E+00  0.45593999997E+02  0.45594000000E+02  0.51100000000E-03 0.  1.
         11   -1    0    0    0    0 -0.00000000000E+00 -0.00000000000E+00 -0.45593999997E+02  0.45594000000E+02  0.51100000000E-03 0. -1.
    9900012    2    1    2    0    0 -0.21864931918E+02 -0.27064687210E+02 -0.28610150538E+02  0.46142320347E+02  0.10000023584E+02 0.  0.
        -12    1    1    2    0    0  0.21864931918E+02  0.27064687210E+02  0.28610150538E+02  0.45045679653E+02  0.00000000000E+00 0.  1.
         11    1    3    3    0    0 -0.13342595817E+02 -0.10130163677E+02 -0.12085373488E+02  0.20656750274E+02  0.51100000000E-03 0. -1.
        -11    1    3    3    0    0 -0.40430554416E+01 -0.11313523944E+02 -0.12066419223E+02  0.17027642070E+02  0.51100000000E-03 0.  1.
        -12    1    3    3    0    0 -0.44792806597E+01 -0.56209995887E+01 -0.44583578270E+01  0.84579280038E+01  0.00000000000E+00 0.  1.
</event>
<event>
 7    1  0.1538805E-008  0.4614232E+02  0.7816164E-02  0.1320468E+00
        -11   -1    0    0    0    0  0.00000000000E+00  0.00000000000E+00  0.45593999997E+02  0.45594000000E+02  0.51100000000E-03 0. -1.
         11   -1    0    0    0    0 -0.00000000000E+00 -0.00000000000E+00 -0.45593999997E+02  0.45594000000E+02  0.51100000000E-03 0.  1.
    9900012    2    1    2    0    0  0.58639657358E+01  0.23460701561E+02  0.38004247054E+02  0.46142318675E+02  0.10000008336E+02 0.  0.
        -12    1    1    2    0    0 -0.58639657358E+01 -0.23460701561E+02 -0.38004247054E+02  0.45045681325E+02  0.00000000000E+00 0.  1.
         11    1    3    3    0    0  0.11331729639E+01  0.62725919487E+01  0.83833231810E+01  0.10531362616E+02  0.51100000000E-03 0. -1.
        -11    1    3    3    0    0  0.43556630121E+01  0.99580958695E+01  0.24319192293E+02  0.26637540946E+02  0.51100000000E-03 0.  1.
        -12    1    3    3    0    0  0.37512975991E+00  0.72300137425E+01  0.53017315803E+01  0.89734151137E+01  0.00000000000E+00 0.  1.
</event>
<event>
 7    1  0.1538805E-008  0.4614232E+02  0.7816164E-02  0.1320468E+00
        -11   -1    0    0    0    0  0.00000000000E+00  0.00000000000E+00  0.45593999997E+02  0.45594000000E+02  0.51100000000E-03 0.  1.
         11   -1    0    0    0    0 -0.00000000000E+00 -0.00000000000E+00 -0.45593999997E+02  0.45594000000E+02  0.51100000000E-03 0. -1.
    9900012    2    1    2    0    0 -0.31132381026E+02 -0.22313610359E+02 -0.23706350446E+02  0.46142318663E+02  0.10000008227E+02 0.  0.
        -12    1    1    2    0    0  0.31132381026E+02  0.22313610359E+02  0.23706350446E+02  0.45045681337E+02  0.00000000000E+00 0.  1.
         11    1    3    3    0    0 -0.99893534862E+01 -0.93774029180E+01 -0.12913037142E+02  0.18827357676E+02  0.51100000000E-03 0.  1.
        -11    1    3    3    0    0 -0.11086653575E+02 -0.90480742422E+01 -0.61736795048E+01  0.15585116422E+02  0.51100000000E-03 0. -1.
         12    1    3    3    0    0 -0.10056373965E+02 -0.38881331987E+01 -0.46196337986E+01  0.11729844566E+02  0.00000000000E+00 0. -1.
</event>
<event>
 7    1  0.1785210E-008  0.4614232E+02  0.7816164E-02  0.1320468E+00
        -11   -1    0    0    0    0  0.00000000000E+00  0.00000000000E+00  0.45593999997E+02  0.45594000000E+02  0.51100000000E-03 0.  1.
         11   -1    0    0    0    0 -0.00000000000E+00 -0.00000000000E+00 -0.45593999997E+02  0.45594000000E+02  0.51100000000E-03 0. -1.
    9900012    2    1    2    0    0 -0.16509669508E+02  0.40725609871E+02 -0.98979290649E+01  0.46142317783E+02  0.10000000197E+02 0.  0.
        -12    1    1    2    0    0  0.16509669508E+02 -0.40725609871E+02  0.98979290649E+01  0.45045682217E+02  0.00000000000E+00 0.  1.
         11    1    3    3    0    0 -0.17042125716E+02  0.35041157150E+02 -0.76126273299E+01  0.39702252310E+02  0.51100000000E-03 0. -1.
        -11    1    3    3    0    0  0.42785811822E+00  0.10504867023E+00 -0.16721551535E+00  0.47123145283E+00  0.51100000000E-03 0.  1.
         12    1    3    3    0    0  0.10459809013E+00  0.55794040513E+01 -0.21180862196E+01  0.59688340203E+01  0.00000000000E+00 0. -1.
</event>
<event>
 7    1  0.1538805E-008  0.4614232E+02  0.7816164E-02  0.1320468E+00
        -11   -1    0    0    0    0  0.00000000000E+00  0.00000000000E+00  0.45593999997E+02  0.45594000000E+02  0.51100000000E-03 0. -1.
         11   -1    0    0    0    0 -0.00000000000E+00 -0.00000000000E+00 -0.45593999997E+02  0.45594000000E+02  0.51100000000E-03 0.  1.
    9900012    2    1    2    0    0 -0.84174587289E+00 -0.52658368436E+01  0.44728916144E+02  0.46142317485E+02  0.99999974864E+01 0.  0.
        -12    1    1    2    0    0  0.84174587289E+00  0.52658368436E+01 -0.44728916144E+02  0.45045682515E+02  0.00000000000E+00 0.  1.
         11    1    3    3    0    0 -0.14645590533E+00 -0.43750684308E+01  0.13543786179E+02  0.14233650882E+02  0.51100000000E-03 0. -1.
        -11    1    3    3    0    0 -0.29659166886E+01  0.16010519817E+01  0.16648983878E+02  0.16986721099E+02  0.51100000000E-03 0.  1.
        -12    1    3    3    0    0  0.22706267210E+01 -0.24918203945E+01  0.14536146087E+02  0.14921945504E+02  0.00000000000E+00 0.  1.
</event>
<event>
 7    1  0.1538805E-008  0.4614231E+02  0.7816164E-02  0.1320468E+00
        -11   -1    0    0    0    0  0.00000000000E+00  0.00000000000E+00  0.45593999997E+02  0.45594000000E+02  0.51100000000E-03 0.  1.
         11   -1    0    0    0    0 -0.00000000000E+00 -0.00000000000E+00 -0.45593999997E+02  0.45594000000E+02  0.51100000000E-03 0. -1.
    9900012    2    1    2    0    0 -0.34772099422E+01 -0.31790336291E+02 -0.31723768208E+02  0.46142312751E+02  0.99999543123E+01 0.  0.
        -12    1    1    2    0    0  0.34772099422E+01  0.31790336291E+02  0.31723768208E+02  0.45045687249E+02  0.00000000000E+00 0.  1.
         11    1    3    3    0    0 -0.45973351327E+01 -0.19851942745E+02 -0.21360578559E+02  0.29521338684E+02  0.51100000000E-03 0. -1.
        -11    1    3    3    0    0  0.19257105079E+01 -0.46958766366E+01 -0.68655345455E+01  0.85378676028E+01  0.51100000000E-03 0.  1.
         12    1    3    3    0    0 -0.80558531737E+00 -0.72425169095E+01 -0.34976551029E+01  0.80831064639E+01  0.00000000000E+00 0. -1.
</event>
<event>
 7    1  0.1538805E-008  0.4614232E+02  0.7816164E-02  0.1320468E+00
        -11   -1    0    0    0    0  0.00000000000E+00  0.00000000000E+00  0.45593999997E+02  0.45594000000E+02  0.51100000000E-03 0. -1.
         11   -1    0    0    0    0 -0.00000000000E+00 -0.00000000000E+00 -0.45593999997E+02  0.45594000000E+02  0.51100000000E-03 0.  1.
    9900012    2    1    2    0    0 -0.14618196672E+02 -0.38490284991E+02  0.18273472214E+02  0.46142317639E+02  0.99999988853E+01 0.  0.
        -12    1    1    2    0    0  0.14618196672E+02  0.38490284991E+02 -0.18273472214E+02  0.45045682361E+02  0.00000000000E+00 0.  1.
         11    1    3    3    0    0 -0.98116874323E+01 -0.21259959841E+02  0.11605365471E+02  0.26133113298E+02  0.51100000000E-03 0. -1.
        -11    1    3    3    0    0 -0.30119614225E+01 -0.26047546055E+01  0.42045470337E+00  0.40041778912E+01  0.51100000000E-03 0.  1.
        -12    1    3    3    0    0 -0.17945478168E+01 -0.14625570545E+02  0.62476520397E+01  0.16005026449E+02  0.00000000000E+00 0.  1.
</event>
<event>
 7    1  0.1538805E-008  0.4614232E+02  0.7816164E-02  0.1320468E+00
        -11   -1    0    0    0    0  0.00000000000E+00  0.00000000000E+00  0.45593999997E+02  0.45594000000E+02  0.51100000000E-03 0.  1.
         11   -1    0    0    0    0 -0.00000000000E+00 -0.00000000000E+00 -0.45593999997E+02  0.45594000000E+02  0.51100000000E-03 0. -1.
    9900012    2    1    2    0    0 -0.16987720223E+02  0.40712952952E+02 -0.91096770553E+01  0.46142318825E+02  0.10000009700E+02 0.  0.
        -12    1    1    2    0    0  0.16987720223E+02 -0.40712952952E+02  0.91096770553E+01  0.45045681175E+02  0.00000000000E+00 0.  1.
         11    1    3    3    0    0 -0.11188528669E+02  0.16390208726E+02 -0.34335799615E+01  0.20139801079E+02  0.51100000000E-03 0. -1.
        -11    1    3    3    0    0 -0.30026344056E+01  0.18616262175E+02 -0.55102739375E+01  0.19645461305E+02  0.51100000000E-03 0.  1.
        -12    1    3    3    0    0 -0.27965571484E+01  0.57064820511E+01 -0.16582315629E+00  0.63570564417E+01  0.00000000000E+00 0.  1.
</event>
<event>
 7    1  0.1538805E-008  0.4614232E+02  0.7816164E-02  0.1320468E+00
        -11   -1    0    0    0    0  0.00000000000E+00  0.00000000000E+00  0.45593999997E+02  0.45594000000E+02  0.51100000000E-03 0.  1.
         11   -1    0    0    0    0 -0.00000000000E+00 -0.00000000000E+00 -0.45593999997E+02  0.45594000000E+02  0.51100000000E-03 0. -1.
    9900012    2    1    2    0    0 -0.28181249031E+02  0.23663630726E+02 -0.25980053610E+02  0.46142318723E+02  0.10000008776E+02 0.  0.
        -12    1    1    2    0    0  0.28181249031E+02 -0.23663630726E+02  0.25980053610E+02  0.45045681277E+02  0.00000000000E+00 0.  1.
         11    1    3    3    0    0 -0.10531346738E+02  0.56038757926E+01 -0.11022915900E+02  0.16242455578E+02  0.51100000000E-03 0. -1.
        -11    1    3    3    0    0 -0.20334915046E+01  0.16138656341E+00 -0.52711857194E+00  0.21068904984E+01  0.51100000000E-03 0.  1.
         12    1    3    3    0    0 -0.15616410788E+02  0.17898368370E+02 -0.14430019139E+02  0.27792972647E+02  0.00000000000E+00 0. -1.
</event>
<event>
 7    1  0.1538805E-008  0.4614232E+02  0.7816164E-02  0.1320468E+00
        -11   -1    0    0    0    0  0.00000000000E+00  0.00000000000E+00  0.45593999997E+02  0.45594000000E+02  0.51100000000E-03 0.  1.
         11   -1    0    0    0    0 -0.00000000000E+00 -0.00000000000E+00 -0.45593999997E+02  0.45594000000E+02  0.51100000000E-03 0. -1.
    9900012    2    1    2    0    0 -0.24049128898E+02 -0.35972924326E+02 -0.12518048624E+02  0.46142318446E+02  0.10000006245E+02 0.  0.
        -12    1    1    2    0    0  0.24049128898E+02  0.35972924326E+02  0.12518048624E+02  0.45045681554E+02  0.00000000000E+00 0.  1.
         11    1    3    3    0    0 -0.14469111936E+02 -0.23288684312E+02 -0.11748314395E+02  0.29828525082E+02  0.51100000000E-03 0. -1.
        -11    1    3    3    0    0 -0.54937449686E+01 -0.44069237135E+01  0.84016863390E-01  0.70433848035E+01  0.51100000000E-03 0.  1.
         12    1    3    3    0    0 -0.40862719934E+01 -0.82773163009E+01 -0.85375109258E+00  0.92704085604E+01  0.00000000000E+00 0. -1.
</event>
<event>
 7    1  0.1538805E-008  0.4614232E+02  0.7816164E-02  0.1320468E+00
        -11   -1    0    0    0    0  0.00000000000E+00  0.00000000000E+00  0.45593999997E+02  0.45594000000E+02  0.51100000000E-03 0.  1.
         11   -1    0    0    0    0 -0.00000000000E+00 -0.00000000000E+00 -0.45593999997E+02  0.45594000000E+02  0.51100000000E-03 0. -1.
    9900012    2    1    2    0    0  0.32740614289E+02 -0.30454496294E+02 -0.54487797619E+01  0.46142319081E+02  0.10000012037E+02 0.  0.
        -12    1    1    2    0    0 -0.32740614289E+02  0.30454496294E+02  0.54487797619E+01  0.45045680919E+02  0.00000000000E+00 0.  1.
         11    1    3    3    0    0  0.27779280716E+02 -0.29306589863E+02 -0.32909588193E+01  0.40514134036E+02  0.51100000000E-03 0. -1.
        -11    1    3    3    0    0  0.32580731032E+01 -0.94893378952E+00 -0.92836442233E+00  0.35181495767E+01  0.51100000000E-03 0.  1.
         12    1    3    3    0    0  0.17032604701E+01 -0.19897264124E+00 -0.12294565203E+01  0.21100354680E+01  0.00000000000E+00 0. -1.
</event>
<event>
 7    1  0.1538805E-008  0.4614232E+02  0.7816164E-02  0.1320468E+00
        -11   -1    0    0    0    0  0.00000000000E+00  0.00000000000E+00  0.45593999997E+02  0.45594000000E+02  0.51100000000E-03 0.  1.
         11   -1    0    0    0    0 -0.00000000000E+00 -0.00000000000E+00 -0.45593999997E+02  0.45594000000E+02  0.51100000000E-03 0. -1.
    9900012    2    1    2    0    0  0.33076778376E+02  0.17883581201E+02 -0.24803582849E+02  0.46142318005E+02  0.10000002220E+02 0.  0.
        -12    1    1    2    0    0 -0.33076778376E+02 -0.17883581201E+02  0.24803582849E+02  0.45045681995E+02  0.00000000000E+00 0.  1.
         11    1    3    3    0    0  0.10427446982E+02  0.13475514326E+01 -0.58746897680E+01  0.12044065990E+02  0.51100000000E-03 0. -1.
        -11    1    3    3    0    0  0.73559456020E+01  0.32950015686E+01 -0.43134527916E+01  0.91418185436E+01  0.51100000000E-03 0.  1.
         12    1    3    3    0    0  0.15293385791E+02  0.13241028200E+02 -0.14615440289E+02  0.24956433471E+02  0.00000000000E+00 0. -1.
</event>
<event>
 7    1  0.1538805E-008  0.4614232E+02  0.7816164E-02  0.1320468E+00
        -11   -1    0    0    0    0  0.00000000000E+00  0.00000000000E+00  0.45593999997E+02  0.45594000000E+02  0.51100000000E-03 0.  1.
         11   -1    0    0    0    0 -0.00000000000E+00 -0.00000000000E+00 -0.45593999997E+02  0.45594000000E+02  0.51100000000E-03 0. -1.
    9900012    2    1    2    0    0  0.31874550681E+02  0.29231365524E+02 -0.12595779324E+02  0.46142319094E+02  0.10000012153E+02 0.  0.
        -12    1    1    2    0    0 -0.31874550681E+02 -0.29231365524E+02  0.12595779324E+02  0.45045680906E+02  0.00000000000E+00 0.  1.
         11    1    3    3    0    0  0.13259511063E+02  0.97205413687E+01 -0.88277373539E+01  0.18660988859E+02  0.51100000000E-03 0. -1.
        -11    1    3    3    0    0  0.32025829773E+01  0.49708530071E+01 -0.18983662308E+01  0.62104518315E+01  0.51100000000E-03 0.  1.
         12    1    3    3    0    0  0.15412456640E+02  0.14539971148E+02 -0.18696757395E+01  0.21270878403E+02  0.00000000000E+00 0. -1.
</event>
<event>
 7    1  0.1538805E-008  0.4614232E+02  0.7816164E-02  0.1320468E+00
        -11   -1    0    0    0    0  0.00000000000E+00  0.00000000000E+00  0.45593999997E+02  0.45594000000E+02  0.51100000000E-03 0.  1.
         11   -1    0    0    0    0 -0.00000000000E+00 -0.00000000000E+00 -0.45593999997E+02  0.45594000000E+02  0.51100000000E-03 0. -1.
    9900012    2    1    2    0    0  0.30919287428E+02  0.98002593395E+01 -0.31258055062E+02  0.46142318470E+02  0.10000006467E+02 0.  0.
        -12    1    1    2    0    0 -0.30919287428E+02 -0.98002593395E+01  0.31258055062E+02  0.45045681530E+02  0.00000000000E+00 0.  1.
         11    1    3    3    0    0  0.15790653467E+02  0.26443358496E+01 -0.19571241087E+02  0.25285781122E+02  0.51100000000E-03 0. -1.
        -11    1    3    3    0    0  0.14245453299E+02  0.54839158838E+01 -0.95620020599E+01  0.18012166910E+02  0.51100000000E-03 0.  1.
         12    1    3    3    0    0  0.88318066204E+00  0.16720076061E+01 -0.21248119154E+01  0.28443704387E+01  0.00000000000E+00 0. -1.
</event>
<event>
 7    1  0.1538805E-008  0.4614232E+02  0.7816164E-02  0.1320468E+00
        -11   -1    0    0    0    0  0.00000000000E+00  0.00000000000E+00  0.45593999997E+02  0.45594000000E+02  0.51100000000E-03 0.  1.
         11   -1    0    0    0    0 -0.00000000000E+00 -0.00000000000E+00 -0.45593999997E+02  0.45594000000E+02  0.51100000000E-03 0. -1.
    9900012    2    1    2    0    0  0.20699803836E+02 -0.34412670373E+02 -0.20405872329E+02  0.46142318891E+02  0.10000010302E+02 0.  0.
        -12    1    1    2    0    0 -0.20699803836E+02  0.34412670373E+02  0.20405872329E+02  0.45045681109E+02  0.00000000000E+00 0.  1.
         11    1    3    3    0    0  0.12769939201E+02 -0.16159487332E+02 -0.10441588049E+02  0.23091711485E+02  0.51100000000E-03 0. -1.
        -11    1    3    3    0    0  0.10591862676E+01 -0.79296821573E+01 -0.17897351800E+01  0.81978586802E+01  0.51100000000E-03 0.  1.
        -12    1    3    3    0    0  0.68706783674E+01 -0.10323500883E+02 -0.81745491004E+01  0.14852748726E+02  0.00000000000E+00 0.  1.
</event>
<event>
 7    1  0.1538805E-008  0.4614232E+02  0.7816164E-02  0.1320468E+00
        -11   -1    0    0    0    0  0.00000000000E+00  0.00000000000E+00  0.45593999997E+02  0.45594000000E+02  0.51100000000E-03 0. -1.
         11   -1    0    0    0    0 -0.00000000000E+00 -0.00000000000E+00 -0.45593999997E+02  0.45594000000E+02  0.51100000000E-03 0.  1.
    9900012    2    1    2    0    0 -0.11469422073E+02  0.38175942827E+02 -0.20980069203E+02  0.46142316998E+02  0.99999930391E+01 0.  0.
        -12    1    1    2    0    0  0.11469422073E+02 -0.38175942827E+02  0.20980069203E+02  0.45045683002E+02  0.00000000000E+00 0.  1.
         11    1    3    3    0    0 -0.24309748318E+00  0.71220455835E+00 -0.17603378602E+01  0.19144506686E+01  0.51100000000E-03 0.  1.
        -11    1    3    3    0    0 -0.49560466817E+01  0.18570562501E+02 -0.13593080869E+02  0.23541453610E+02  0.51100000000E-03 0. -1.
         12    1    3    3    0    0 -0.62702779077E+01  0.18893175768E+02 -0.56266504732E+01  0.20686412719E+02  0.00000000000E+00 0. -1.
</event>
<event>
 7    1  0.1538805E-008  0.4614232E+02  0.7816164E-02  0.1320468E+00
        -11   -1    0    0    0    0  0.00000000000E+00  0.00000000000E+00  0.45593999997E+02  0.45594000000E+02  0.51100000000E-03 0.  1.
         11   -1    0    0    0    0 -0.00000000000E+00 -0.00000000000E+00 -0.45593999997E+02  0.45594000000E+02  0.51100000000E-03 0. -1.
    9900012    2    1    2    0    0  0.30511803010E+02 -0.10689951067E+02 -0.31366673042E+02  0.46142319248E+02  0.10000013557E+02 0.  0.
        -12    1    1    2    0    0 -0.30511803010E+02  0.10689951067E+02  0.31366673042E+02  0.45045680752E+02  0.00000000000E+00 0.  1.
         11    1    3    3    0    0  0.59902863262E+01 -0.35083481509E+01 -0.11638529059E+02  0.13551656575E+02  0.51100000000E-03 0.  1.
        -11    1    3    3    0    0  0.13786607432E+02 -0.63317460716E+01 -0.11723898193E+02  0.19173193315E+02  0.51100000000E-03 0. -1.
        -12    1    3    3    0    0  0.10734909251E+02 -0.84985684428E+00 -0.80042457903E+01  0.13417469358E+02  0.00000000000E+00 0.  1.
</event>
<event>
 7    1  0.1538805E-008  0.4614232E+02  0.7816164E-02  0.1320468E+00
        -11   -1    0    0    0    0  0.00000000000E+00  0.00000000000E+00  0.45593999997E+02  0.45594000000E+02  0.51100000000E-03 0. -1.
         11   -1    0    0    0    0 -0.00000000000E+00 -0.00000000000E+00 -0.45593999997E+02  0.45594000000E+02  0.51100000000E-03 0.  1.
    9900012    2    1    2    0    0 -0.39012699205E+01 -0.44403103645E+02 -0.65006124766E+01  0.46142317822E+02  0.10000000559E+02 0.  0.
        -12    1    1    2    0    0  0.39012699205E+01  0.44403103645E+02  0.65006124766E+01  0.45045682178E+02  0.00000000000E+00 0.  1.
         11    1    3    3    0    0 -0.31859553175E+00 -0.63334031141E+01  0.11877171905E+01  0.64516796653E+01  0.51100000000E-03 0. -1.
        -11    1    3    3    0    0 -0.56373728428E+01 -0.20909936790E+02 -0.42872808275E+01  0.22076825095E+02  0.51100000000E-03 0.  1.
        -12    1    3    3    0    0  0.20546984541E+01 -0.17159763741E+02 -0.34010488395E+01  0.17613813062E+02  0.00000000000E+00 0.  1.
</event>
<event>
 7    1  0.1538805E-008  0.4614232E+02  0.7816164E-02  0.1320468E+00
        -11   -1    0    0    0    0  0.00000000000E+00  0.00000000000E+00  0.45593999997E+02  0.45594000000E+02  0.51100000000E-03 0. -1.
         11   -1    0    0    0    0 -0.00000000000E+00 -0.00000000000E+00 -0.45593999997E+02  0.45594000000E+02  0.51100000000E-03 0.  1.
    9900012    2    1    2    0    0  0.84632637689E+01  0.43562636713E+02 -0.77319700012E+01  0.46142317509E+02  0.99999977015E+01 0.  0.
        -12    1    1    2    0    0 -0.84632637689E+01 -0.43562636713E+02  0.77319700012E+01  0.45045682491E+02  0.00000000000E+00 0.  1.
         11    1    3    3    0    0  0.46876934243E+01  0.13403368601E+02 -0.21772467592E+01  0.14365415525E+02  0.51100000000E-03 0. -1.
        -11    1    3    3    0    0  0.14555833775E+01  0.21351016593E+01  0.12119798517E+01  0.28541684404E+01  0.51100000000E-03 0.  1.
        -12    1    3    3    0    0  0.23199869672E+01  0.28024166452E+02 -0.67667030937E+01  0.28922733544E+02  0.00000000000E+00 0.  1.
</event>
<event>
 7    1  0.1538805E-008  0.4614232E+02  0.7816164E-02  0.1320468E+00
        -11   -1    0    0    0    0  0.00000000000E+00  0.00000000000E+00  0.45593999997E+02  0.45594000000E+02  0.51100000000E-03 0.  1.
         11   -1    0    0    0    0 -0.00000000000E+00 -0.00000000000E+00 -0.45593999997E+02  0.45594000000E+02  0.51100000000E-03 0. -1.
    9900012    2    1    2    0    0 -0.87386263779E+01  0.14010924762E+02 -0.41909951133E+02  0.46142316438E+02  0.99999879322E+01 0.  0.
        -12    1    1    2    0    0  0.87386263779E+01 -0.14010924762E+02  0.41909951133E+02  0.45045683562E+02  0.00000000000E+00 0.  1.
         11    1    3    3    0    0 -0.98535849567E+01  0.70030661716E+01 -0.23988448960E+02  0.26862273844E+02  0.51100000000E-03 0.  1.
        -11    1    3    3    0    0  0.67428569862E+00  0.53331568073E+01 -0.13739417664E+02  0.14753603653E+02  0.51100000000E-03 0. -1.
        -12    1    3    3    0    0  0.44067288018E+00  0.16747017830E+01 -0.41820845088E+01  0.45264389412E+01  0.00000000000E+00 0.  1.
</event>
<event>
 7    1  0.1538805E-008  0.4614232E+02  0.7816164E-02  0.1320468E+00
        -11   -1    0    0    0    0  0.00000000000E+00  0.00000000000E+00  0.45593999997E+02  0.45594000000E+02  0.51100000000E-03 0. -1.
         11   -1    0    0    0    0 -0.00000000000E+00 -0.00000000000E+00 -0.45593999997E+02  0.45594000000E+02  0.51100000000E-03 0.  1.
    9900012    2    1    2    0    0 -0.41669221293E+02  0.10058947407E+02  0.13842219545E+02  0.46142317987E+02  0.10000002059E+02 0.  0.
        -12    1    1    2    0    0  0.41669221293E+02 -0.10058947407E+02 -0.13842219545E+02  0.45045682013E+02  0.00000000000E+00 0.  1.
         11    1    3    3    0    0 -0.17135796693E+02  0.60714180662E+01  0.38272797566E+01  0.18578097756E+02  0.51100000000E-03 0. -1.
        -11    1    3    3    0    0 -0.16997612594E+02  0.56267116974E+01  0.78807612340E+01  0.19562339234E+02  0.51100000000E-03 0.  1.
        -12    1    3    3    0    0 -0.75358120058E+01 -0.16391823561E+01  0.21341785549E+01  0.80018809969E+01  0.00000000000E+00 0.  1.
</event>
<event>
 7    1  0.1538805E-008  0.4614232E+02  0.7816164E-02  0.1320468E+00
        -11   -1    0    0    0    0  0.00000000000E+00  0.00000000000E+00  0.45593999997E+02  0.45594000000E+02  0.51100000000E-03 0.  1.
         11   -1    0    0    0    0 -0.00000000000E+00 -0.00000000000E+00 -0.45593999997E+02  0.45594000000E+02  0.51100000000E-03 0. -1.
    9900012    2    1    2    0    0 -0.20199034758E+02 -0.44740329003E+01 -0.40013693082E+02  0.46142316415E+02  0.99999877291E+01 0.  0.
        -12    1    1    2    0    0  0.20199034758E+02  0.44740329003E+01  0.40013693082E+02  0.45045683585E+02  0.00000000000E+00 0.  1.
         11    1    3    3    0    0 -0.95743060222E+01 -0.27568096909E+01 -0.20409038485E+02  0.22711146771E+02  0.51100000000E-03 0. -1.
        -11    1    3    3    0    0 -0.74442103913E+01  0.21252996459E+01 -0.13335384064E+02  0.15419650947E+02  0.51100000000E-03 0.  1.
        -12    1    3    3    0    0 -0.31805183449E+01 -0.38425228553E+01 -0.62692705322E+01  0.80115186976E+01  0.00000000000E+00 0.  1.
</event>
<event>
 7    1  0.1538805E-008  0.4614232E+02  0.7816164E-02  0.1320468E+00
        -11   -1    0    0    0    0  0.00000000000E+00  0.00000000000E+00  0.45593999997E+02  0.45594000000E+02  0.51100000000E-03 0.  1.
         11   -1    0    0    0    0 -0.00000000000E+00 -0.00000000000E+00 -0.45593999997E+02  0.45594000000E+02  0.51100000000E-03 0. -1.
    9900012    2    1    2    0    0  0.39175842499E+01 -0.40381073480E+02 -0.19573833259E+02  0.46142317519E+02  0.99999977886E+01 0.  0.
        -12    1    1    2    0    0 -0.39175842499E+01  0.40381073480E+02  0.19573833259E+02  0.45045682481E+02  0.00000000000E+00 0.  1.
         11    1    3    3    0    0  0.16066656072E+01 -0.14633451681E+02 -0.83463089227E+01  0.16922770322E+02  0.51100000000E-03 0. -1.
        -11    1    3    3    0    0  0.32793374383E+01 -0.40013227874E+01 -0.27520776457E+01  0.58599120909E+01  0.51100000000E-03 0.  1.
        -12    1    3    3    0    0 -0.96841879562E+00 -0.21746299012E+02 -0.84754466904E+01  0.23359635106E+02  0.00000000000E+00 0.  1.
</event>
<event>
 7    1  0.1538805E-008  0.4614232E+02  0.7816164E-02  0.1320468E+00
        -11   -1    0    0    0    0  0.00000000000E+00  0.00000000000E+00  0.45593999997E+02  0.45594000000E+02  0.51100000000E-03 0.  1.
         11   -1    0    0    0    0 -0.00000000000E+00 -0.00000000000E+00 -0.45593999997E+02  0.45594000000E+02  0.51100000000E-03 0. -1.
    9900012    2    1    2    0    0  0.11251762784E+02 -0.27270971789E+02 -0.34041232699E+02  0.46142316614E+02  0.99999895395E+01 0.  0.
        -12    1    1    2    0    0 -0.11251762784E+02  0.27270971789E+02  0.34041232699E+02  0.45045683386E+02  0.00000000000E+00 0.  1.
         11    1    3    3    0    0  0.62200916017E+01 -0.48329670054E+01 -0.10340099409E+02  0.12998644762E+02  0.51100000000E-03 0. -1.
        -11    1    3    3    0    0 -0.31327546413E+00 -0.73530820083E+00 -0.10721499836E+01  0.13372828852E+01  0.51100000000E-03 0.  1.
         12    1    3    3    0    0  0.53449466468E+01 -0.21702696582E+02 -0.22628983306E+02  0.31806388966E+02  0.00000000000E+00 0. -1.
</event>
<event>
 7    1  0.1538805E-008  0.4614232E+02  0.7816164E-02  0.1320468E+00
        -11   -1    0    0    0    0  0.00000000000E+00  0.00000000000E+00  0.45593999997E+02  0.45594000000E+02  0.51100000000E-03 0.  1.
         11   -1    0    0    0    0 -0.00000000000E+00 -0.00000000000E+00 -0.45593999997E+02  0.45594000000E+02  0.51100000000E-03 0. -1.
    9900012    2    1    2    0    0 -0.61096435822E+01 -0.40141176003E+02 -0.19505685825E+02  0.46142317242E+02  0.99999952658E+01 0.  0.
        -12    1    1    2    0    0  0.61096435822E+01  0.40141176003E+02  0.19505685825E+02  0.45045682758E+02  0.00000000000E+00 0.  1.
         11    1    3    3    0    0  0.19491703817E+01 -0.84892808435E+01 -0.43712556246E+01  0.97455133479E+01  0.51100000000E-03 0. -1.
        -11    1    3    3    0    0 -0.18814861562E+01 -0.31765798216E+01 -0.31042288881E+00  0.37049982658E+01  0.51100000000E-03 0.  1.
         12    1    3    3    0    0 -0.61773278078E+01 -0.28475315338E+02 -0.14824007312E+02  0.32691805628E+02  0.00000000000E+00 0. -1.
</event>
<event>
 7    1  0.1538805E-008  0.4614232E+02  0.7816164E-02  0.1320468E+00
        -11   -1    0    0    0    0  0.00000000000E+00  0.00000000000E+00  0.45593999997E+02  0.45594000000E+02  0.51100000000E-03 0.  1.
         11   -1    0    0    0    0 -0.00000000000E+00 -0.00000000000E+00 -0.45593999997E+02  0.45594000000E+02  0.51100000000E-03 0. -1.
    9900012    2    1    2    0    0 -0.13512615101E+02 -0.49711577172E+01 -0.42682669335E+02  0.46142318325E+02  0.10000005145E+02 0.  0.
        -12    1    1    2    0    0  0.13512615101E+02  0.49711577172E+01  0.42682669335E+02  0.45045681675E+02  0.00000000000E+00 0.  1.
         11    1    3    3    0    0 -0.12149242626E+01 -0.41640874822E+01 -0.86084318283E+01  0.96395417073E+01  0.51100000000E-03 0. -1.
        -11    1    3    3    0    0 -0.11364784140E+02 -0.13088889682E+01 -0.26625736173E+02  0.28979326009E+02  0.51100000000E-03 0.  1.
        -12    1    3    3    0    0 -0.93290669842E+00  0.50181873325E+00 -0.74485013340E+01  0.75234506094E+01  0.00000000000E+00 0.  1.
</event>
<event>
 7    1  0.1538805E-008  0.4614232E+02  0.7816164E-02  0.1320468E+00
        -11   -1    0    0    0    0  0.00000000000E+00  0.00000000000E+00  0.45593999997E+02  0.45594000000E+02  0.51100000000E-03 0.  1.
         11   -1    0    0    0    0 -0.00000000000E+00 -0.00000000000E+00 -0.45593999997E+02  0.45594000000E+02  0.51100000000E-03 0. -1.
    9900012    2    1    2    0    0  0.23452675385E+02 -0.20850753076E+01 -0.38402316574E+02  0.46142318298E+02  0.10000004900E+02 0.  0.
        -12    1    1    2    0    0 -0.23452675385E+02  0.20850753076E+01  0.38402316574E+02  0.45045681702E+02  0.00000000000E+00 0.  1.
         11    1    3    3    0    0 -0.34947294417E+00  0.88919777421E+00 -0.25674920386E+01  0.27394925898E+01  0.51100000000E-03 0.  1.
        -11    1    3    3    0    0  0.49298813768E+00  0.39446470932E+00 -0.25597536653E+01  0.26364708986E+01  0.51100000000E-03 0. -1.
         12    1    3    3    0    0  0.23309160191E+02 -0.33687377911E+01 -0.33275070870E+02  0.40766354810E+02  0.00000000000E+00 0. -1.
</event>
<event>
 7    1  0.1538805E-008  0.4614232E+02  0.7816164E-02  0.1320468E+00
        -11   -1    0    0    0    0  0.00000000000E+00  0.00000000000E+00  0.45593999997E+02  0.45594000000E+02  0.51100000000E-03 0. -1.
         11   -1    0    0    0    0 -0.00000000000E+00 -0.00000000000E+00 -0.45593999997E+02  0.45594000000E+02  0.51100000000E-03 0.  1.
    9900012    2    1    2    0    0 -0.16671918979E+02  0.41843404263E+02  0.53870277219E+00  0.46142316928E+02  0.99999924019E+01 0.  0.
        -12    1    1    2    0    0  0.16671918979E+02 -0.41843404263E+02 -0.53870277219E+00  0.45045683072E+02  0.00000000000E+00 0.  1.
         11    1    3    3    0    0 -0.31826577543E+01  0.11344961710E+02  0.13642611169E+01  0.11861647239E+02  0.51100000000E-03 0. -1.
        -11    1    3    3    0    0  0.46898926878E+00  0.80993827663E+00 -0.11375580725E+01  0.14730884480E+01  0.51100000000E-03 0.  1.
        -12    1    3    3    0    0 -0.13958250493E+02  0.29688504277E+02  0.31199972777E+00  0.32807581241E+02  0.00000000000E+00 0.  1.
</event>
<event>
 7    1  0.1538805E-008  0.4614232E+02  0.7816164E-02  0.1320468E+00
        -11   -1    0    0    0    0  0.00000000000E+00  0.00000000000E+00  0.45593999997E+02  0.45594000000E+02  0.51100000000E-03 0.  1.
         11   -1    0    0    0    0 -0.00000000000E+00 -0.00000000000E+00 -0.45593999997E+02  0.45594000000E+02  0.51100000000E-03 0. -1.
    9900012    2    1    2    0    0 -0.63092156739E+00 -0.44393302614E+02 -0.76124954486E+01  0.46142318010E+02  0.10000002271E+02 0.  0.
        -12    1    1    2    0    0  0.63092156739E+00  0.44393302614E+02  0.76124954486E+01  0.45045681990E+02  0.00000000000E+00 0.  1.
         11    1    3    3    0    0 -0.18392454548E+01 -0.12100280927E+02 -0.11508885136E+01  0.12293256973E+02  0.51100000000E-03 0. -1.
        -11    1    3    3    0    0  0.25931566900E+01 -0.95419102981E+01  0.81753862673E+00  0.99217379235E+01  0.51100000000E-03 0.  1.
         12    1    3    3    0    0 -0.13848328026E+01 -0.22751111388E+02 -0.72791455617E+01  0.23927323114E+02  0.00000000000E+00 0. -1.
</event>
<event>
 7    1  0.1538805E-008  0.4614230E+02  0.7816164E-02  0.1320468E+00
        -11   -1    0    0    0    0  0.00000000000E+00  0.00000000000E+00  0.45593999997E+02  0.45594000000E+02  0.51100000000E-03 0.  1.
         11   -1    0    0    0    0 -0.00000000000E+00 -0.00000000000E+00 -0.45593999997E+02  0.45594000000E+02  0.51100000000E-03 0. -1.
    9900012    2    1    2    0    0  0.41245834776E+02 -0.14337051285E+02 -0.11060966291E+02  0.46142302079E+02  0.99998569968E+01 0.  0.
        -12    1    1    2    0    0 -0.41245834776E+02  0.14337051285E+02  0.11060966291E+02  0.45045697921E+02  0.00000000000E+00 0.  1.
         11    1    3    3    0    0  0.19250673841E+02 -0.36205287199E+01 -0.88165215059E+01  0.21480868773E+02  0.51100000000E-03 0. -1.
        -11    1    3    3    0    0  0.90576577231E+01 -0.54077756775E+01 -0.40845160383E+00  0.10557084549E+02  0.51100000000E-03 0.  1.
         12    1    3    3    0    0  0.12937503212E+02 -0.53087468878E+01 -0.18359931809E+01  0.14104348756E+02  0.00000000000E+00 0. -1.
</event>
<event>
 7    1  0.1538805E-008  0.4614232E+02  0.7816164E-02  0.1320468E+00
        -11   -1    0    0    0    0  0.00000000000E+00  0.00000000000E+00  0.45593999997E+02  0.45594000000E+02  0.51100000000E-03 0.  1.
         11   -1    0    0    0    0 -0.00000000000E+00 -0.00000000000E+00 -0.45593999997E+02  0.45594000000E+02  0.51100000000E-03 0. -1.
    9900012    2    1    2    0    0 -0.13005260633E+02  0.52546674730E+01 -0.42806135582E+02  0.46142316768E+02  0.99999909440E+01 0.  0.
        -12    1    1    2    0    0  0.13005260633E+02 -0.52546674730E+01  0.42806135582E+02  0.45045683232E+02  0.00000000000E+00 0.  1.
         11    1    3    3    0    0 -0.13099237067E+02  0.51154624254E+01 -0.38683739842E+02  0.41160535662E+02  0.51100000000E-03 0.  1.
        -11    1    3    3    0    0  0.84672265152E+00  0.49395412624E+00 -0.40265182416E+01  0.41441258835E+01  0.51100000000E-03 0. -1.
        -12    1    3    3    0    0 -0.75274621746E+00 -0.35474907863E+00 -0.95877498099E-01  0.83765522223E+00  0.00000000000E+00 0.  1.
</event>
<event>
 7    1  0.1800597E-008  0.4614232E+02  0.7816164E-02  0.1320468E+00
        -11   -1    0    0    0    0  0.00000000000E+00  0.00000000000E+00  0.45593999997E+02  0.45594000000E+02  0.51100000000E-03 0. -1.
         11   -1    0    0    0    0 -0.00000000000E+00 -0.00000000000E+00 -0.45593999997E+02  0.45594000000E+02  0.51100000000E-03 0.  1.
    9900012    2    1    2    0    0  0.33743138015E+02  0.29596333962E+02  0.38172207965E+01  0.46142317391E+02  0.99999966255E+01 0.  0.
        -12    1    1    2    0    0 -0.33743138015E+02 -0.29596333962E+02 -0.38172207965E+01  0.45045682609E+02  0.00000000000E+00 0.  1.
         11    1    3    3    0    0  0.18325305775E+02  0.18167525562E+02  0.15382639518E+01  0.25850378586E+02  0.51100000000E-03 0. -1.
        -11    1    3    3    0    0  0.76331972092E+01  0.22652388518E+01  0.22278841803E+01  0.82680393608E+01  0.51100000000E-03 0.  1.
        -12    1    3    3    0    0  0.77846350313E+01  0.91635695478E+01  0.51072664304E-01  0.12023899444E+02  0.00000000000E+00 0.  1.
</event>
<event>
 7    1  0.1538805E-008  0.4614232E+02  0.7816164E-02  0.1320468E+00
        -11   -1    0    0    0    0  0.00000000000E+00  0.00000000000E+00  0.45593999997E+02  0.45594000000E+02  0.51100000000E-03 0.  1.
         11   -1    0    0    0    0 -0.00000000000E+00 -0.00000000000E+00 -0.45593999997E+02  0.45594000000E+02  0.51100000000E-03 0. -1.
    9900012    2    1    2    0    0  0.21689758498E+02  0.34924213826E+02 -0.18411060493E+02  0.46142317815E+02  0.10000000490E+02 0.  0.
        -12    1    1    2    0    0 -0.21689758498E+02 -0.34924213826E+02  0.18411060493E+02  0.45045682185E+02  0.00000000000E+00 0.  1.
         11    1    3    3    0    0  0.12694153420E+01  0.81903907037E+01 -0.41266929925E+01  0.92586991800E+01  0.51100000000E-03 0. -1.
        -11    1    3    3    0    0  0.28069179104E+01  0.34562895231E+01 -0.38443171363E+01  0.58824739633E+01  0.51100000000E-03 0.  1.
         12    1    3    3    0    0  0.17613425246E+02  0.23277533599E+02 -0.10440050364E+02  0.31001144672E+02  0.00000000000E+00 0. -1.
</event>
<event>
 7    1  0.1538805E-008  0.4614232E+02  0.7816164E-02  0.1320468E+00
        -11   -1    0    0    0    0  0.00000000000E+00  0.00000000000E+00  0.45593999997E+02  0.45594000000E+02  0.51100000000E-03 0.  1.
         11   -1    0    0    0    0 -0.00000000000E+00 -0.00000000000E+00 -0.45593999997E+02  0.45594000000E+02  0.51100000000E-03 0. -1.
    9900012    2    1    2    0    0 -0.20681822816E+02  0.22255789065E+02 -0.33257414520E+02  0.46142316939E+02  0.99999925020E+01 0.  0.
        -12    1    1    2    0    0  0.20681822816E+02 -0.22255789065E+02  0.33257414520E+02  0.45045683061E+02  0.00000000000E+00 0.  1.
         11    1    3    3    0    0 -0.10569926501E+02  0.84025766984E+01 -0.14511949024E+02  0.19822293161E+02  0.51100000000E-03 0. -1.
        -11    1    3    3    0    0 -0.74620922452E+01  0.96814858290E+01 -0.83314098485E+01  0.14792781309E+02  0.51100000000E-03 0.  1.
        -12    1    3    3    0    0 -0.26498040694E+01  0.41717265375E+01 -0.10414055648E+02  0.11527242469E+02  0.00000000000E+00 0.  1.
</event>
<event>
 7    1  0.1538805E-008  0.4614232E+02  0.7816164E-02  0.1320468E+00
        -11   -1    0    0    0    0  0.00000000000E+00  0.00000000000E+00  0.45593999997E+02  0.45594000000E+02  0.51100000000E-03 0.  1.
         11   -1    0    0    0    0 -0.00000000000E+00 -0.00000000000E+00 -0.45593999997E+02  0.45594000000E+02  0.51100000000E-03 0. -1.
    9900012    2    1    2    0    0 -0.10004106464E+02  0.16344996782E+02 -0.40766067620E+02  0.46142319462E+02  0.10000015506E+02 0.  0.
        -12    1    1    2    0    0  0.10004106464E+02 -0.16344996782E+02  0.40766067620E+02  0.45045680538E+02  0.00000000000E+00 0.  1.
         11    1    3    3    0    0 -0.46379969344E+01  0.11555134871E+02 -0.25427764940E+02  0.28312601215E+02  0.51100000000E-03 0. -1.
        -11    1    3    3    0    0 -0.61035801018E+01  0.30700155839E+01 -0.95200051545E+01  0.11717900160E+02  0.51100000000E-03 0.  1.
         12    1    3    3    0    0  0.73747057212E+00  0.17198463279E+01 -0.58182975253E+01  0.61118180871E+01  0.00000000000E+00 0. -1.
</event>
<event>
 7    1  0.1538805E-008  0.4614232E+02  0.7816164E-02  0.1320468E+00
        -11   -1    0    0    0    0  0.00000000000E+00  0.00000000000E+00  0.45593999997E+02  0.45594000000E+02  0.51100000000E-03 0.  1.
         11   -1    0    0    0    0 -0.00000000000E+00 -0.00000000000E+00 -0.45593999997E+02  0.45594000000E+02  0.51100000000E-03 0. -1.
    9900012    2    1    2    0    0  0.37658632534E+02  0.18577967486E+02 -0.16303369332E+02  0.46142319499E+02  0.10000015843E+02 0.  0.
        -12    1    1    2    0    0 -0.37658632534E+02 -0.18577967486E+02  0.16303369332E+02  0.45045680501E+02  0.00000000000E+00 0.  1.
         11    1    3    3    0    0  0.18413385840E+02  0.10473400669E+02 -0.11767195598E+02  0.24232453284E+02  0.51100000000E-03 0. -1.
        -11    1    3    3    0    0  0.94018818659E+01  0.50551737819E+01 -0.60292760302E-01  0.10674914523E+02  0.51100000000E-03 0.  1.
        -12    1    3    3    0    0  0.98433648283E+01  0.30493930354E+01 -0.44758809736E+01  0.11234951692E+02  0.00000000000E+00 0.  1.
</event>
<event>
 7    1  0.1538805E-008  0.4614232E+02  0.7816164E-02  0.1320468E+00
        -11   -1    0    0    0    0  0.00000000000E+00  0.00000000000E+00  0.45593999997E+02  0.45594000000E+02  0.51100000000E-03 0.  1.
         11   -1    0    0    0    0 -0.00000000000E+00 -0.00000000000E+00 -0.45593999997E+02  0.45594000000E+02  0.51100000000E-03 0. -1.
    9900012    2    1    2    0    0 -0.17629388101E+02 -0.28102033995E+01 -0.41357231365E+02  0.46142321471E+02  0.10000033827E+02 0.  0.
        -12    1    1    2    0    0  0.17629388101E+02  0.28102033995E+01  0.41357231365E+02  0.45045678529E+02  0.00000000000E+00 0.  1.
         11    1    3    3    0    0 -0.17329090226E+01 -0.29333010744E+01 -0.65456785237E+01  0.73792368488E+01  0.51100000000E-03 0. -1.
        -11    1    3    3    0    0 -0.37706058032E+01 -0.10007359963E+01 -0.37992427645E+01  0.54454739465E+01  0.51100000000E-03 0.  1.
         12    1    3    3    0    0 -0.12125873275E+02  0.11238336711E+01 -0.31012310077E+02  0.33317610675E+02  0.00000000000E+00 0. -1.
</event>
<event>
 7    1  0.1538805E-008  0.4614232E+02  0.7816164E-02  0.1320468E+00
        -11   -1    0    0    0    0  0.00000000000E+00  0.00000000000E+00  0.45593999997E+02  0.45594000000E+02  0.51100000000E-03 0.  1.
         11   -1    0    0    0    0 -0.00000000000E+00 -0.00000000000E+00 -0.45593999997E+02  0.45594000000E+02  0.51100000000E-03 0. -1.
    9900012    2    1    2    0    0  0.13896597394E+02 -0.11357180286E+02 -0.41316008054E+02  0.46142317802E+02  0.10000000371E+02 0.  0.
        -12    1    1    2    0    0 -0.13896597394E+02  0.11357180286E+02  0.41316008054E+02  0.45045682198E+02  0.00000000000E+00 0.  1.
         11    1    3    3    0    0  0.76446433463E+01 -0.45913400524E+01 -0.13916970393E+02  0.16528854787E+02  0.51100000000E-03 0. -1.
        -11    1    3    3    0    0  0.54656729230E+01 -0.12414316314E+01 -0.15140578788E+02  0.16144716142E+02  0.51100000000E-03 0.  1.
        -12    1    3    3    0    0  0.78628112497E+00 -0.55244086022E+01 -0.12258458872E+02  0.13468746873E+02  0.00000000000E+00 0.  1.
</event>
<event>
 7    1  0.1538805E-008  0.4614232E+02  0.7816164E-02  0.1320468E+00
        -11   -1    0    0    0    0  0.00000000000E+00  0.00000000000E+00  0.45593999997E+02  0.45594000000E+02  0.51100000000E-03 0. -1.
         11   -1    0    0    0    0 -0.00000000000E+00 -0.00000000000E+00 -0.45593999997E+02  0.45594000000E+02  0.51100000000E-03 0.  1.
    9900012    2    1    2    0    0 -0.41777283947E+02 -0.13341032599E+02 -0.10285378817E+02  0.46142316276E+02  0.99999864549E+01 0.  0.
        -12    1    1    2    0    0  0.41777283947E+02  0.13341032599E+02  0.10285378817E+02  0.45045683724E+02  0.00000000000E+00 0.  1.
         11    1    3    3    0    0 -0.34473832272E+02 -0.12194879000E+02 -0.89367911125E+01  0.37643411388E+02  0.51100000000E-03 0. -1.
        -11    1    3    3    0    0 -0.13513529897E+01 -0.55588887611E+00  0.13015191547E+01  0.19568136642E+01  0.51100000000E-03 0.  1.
        -12    1    3    3    0    0 -0.59520986855E+01 -0.59026472346E+00 -0.26501068596E+01  0.65420912232E+01  0.00000000000E+00 0.  1.
</event>
<event>
 7    1  0.1538805E-008  0.4614232E+02  0.7816164E-02  0.1320468E+00
        -11   -1    0    0    0    0  0.00000000000E+00  0.00000000000E+00  0.45593999997E+02  0.45594000000E+02  0.51100000000E-03 0. -1.
         11   -1    0    0    0    0 -0.00000000000E+00 -0.00000000000E+00 -0.45593999997E+02  0.45594000000E+02  0.51100000000E-03 0.  1.
    9900012    2    1    2    0    0  0.77449495148E+01  0.32601527340E+02  0.30104312116E+02  0.46142318344E+02  0.10000005312E+02 0.  0.
        -12    1    1    2    0    0 -0.77449495148E+01 -0.32601527340E+02 -0.30104312116E+02  0.45045681656E+02  0.00000000000E+00 0.  1.
         11    1    3    3    0    0  0.26898292256E+01  0.11252649043E+02  0.12059596072E+02  0.16712006146E+02  0.51100000000E-03 0. -1.
        -11    1    3    3    0    0  0.61270390583E+01  0.15310535570E+02  0.98984259584E+01  0.19233614943E+02  0.51100000000E-03 0.  1.
        -12    1    3    3    0    0 -0.10719187690E+01  0.60383427279E+01  0.81462900857E+01  0.10196697255E+02  0.00000000000E+00 0.  1.
</event>
<event>
 7    1  0.1538805E-008  0.4614232E+02  0.7816164E-02  0.1320468E+00
        -11   -1    0    0    0    0  0.00000000000E+00  0.00000000000E+00  0.45593999997E+02  0.45594000000E+02  0.51100000000E-03 0.  1.
         11   -1    0    0    0    0 -0.00000000000E+00 -0.00000000000E+00 -0.45593999997E+02  0.45594000000E+02  0.51100000000E-03 0. -1.
    9900012    2    1    2    0    0  0.39964534233E+02 -0.20219620355E+02  0.48079504696E+01  0.46142318393E+02  0.10000005763E+02 0.  0.
        -12    1    1    2    0    0 -0.39964534233E+02  0.20219620355E+02 -0.48079504696E+01  0.45045681607E+02  0.00000000000E+00 0.  1.
         11    1    3    3    0    0  0.90443543787E+01 -0.81896846653E+01 -0.86567030036E+00  0.12231952680E+02  0.51100000000E-03 0. -1.
        -11    1    3    3    0    0  0.20471310148E+02 -0.61807895396E+01  0.47133189579E+01  0.21897307468E+02  0.51100000000E-03 0.  1.
         12    1    3    3    0    0  0.10448869706E+02 -0.58491461498E+01  0.96030181213E+00  0.12013058245E+02  0.00000000000E+00 0. -1.
</event>
<event>
 7    1  0.1538805E-008  0.4614232E+02  0.7816164E-02  0.1320468E+00
        -11   -1    0    0    0    0  0.00000000000E+00  0.00000000000E+00  0.45593999997E+02  0.45594000000E+02  0.51100000000E-03 0.  1.
         11   -1    0    0    0    0 -0.00000000000E+00 -0.00000000000E+00 -0.45593999997E+02  0.45594000000E+02  0.51100000000E-03 0. -1.
    9900012    2    1    2    0    0 -0.41058364761E+02 -0.16617255394E+02  0.81970096073E+01  0.46142318074E+02  0.10000002851E+02 0.  0.
        -12    1    1    2    0    0  0.41058364761E+02  0.16617255394E+02 -0.81970096073E+01  0.45045681926E+02  0.00000000000E+00 0.  1.
         11    1    3    3    0    0 -0.29225592102E+01 -0.22236637734E+01  0.29849027608E+01  0.47324071747E+01  0.51100000000E-03 0. -1.
        -11    1    3    3    0    0 -0.76277120216E+01 -0.18974507645E+01  0.28364558957E+01  0.83563025554E+01  0.51100000000E-03 0.  1.
         12    1    3    3    0    0 -0.30508093530E+02 -0.12496140856E+02  0.23756509508E+01  0.33053608344E+02  0.00000000000E+00 0. -1.
</event>
<event>
 7    1  0.1538805E-008  0.4614232E+02  0.7816164E-02  0.1320468E+00
        -11   -1    0    0    0    0  0.00000000000E+00  0.00000000000E+00  0.45593999997E+02  0.45594000000E+02  0.51100000000E-03 0. -1.
         11   -1    0    0    0    0 -0.00000000000E+00 -0.00000000000E+00 -0.45593999997E+02  0.45594000000E+02  0.51100000000E-03 0.  1.
    9900012    2    1    2    0    0 -0.42769379661E+02 -0.60748326579E+01  0.12766746147E+02  0.46142320567E+02  0.10000025584E+02 0.  0.
        -12    1    1    2    0    0  0.42769379661E+02  0.60748326579E+01 -0.12766746147E+02  0.45045679433E+02  0.00000000000E+00 0.  1.
         11    1    3    3    0    0 -0.90134583911E+01 -0.35917720910E+01  0.59190797550E+01  0.11365683628E+02  0.51100000000E-03 0. -1.
        -11    1    3    3    0    0 -0.32311602985E+02 -0.22044767064E+01  0.73718106743E+01  0.33215101955E+02  0.51100000000E-03 0.  1.
        -12    1    3    3    0    0 -0.14443182851E+01 -0.27858386042E+00 -0.52414428274E+00  0.15615349836E+01  0.00000000000E+00 0.  1.
</event>
<event>
 7    1  0.1538805E-008  0.4614232E+02  0.7816164E-02  0.1320468E+00
        -11   -1    0    0    0    0  0.00000000000E+00  0.00000000000E+00  0.45593999997E+02  0.45594000000E+02  0.51100000000E-03 0. -1.
         11   -1    0    0    0    0 -0.00000000000E+00 -0.00000000000E+00 -0.45593999997E+02  0.45594000000E+02  0.51100000000E-03 0.  1.
    9900012    2    1    2    0    0 -0.42268819106E+02 -0.58799960498E+01  0.14418240573E+02  0.46142322256E+02  0.10000040987E+02 0.  0.
        -12    1    1    2    0    0  0.42268819106E+02  0.58799960498E+01 -0.14418240573E+02  0.45045677744E+02  0.00000000000E+00 0.  1.
         11    1    3    3    0    0 -0.22142236998E+02 -0.70984575414E+01  0.99503640045E+01  0.25291826799E+02  0.51100000000E-03 0. -1.
        -11    1    3    3    0    0 -0.63968351345E+00 -0.27128309507E+00 -0.26190441561E+00  0.74255215243E+00  0.51100000000E-03 0.  1.
         12    1    3    3    0    0 -0.19486898595E+02  0.14897445866E+01  0.47297809843E+01  0.20107943304E+02  0.00000000000E+00 0. -1.
</event>
<event>
 7    1  0.1538805E-008  0.4614232E+02  0.7816164E-02  0.1320468E+00
        -11   -1    0    0    0    0  0.00000000000E+00  0.00000000000E+00  0.45593999997E+02  0.45594000000E+02  0.51100000000E-03 0.  1.
         11   -1    0    0    0    0 -0.00000000000E+00 -0.00000000000E+00 -0.45593999997E+02  0.45594000000E+02  0.51100000000E-03 0. -1.
    9900012    2    1    2    0    0  0.41517484944E+02  0.11886827430E+02  0.12810723590E+02  0.46142324722E+02  0.10000063473E+02 0.  0.
        -12    1    1    2    0    0 -0.41517484944E+02 -0.11886827430E+02 -0.12810723590E+02  0.45045675278E+02  0.00000000000E+00 0.  1.
         11    1    3    3    0    0  0.55564685147E+01  0.26487896098E+01  0.39544955896E+01  0.73163149454E+01  0.51100000000E-03 0. -1.
        -11    1    3    3    0    0  0.31726559182E+02  0.57175303677E+01  0.83149868951E+01  0.33292697673E+02  0.51100000000E-03 0.  1.
         12    1    3    3    0    0  0.42344572469E+01  0.35205074521E+01  0.54124110487E+00  0.55333121031E+01  0.00000000000E+00 0. -1.
</event>
<event>
 7    1  0.1538805E-008  0.4614232E+02  0.7816164E-02  0.1320468E+00
        -11   -1    0    0    0    0  0.00000000000E+00  0.00000000000E+00  0.45593999997E+02  0.45594000000E+02  0.51100000000E-03 0.  1.
         11   -1    0    0    0    0 -0.00000000000E+00 -0.00000000000E+00 -0.45593999997E+02  0.45594000000E+02  0.51100000000E-03 0. -1.
    9900012    2    1    2    0    0  0.30343439079E+02 -0.27314706066E+02 -0.19034075859E+02  0.46142317561E+02  0.99999981785E+01 0.  0.
        -12    1    1    2    0    0 -0.30343439079E+02  0.27314706066E+02  0.19034075859E+02  0.45045682439E+02  0.00000000000E+00 0.  1.
         11    1    3    3    0    0  0.40958460340E+01 -0.70718055989E+01 -0.63103492400E+01  0.10325061596E+02  0.51100000000E-03 0. -1.
        -11    1    3    3    0    0  0.24482772975E+02 -0.17098082350E+02 -0.11042764782E+02  0.31838549698E+02  0.51100000000E-03 0.  1.
        -12    1    3    3    0    0  0.17648200694E+01 -0.31448181171E+01 -0.16809618363E+01  0.39787062674E+01  0.00000000000E+00 0.  1.
</event>
<event>
 7    1  0.1538805E-008  0.4614232E+02  0.7816164E-02  0.1320468E+00
        -11   -1    0    0    0    0  0.00000000000E+00  0.00000000000E+00  0.45593999997E+02  0.45594000000E+02  0.51100000000E-03 0. -1.
         11   -1    0    0    0    0 -0.00000000000E+00 -0.00000000000E+00 -0.45593999997E+02  0.45594000000E+02  0.51100000000E-03 0.  1.
    9900012    2    1    2    0    0  0.36084002139E+02  0.22489519681E+02  0.14875474832E+02  0.46142318106E+02  0.10000003142E+02 0.  0.
        -12    1    1    2    0    0 -0.36084002139E+02 -0.22489519681E+02 -0.14875474832E+02  0.45045681894E+02  0.00000000000E+00 0.  1.
         11    1    3    3    0    0  0.89968690492E+01  0.12589331996E+01  0.23226826459E+01  0.93767489262E+01  0.51100000000E-03 0. -1.
        -11    1    3    3    0    0  0.15638436280E+02  0.13840399783E+02  0.85207920473E+01  0.22554849874E+02  0.51100000000E-03 0.  1.
         12    1    3    3    0    0  0.11448696810E+02  0.73901866985E+01  0.40320001384E+01  0.14210719306E+02  0.00000000000E+00 0. -1.
</event>
<event>
 7    1  0.1538805E-008  0.4614232E+02  0.7816164E-02  0.1320468E+00
        -11   -1    0    0    0    0  0.00000000000E+00  0.00000000000E+00  0.45593999997E+02  0.45594000000E+02  0.51100000000E-03 0. -1.
         11   -1    0    0    0    0 -0.00000000000E+00 -0.00000000000E+00 -0.45593999997E+02  0.45594000000E+02  0.51100000000E-03 0.  1.
    9900012    2    1    2    0    0  0.43734163479E+02  0.10267607660E+02  0.33185249935E+01  0.46142318404E+02  0.10000005863E+02 0.  0.
        -12    1    1    2    0    0 -0.43734163479E+02 -0.10267607660E+02 -0.33185249935E+01  0.45045681596E+02  0.00000000000E+00 0.  1.
         11    1    3    3    0    0  0.24309638501E+02  0.63367148311E+01  0.73877475172E+00  0.25132812562E+02  0.51100000000E-03 0.  1.
        -11    1    3    3    0    0  0.15944038841E+02  0.10508805404E+01  0.35977862859E+01  0.16378668777E+02  0.51100000000E-03 0. -1.
        -12    1    3    3    0    0  0.34804861374E+01  0.28800122889E+01 -0.10180360441E+01  0.46308370652E+01  0.00000000000E+00 0.  1.
</event>
<event>
 7    1  0.1538805E-008  0.4614232E+02  0.7816164E-02  0.1320468E+00
        -11   -1    0    0    0    0  0.00000000000E+00  0.00000000000E+00  0.45593999997E+02  0.45594000000E+02  0.51100000000E-03 0.  1.
         11   -1    0    0    0    0 -0.00000000000E+00 -0.00000000000E+00 -0.45593999997E+02  0.45594000000E+02  0.51100000000E-03 0. -1.
    9900012    2    1    2    0    0 -0.28815995499E+02  0.25846147716E+02 -0.23037546241E+02  0.46142317797E+02  0.10000000324E+02 0.  0.
        -12    1    1    2    0    0  0.28815995499E+02 -0.25846147716E+02  0.23037546241E+02  0.45045682203E+02  0.00000000000E+00 0.  1.
         11    1    3    3    0    0 -0.14898991184E+02  0.10898399062E+02 -0.12346618361E+02  0.22207972119E+02  0.51100000000E-03 0. -1.
        -11    1    3    3    0    0 -0.35647162174E+01  0.36548539589E+01  0.24558866535E+00  0.51113083673E+01  0.51100000000E-03 0.  1.
        -12    1    3    3    0    0 -0.10352288098E+02  0.11292894695E+02 -0.10936516546E+02  0.18823037311E+02  0.00000000000E+00 0.  1.
</event>
<event>
 7    1  0.1538805E-008  0.4614232E+02  0.7816164E-02  0.1320468E+00
        -11   -1    0    0    0    0  0.00000000000E+00  0.00000000000E+00  0.45593999997E+02  0.45594000000E+02  0.51100000000E-03 0.  1.
         11   -1    0    0    0    0 -0.00000000000E+00 -0.00000000000E+00 -0.45593999997E+02  0.45594000000E+02  0.51100000000E-03 0. -1.
    9900012    2    1    2    0    0  0.14345854011E+01  0.38853169073E+02 -0.22748333178E+02  0.46142318246E+02  0.10000004423E+02 0.  0.
        -12    1    1    2    0    0 -0.14345854011E+01 -0.38853169073E+02  0.22748333178E+02  0.45045681754E+02  0.00000000000E+00 0.  1.
         11    1    3    3    0    0 -0.29367123429E+01  0.20005630570E+02 -0.14579936174E+02  0.24928378868E+02  0.51100000000E-03 0. -1.
        -11    1    3    3    0    0  0.37936270835E+01  0.13124510689E+02 -0.69750340211E+01  0.15339344417E+02  0.51100000000E-03 0.  1.
         12    1    3    3    0    0  0.57767066054E+00  0.57230278137E+01 -0.11933629828E+01  0.58745949611E+01  0.00000000000E+00 0. -1.
</event>
<event>
 7    1  0.1538805E-008  0.4614232E+02  0.7816164E-02  0.1320468E+00
        -11   -1    0    0    0    0  0.00000000000E+00  0.00000000000E+00  0.45593999997E+02  0.45594000000E+02  0.51100000000E-03 0.  1.
         11   -1    0    0    0    0 -0.00000000000E+00 -0.00000000000E+00 -0.45593999997E+02  0.45594000000E+02  0.51100000000E-03 0. -1.
    9900012    2    1    2    0    0 -0.24348620730E+02 -0.72834549784E+01 -0.37191524195E+02  0.46142317412E+02  0.99999968143E+01 0.  0.
        -12    1    1    2    0    0  0.24348620730E+02  0.72834549784E+01  0.37191524195E+02  0.45045682588E+02  0.00000000000E+00 0.  1.
         11    1    3    3    0    0 -0.11217812369E+02 -0.37244472910E+01 -0.24597739054E+02  0.27290283780E+02  0.51100000000E-03 0. -1.
        -11    1    3    3    0    0 -0.87593446135E+01 -0.35780969213E+01 -0.10009203425E+02  0.13773636016E+02  0.51100000000E-03 0.  1.
        -12    1    3    3    0    0 -0.43714637474E+01  0.19089234014E-01 -0.25845817158E+01  0.50783976153E+01  0.00000000000E+00 0.  1.
</event>
<event>
 7    1  0.1538805E-008  0.4614232E+02  0.7816164E-02  0.1320468E+00
        -11   -1    0    0    0    0  0.00000000000E+00  0.00000000000E+00  0.45593999997E+02  0.45594000000E+02  0.51100000000E-03 0. -1.
         11   -1    0    0    0    0 -0.00000000000E+00 -0.00000000000E+00 -0.45593999997E+02  0.45594000000E+02  0.51100000000E-03 0.  1.
    9900012    2    1    2    0    0  0.14705705934E+02 -0.15531628036E+01  0.42549305870E+02  0.46142317280E+02  0.99999956119E+01 0.  0.
        -12    1    1    2    0    0 -0.14705705934E+02  0.15531628036E+01 -0.42549305870E+02  0.45045682720E+02  0.00000000000E+00 0.  1.
         11    1    3    3    0    0  0.11551164547E+02 -0.53606515652E+01  0.32427426161E+02  0.34838254194E+02  0.51100000000E-03 0. -1.
        -11    1    3    3    0    0  0.22071972584E+01  0.23938735273E+01  0.75254097779E+01  0.81996428452E+01  0.51100000000E-03 0.  1.
         12    1    3    3    0    0  0.94734412813E+00  0.14136152343E+01  0.25964699313E+01  0.31044202409E+01  0.00000000000E+00 0. -1.
</event>
<event>
 7    1  0.1538805E-008  0.4614232E+02  0.7816164E-02  0.1320468E+00
        -11   -1    0    0    0    0  0.00000000000E+00  0.00000000000E+00  0.45593999997E+02  0.45594000000E+02  0.51100000000E-03 0. -1.
         11   -1    0    0    0    0 -0.00000000000E+00 -0.00000000000E+00 -0.45593999997E+02  0.45594000000E+02  0.51100000000E-03 0.  1.
    9900012    2    1    2    0    0  0.22510959545E+02 -0.37629229760E+02 -0.10315566718E+02  0.46142321532E+02  0.10000034384E+02 0.  0.
        -12    1    1    2    0    0 -0.22510959545E+02  0.37629229760E+02  0.10315566718E+02  0.45045678468E+02  0.00000000000E+00 0.  1.
         11    1    3    3    0    0  0.19222876771E+01 -0.54132189056E+01 -0.21550361010E+01  0.61353328916E+01  0.51100000000E-03 0. -1.
        -11    1    3    3    0    0  0.82763188168E+01 -0.19231783304E+02 -0.69979964458E+01  0.22075572399E+02  0.51100000000E-03 0.  1.
        -12    1    3    3    0    0  0.12312353051E+02 -0.12984227550E+02 -0.11625341713E+01  0.17931416242E+02  0.00000000000E+00 0.  1.
</event>
<event>
 7    1  0.1538805E-008  0.4614232E+02  0.7816164E-02  0.1320468E+00
        -11   -1    0    0    0    0  0.00000000000E+00  0.00000000000E+00  0.45593999997E+02  0.45594000000E+02  0.51100000000E-03 0. -1.
         11   -1    0    0    0    0 -0.00000000000E+00 -0.00000000000E+00 -0.45593999997E+02  0.45594000000E+02  0.51100000000E-03 0.  1.
    9900012    2    1    2    0    0 -0.29942374359E+02 -0.16799621544E+02  0.29160595555E+02  0.46142318748E+02  0.10000009001E+02 0.  0.
        -12    1    1    2    0    0  0.29942374359E+02  0.16799621544E+02 -0.29160595555E+02  0.45045681252E+02  0.00000000000E+00 0.  1.
         11    1    3    3    0    0 -0.20734808369E+02 -0.11781726628E+02  0.23723250130E+02  0.33638281131E+02  0.51100000000E-03 0. -1.
        -11    1    3    3    0    0 -0.47804034266E+01 -0.83413813951E+00  0.38899169403E+01  0.62192843174E+01  0.51100000000E-03 0.  1.
         12    1    3    3    0    0 -0.44271625631E+01 -0.41837567764E+01  0.15474284853E+01  0.62847533000E+01  0.00000000000E+00 0. -1.
</event>
<event>
 7    1  0.1538805E-008  0.4614232E+02  0.7816164E-02  0.1320468E+00
        -11   -1    0    0    0    0  0.00000000000E+00  0.00000000000E+00  0.45593999997E+02  0.45594000000E+02  0.51100000000E-03 0.  1.
         11   -1    0    0    0    0 -0.00000000000E+00 -0.00000000000E+00 -0.45593999997E+02  0.45594000000E+02  0.51100000000E-03 0. -1.
    9900012    2    1    2    0    0 -0.66083430740E+01  0.28072335200E+02 -0.34603283978E+02  0.46142318033E+02  0.10000002482E+02 0.  0.
        -12    1    1    2    0    0  0.66083430740E+01 -0.28072335200E+02  0.34603283978E+02  0.45045681967E+02  0.00000000000E+00 0.  1.
         11    1    3    3    0    0 -0.61078725606E+01  0.10991264540E+02 -0.11975190043E+02  0.17364307652E+02  0.51100000000E-03 0.  1.
        -11    1    3    3    0    0 -0.44577330312E+00  0.13568014675E+02 -0.14191028198E+02  0.19638610379E+02  0.51100000000E-03 0. -1.
        -12    1    3    3    0    0 -0.54697210264E-01  0.35130559851E+01 -0.84370657375E+01  0.91394000021E+01  0.00000000000E+00 0.  1.
</event>
<event>
 7    1  0.1538805E-008  0.4614232E+02  0.7816164E-02  0.1320468E+00
        -11   -1    0    0    0    0  0.00000000000E+00  0.00000000000E+00  0.45593999997E+02  0.45594000000E+02  0.51100000000E-03 0.  1.
         11   -1    0    0    0    0 -0.00000000000E+00 -0.00000000000E+00 -0.45593999997E+02  0.45594000000E+02  0.51100000000E-03 0. -1.
    9900012    2    1    2    0    0 -0.33009852968E+02 -0.22925355314E+02 -0.20344313972E+02  0.46142318517E+02  0.10000006897E+02 0.  0.
        -12    1    1    2    0    0  0.33009852968E+02  0.22925355314E+02  0.20344313972E+02  0.45045681483E+02  0.00000000000E+00 0.  1.
         11    1    3    3    0    0 -0.25878469910E+01 -0.34279785388E+01 -0.21064613191E+01  0.47838445273E+01  0.51100000000E-03 0. -1.
        -11    1    3    3    0    0 -0.23966346401E+02 -0.11311053744E+02 -0.14946739925E+02  0.30425823428E+02  0.51100000000E-03 0.  1.
        -12    1    3    3    0    0 -0.64556595751E+01 -0.81863230311E+01 -0.32911127281E+01  0.10932650562E+02  0.00000000000E+00 0.  1.
</event>
<event>
 7    1  0.1538805E-008  0.4614232E+02  0.7816164E-02  0.1320468E+00
        -11   -1    0    0    0    0  0.00000000000E+00  0.00000000000E+00  0.45593999997E+02  0.45594000000E+02  0.51100000000E-03 0.  1.
         11   -1    0    0    0    0 -0.00000000000E+00 -0.00000000000E+00 -0.45593999997E+02  0.45594000000E+02  0.51100000000E-03 0. -1.
    9900012    2    1    2    0    0  0.23075408473E+02 -0.11314506262E+02 -0.36994877573E+02  0.46142317689E+02  0.99999993468E+01 0.  0.
        -12    1    1    2    0    0 -0.23075408473E+02  0.11314506262E+02  0.36994877573E+02  0.45045682311E+02  0.00000000000E+00 0.  1.
         11    1    3    3    0    0  0.53757097541E+01 -0.12508476523E+01 -0.99020010560E+01  0.11336335404E+02  0.51100000000E-03 0. -1.
        -11    1    3    3    0    0  0.64557245879E+00 -0.35278009564E+01 -0.45024497780E+01  0.57562312021E+01  0.51100000000E-03 0.  1.
        -12    1    3    3    0    0  0.17054126260E+02 -0.65358576537E+01 -0.22590426739E+02  0.29049751084E+02  0.00000000000E+00 0.  1.
</event>
<event>
 7    1  0.1538805E-008  0.4614232E+02  0.7816164E-02  0.1320468E+00
        -11   -1    0    0    0    0  0.00000000000E+00  0.00000000000E+00  0.45593999997E+02  0.45594000000E+02  0.51100000000E-03 0.  1.
         11   -1    0    0    0    0 -0.00000000000E+00 -0.00000000000E+00 -0.45593999997E+02  0.45594000000E+02  0.51100000000E-03 0. -1.
    9900012    2    1    2    0    0 -0.92807699532E+00 -0.28281917957E+02 -0.35048329348E+02  0.46142316519E+02  0.99999886690E+01 0.  0.
        -12    1    1    2    0    0  0.92807699532E+00  0.28281917957E+02  0.35048329348E+02  0.45045683481E+02  0.00000000000E+00 0.  1.
         11    1    3    3    0    0 -0.66581616624E+00 -0.13420627871E+02 -0.12771409834E+02  0.18538216555E+02  0.51100000000E-03 0. -1.
        -11    1    3    3    0    0  0.23613805604E+01 -0.31611200657E+01 -0.32395755038E+01  0.51052568914E+01  0.51100000000E-03 0.  1.
        -12    1    3    3    0    0 -0.26236413895E+01 -0.11700170020E+02 -0.19037344009E+02  0.22498843072E+02  0.00000000000E+00 0.  1.
</event>
<event>
 7    1  0.1538805E-008  0.4614232E+02  0.7816164E-02  0.1320468E+00
        -11   -1    0    0    0    0  0.00000000000E+00  0.00000000000E+00  0.45593999997E+02  0.45594000000E+02  0.51100000000E-03 0.  1.
         11   -1    0    0    0    0 -0.00000000000E+00 -0.00000000000E+00 -0.45593999997E+02  0.45594000000E+02  0.51100000000E-03 0. -1.
    9900012    2    1    2    0    0  0.98026995261E+01  0.29407160463E+02 -0.32683934769E+02  0.46142316561E+02  0.99999890531E+01 0.  0.
        -12    1    1    2    0    0 -0.98026995261E+01 -0.29407160463E+02  0.32683934769E+02  0.45045683439E+02  0.00000000000E+00 0.  1.
         11    1    3    3    0    0  0.37864343181E+01  0.95172651874E+01 -0.14612351037E+02  0.17844781438E+02  0.51100000000E-03 0.  1.
        -11    1    3    3    0    0  0.57055358344E+01  0.20230355653E+02 -0.18216063589E+02  0.27814481874E+02  0.51100000000E-03 0. -1.
        -12    1    3    3    0    0  0.31072937358E+00 -0.34046037668E+00  0.14447985649E+00  0.48305324823E+00  0.00000000000E+00 0.  1.
</event>
<event>
 7    1  0.1538805E-008  0.4614232E+02  0.7816164E-02  0.1320468E+00
        -11   -1    0    0    0    0  0.00000000000E+00  0.00000000000E+00  0.45593999997E+02  0.45594000000E+02  0.51100000000E-03 0. -1.
         11   -1    0    0    0    0 -0.00000000000E+00 -0.00000000000E+00 -0.45593999997E+02  0.45594000000E+02  0.51100000000E-03 0.  1.
    9900012    2    1    2    0    0 -0.31410156475E+01 -0.18759300732E+02  0.40833028173E+02  0.46142317265E+02  0.99999954805E+01 0.  0.
        -12    1    1    2    0    0  0.31410156475E+01  0.18759300732E+02 -0.40833028173E+02  0.45045682735E+02  0.00000000000E+00 0.  1.
         11    1    3    3    0    0 -0.25862470038E+01 -0.73980704231E+01  0.16495539754E+02  0.18262610755E+02  0.51100000000E-03 0. -1.
        -11    1    3    3    0    0 -0.43700899780E-01 -0.11602376587E+02  0.17365575918E+02  0.20884929481E+02  0.51100000000E-03 0.  1.
        -12    1    3    3    0    0 -0.51106774400E+00  0.24114627751E+00  0.69719125005E+01  0.69947770286E+01  0.00000000000E+00 0.  1.
</event>
<event>
 7    1  0.1538805E-008  0.4614232E+02  0.7816164E-02  0.1320468E+00
        -11   -1    0    0    0    0  0.00000000000E+00  0.00000000000E+00  0.45593999997E+02  0.45594000000E+02  0.51100000000E-03 0.  1.
         11   -1    0    0    0    0 -0.00000000000E+00 -0.00000000000E+00 -0.45593999997E+02  0.45594000000E+02  0.51100000000E-03 0. -1.
    9900012    2    1    2    0    0  0.31787035883E+02  0.92174621108E+01 -0.30557096981E+02  0.46142318366E+02  0.10000005518E+02 0.  0.
        -12    1    1    2    0    0 -0.31787035883E+02 -0.92174621108E+01  0.30557096981E+02  0.45045681634E+02  0.00000000000E+00 0.  1.
         11    1    3    3    0    0  0.26545040627E+02  0.91744774044E+01 -0.24699641696E+02  0.37401637901E+02  0.51100000000E-03 0. -1.
        -11    1    3    3    0    0 -0.37381427926E+00 -0.56794917584E+00 -0.12260680277E+00  0.69089512296E+00  0.51100000000E-03 0.  1.
         12    1    3    3    0    0  0.56158095353E+01  0.61093388230E+00 -0.57348484815E+01  0.80497853419E+01  0.00000000000E+00 0. -1.
</event>
<event>
 7    1  0.1538805E-008  0.4614232E+02  0.7816164E-02  0.1320468E+00
        -11   -1    0    0    0    0  0.00000000000E+00  0.00000000000E+00  0.45593999997E+02  0.45594000000E+02  0.51100000000E-03 0.  1.
         11   -1    0    0    0    0 -0.00000000000E+00 -0.00000000000E+00 -0.45593999997E+02  0.45594000000E+02  0.51100000000E-03 0. -1.
    9900012    2    1    2    0    0 -0.23382641032E+02 -0.25335673227E+02 -0.28990847178E+02  0.46142318080E+02  0.10000002910E+02 0.  0.
        -12    1    1    2    0    0  0.23382641032E+02  0.25335673227E+02  0.28990847178E+02  0.45045681920E+02  0.00000000000E+00 0.  1.
         11    1    3    3    0    0  0.80137701234E+00 -0.37333902168E+00 -0.48678354358E+00  0.10092302118E+01  0.51100000000E-03 0. -1.
        -11    1    3    3    0    0 -0.10633751442E+02 -0.10974759494E+02 -0.99528158592E+01  0.18236791370E+02  0.51100000000E-03 0.  1.
         12    1    3    3    0    0 -0.13550266602E+02 -0.13987574712E+02 -0.18551247776E+02  0.26896296498E+02  0.00000000000E+00 0. -1.
</event>
<event>
 7    1  0.1538805E-008  0.4614232E+02  0.7816164E-02  0.1320468E+00
        -11   -1    0    0    0    0  0.00000000000E+00  0.00000000000E+00  0.45593999997E+02  0.45594000000E+02  0.51100000000E-03 0.  1.
         11   -1    0    0    0    0 -0.00000000000E+00 -0.00000000000E+00 -0.45593999997E+02  0.45594000000E+02  0.51100000000E-03 0. -1.
    9900012    2    1    2    0    0  0.41560979369E+02 -0.57281557952E+01 -0.16400799890E+02  0.46142323050E+02  0.10000048224E+02 0.  0.
        -12    1    1    2    0    0 -0.41560979369E+02  0.57281557952E+01  0.16400799890E+02  0.45045676950E+02  0.00000000000E+00 0.  1.
         11    1    3    3    0    0  0.22974811363E+02 -0.14486968399E+01 -0.55312809886E+01  0.23675636197E+02  0.51100000000E-03 0. -1.
        -11    1    3    3    0    0  0.72900100210E+01 -0.91330583810E+00 -0.67600584074E+01  0.99838250982E+01  0.51100000000E-03 0.  1.
         12    1    3    3    0    0  0.11296157985E+02 -0.33661531172E+01 -0.41094604938E+01  0.12482861754E+02  0.00000000000E+00 0. -1.
</event>
<event>
 7    1  0.1538805E-008  0.4614232E+02  0.7816164E-02  0.1320468E+00
        -11   -1    0    0    0    0  0.00000000000E+00  0.00000000000E+00  0.45593999997E+02  0.45594000000E+02  0.51100000000E-03 0.  1.
         11   -1    0    0    0    0 -0.00000000000E+00 -0.00000000000E+00 -0.45593999997E+02  0.45594000000E+02  0.51100000000E-03 0. -1.
    9900012    2    1    2    0    0 -0.39469783304E+02  0.26016450446E+01  0.21551825172E+02  0.46142317418E+02  0.99999968727E+01 0.  0.
        -12    1    1    2    0    0  0.39469783304E+02 -0.26016450446E+01 -0.21551825172E+02  0.45045682582E+02  0.00000000000E+00 0.  1.
         11    1    3    3    0    0 -0.23490409591E+02  0.60432813738E+01  0.11968191659E+02  0.27047332667E+02  0.51100000000E-03 0. -1.
        -11    1    3    3    0    0 -0.73113248468E+01 -0.25236721341E+01  0.36654070431E+01  0.85591822687E+01  0.51100000000E-03 0.  1.
         12    1    3    3    0    0 -0.86680488662E+01 -0.91796419506E+00  0.59182264698E+01  0.10535802483E+02  0.00000000000E+00 0. -1.
</event>
<event>
 7    1  0.1538805E-008  0.4614232E+02  0.7816164E-02  0.1320468E+00
        -11   -1    0    0    0    0  0.00000000000E+00  0.00000000000E+00  0.45593999997E+02  0.45594000000E+02  0.51100000000E-03 0.  1.
         11   -1    0    0    0    0 -0.00000000000E+00 -0.00000000000E+00 -0.45593999997E+02  0.45594000000E+02  0.51100000000E-03 0. -1.
    9900012    2    1    2    0    0  0.26445219212E+02 -0.27626178159E+01 -0.36361131560E+02  0.46142316914E+02  0.99999922769E+01 0.  0.
        -12    1    1    2    0    0 -0.26445219212E+02  0.27626178159E+01  0.36361131560E+02  0.45045683086E+02  0.00000000000E+00 0.  1.
         11    1    3    3    0    0  0.21803049642E+02 -0.35026702359E+01 -0.24044955296E+02  0.32646616179E+02  0.51100000000E-03 0. -1.
        -11    1    3    3    0    0  0.40291317560E+01  0.28630304812E+00 -0.12014804414E+02  0.12675622175E+02  0.51100000000E-03 0.  1.
        -12    1    3    3    0    0  0.61303781442E+00  0.45374937191E+00 -0.30137184932E+00  0.82007856086E+00  0.00000000000E+00 0.  1.
</event>
<event>
 7    1  0.1538805E-008  0.4614232E+02  0.7816164E-02  0.1320468E+00
        -11   -1    0    0    0    0  0.00000000000E+00  0.00000000000E+00  0.45593999997E+02  0.45594000000E+02  0.51100000000E-03 0. -1.
         11   -1    0    0    0    0 -0.00000000000E+00 -0.00000000000E+00 -0.45593999997E+02  0.45594000000E+02  0.51100000000E-03 0.  1.
    9900012    2    1    2    0    0  0.15183853383E+02  0.15613844372E+02  0.39430595756E+02  0.46142318506E+02  0.10000006789E+02 0.  0.
        -12    1    1    2    0    0 -0.15183853383E+02 -0.15613844372E+02 -0.39430595756E+02  0.45045681494E+02  0.00000000000E+00 0.  1.
         11    1    3    3    0    0  0.83841729103E+01  0.98804815242E+01  0.29990556731E+02  0.32670349919E+02  0.51100000000E-03 0. -1.
        -11    1    3    3    0    0  0.29943229909E+01  0.42075592774E+01  0.34404431110E+01  0.62053343429E+01  0.51100000000E-03 0.  1.
        -12    1    3    3    0    0  0.38053574822E+01  0.15258035705E+01  0.59995959133E+01  0.72666342433E+01  0.00000000000E+00 0.  1.
</event>
<event>
 7    1  0.1538805E-008  0.4614232E+02  0.7816164E-02  0.1320468E+00
        -11   -1    0    0    0    0  0.00000000000E+00  0.00000000000E+00  0.45593999997E+02  0.45594000000E+02  0.51100000000E-03 0.  1.
         11   -1    0    0    0    0 -0.00000000000E+00 -0.00000000000E+00 -0.45593999997E+02  0.45594000000E+02  0.51100000000E-03 0. -1.
    9900012    2    1    2    0    0  0.32376639910E+02 -0.52756669604E+01 -0.30871248173E+02  0.46142318326E+02  0.10000005150E+02 0.  0.
        -12    1    1    2    0    0 -0.32376639910E+02  0.52756669604E+01  0.30871248173E+02  0.45045681674E+02  0.00000000000E+00 0.  1.
         11    1    3    3    0    0  0.18572740196E+02 -0.46196283835E+01 -0.22562586345E+02  0.29586448716E+02  0.51100000000E-03 0. -1.
        -11    1    3    3    0    0  0.10947291574E+02 -0.68318358285E+00 -0.46487896943E+01  0.11913067552E+02  0.51100000000E-03 0.  1.
        -12    1    3    3    0    0  0.28566081402E+01  0.27145005973E-01 -0.36598721338E+01  0.46428020585E+01  0.00000000000E+00 0.  1.
</event>
<event>
 7    1  0.1538805E-008  0.4614232E+02  0.7816164E-02  0.1320468E+00
        -11   -1    0    0    0    0  0.00000000000E+00  0.00000000000E+00  0.45593999997E+02  0.45594000000E+02  0.51100000000E-03 0. -1.
         11   -1    0    0    0    0 -0.00000000000E+00 -0.00000000000E+00 -0.45593999997E+02  0.45594000000E+02  0.51100000000E-03 0.  1.
    9900012    2    1    2    0    0 -0.32783699456E+02 -0.30163224798E+02  0.66725104693E+01  0.46142317896E+02  0.10000001233E+02 0.  0.
        -12    1    1    2    0    0  0.32783699456E+02  0.30163224798E+02 -0.66725104693E+01  0.45045682104E+02  0.00000000000E+00 0.  1.
         11    1    3    3    0    0 -0.10760809127E+02 -0.10012945592E+02 -0.21136708205E+01  0.14849972966E+02  0.51100000000E-03 0. -1.
        -11    1    3    3    0    0 -0.19904882093E+02 -0.19067033443E+02  0.87285899840E+01  0.28912702724E+02  0.51100000000E-03 0.  1.
        -12    1    3    3    0    0 -0.21180082361E+01 -0.10832457633E+01  0.57591305817E-01  0.23796422064E+01  0.00000000000E+00 0.  1.
</event>
<event>
 7    1  0.1538805E-008  0.4614232E+02  0.7816164E-02  0.1320468E+00
        -11   -1    0    0    0    0  0.00000000000E+00  0.00000000000E+00  0.45593999997E+02  0.45594000000E+02  0.51100000000E-03 0.  1.
         11   -1    0    0    0    0 -0.00000000000E+00 -0.00000000000E+00 -0.45593999997E+02  0.45594000000E+02  0.51100000000E-03 0. -1.
    9900012    2    1    2    0    0 -0.14083109149E+02  0.17607546287E+02 -0.38996843452E+02  0.46142318200E+02  0.10000004006E+02 0.  0.
        -12    1    1    2    0    0  0.14083109149E+02 -0.17607546287E+02  0.38996843452E+02  0.45045681800E+02  0.00000000000E+00 0.  1.
         11    1    3    3    0    0 -0.12794994714E+02  0.16642357560E+02 -0.29462261569E+02  0.36176025375E+02  0.51100000000E-03 0. -1.
        -11    1    3    3    0    0 -0.41850398067E+00 -0.57154286118E+00 -0.86171717106E+00  0.11155104518E+01  0.51100000000E-03 0.  1.
         12    1    3    3    0    0 -0.86961045486E+00  0.15367315878E+01 -0.86728647120E+01  0.88507823738E+01  0.00000000000E+00 0. -1.
</event>
<event>
 7    1  0.1538805E-008  0.4614232E+02  0.7816164E-02  0.1320468E+00
        -11   -1    0    0    0    0  0.00000000000E+00  0.00000000000E+00  0.45593999997E+02  0.45594000000E+02  0.51100000000E-03 0.  1.
         11   -1    0    0    0    0 -0.00000000000E+00 -0.00000000000E+00 -0.45593999997E+02  0.45594000000E+02  0.51100000000E-03 0. -1.
    9900012    2    1    2    0    0  0.38694848948E+02 -0.54079987600E+01 -0.22418201135E+02  0.46142317323E+02  0.99999960086E+01 0.  0.
        -12    1    1    2    0    0 -0.38694848948E+02  0.54079987600E+01  0.22418201135E+02  0.45045682677E+02  0.00000000000E+00 0.  1.
         11    1    3    3    0    0  0.23357865639E+02 -0.36612326621E+01 -0.17516149303E+02  0.29424649505E+02  0.51100000000E-03 0. -1.
        -11    1    3    3    0    0  0.65181545695E+00 -0.21254394680E+00 -0.13760653850E+01  0.15373986224E+01  0.51100000000E-03 0.  1.
         12    1    3    3    0    0  0.14685167852E+02 -0.15342221511E+01 -0.35259864472E+01  0.15180269196E+02  0.00000000000E+00 0. -1.
</event>
<event>
 7    1  0.1538805E-008  0.4614232E+02  0.7816164E-02  0.1320468E+00
        -11   -1    0    0    0    0  0.00000000000E+00  0.00000000000E+00  0.45593999997E+02  0.45594000000E+02  0.51100000000E-03 0. -1.
         11   -1    0    0    0    0 -0.00000000000E+00 -0.00000000000E+00 -0.45593999997E+02  0.45594000000E+02  0.51100000000E-03 0.  1.
    9900012    2    1    2    0    0  0.42990677539E+01 -0.20406011553E+02  0.39927761015E+02  0.46142318845E+02  0.10000009884E+02 0.  0.
        -12    1    1    2    0    0 -0.42990677539E+01  0.20406011553E+02 -0.39927761015E+02  0.45045681155E+02  0.00000000000E+00 0.  1.
         11    1    3    3    0    0  0.10980275267E+01 -0.90756344752E+01  0.22682286000E+02  0.24455242874E+02  0.51100000000E-03 0.  1.
        -11    1    3    3    0    0 -0.14252443250E+01 -0.48591868522E+01  0.82372824471E+01  0.96693247244E+01  0.51100000000E-03 0. -1.
        -12    1    3    3    0    0  0.46262845521E+01 -0.64711902253E+01  0.90081925683E+01  0.12017751247E+02  0.00000000000E+00 0.  1.
</event>
<event>
 7    1  0.1538805E-008  0.4614232E+02  0.7816164E-02  0.1320468E+00
        -11   -1    0    0    0    0  0.00000000000E+00  0.00000000000E+00  0.45593999997E+02  0.45594000000E+02  0.51100000000E-03 0.  1.
         11   -1    0    0    0    0 -0.00000000000E+00 -0.00000000000E+00 -0.45593999997E+02  0.45594000000E+02  0.51100000000E-03 0. -1.
    9900012    2    1    2    0    0  0.40156601650E+02 -0.20203213430E+02  0.28967266303E+01  0.46142317475E+02  0.99999973880E+01 0.  0.
        -12    1    1    2    0    0 -0.40156601650E+02  0.20203213430E+02 -0.28967266303E+01  0.45045682525E+02  0.00000000000E+00 0.  1.
         11    1    3    3    0    0 -0.27726840282E+00 -0.71557771788E-01 -0.26052610108E+00  0.38713355883E+00  0.51100000000E-03 0.  1.
        -11    1    3    3    0    0  0.23737762712E+02 -0.14647749747E+02  0.39065503845E+01  0.28165565632E+02  0.51100000000E-03 0. -1.
        -12    1    3    3    0    0  0.16696107341E+02 -0.54839059118E+01 -0.74929765319E+00  0.17589618283E+02  0.00000000000E+00 0.  1.
</event>
<event>
 7    1  0.1538805E-008  0.4614232E+02  0.7816164E-02  0.1320468E+00
        -11   -1    0    0    0    0  0.00000000000E+00  0.00000000000E+00  0.45593999997E+02  0.45594000000E+02  0.51100000000E-03 0. -1.
         11   -1    0    0    0    0 -0.00000000000E+00 -0.00000000000E+00 -0.45593999997E+02  0.45594000000E+02  0.51100000000E-03 0.  1.
    9900012    2    1    2    0    0  0.67529796881E+01 -0.42352676349E+02  0.13775397391E+02  0.46142317611E+02  0.99999986295E+01 0.  0.
        -12    1    1    2    0    0 -0.67529796881E+01  0.42352676349E+02 -0.13775397391E+02  0.45045682389E+02  0.00000000000E+00 0.  1.
         11    1    3    3    0    0  0.43757172903E+00 -0.14117373941E+02  0.10871240697E+01  0.14165929373E+02  0.51100000000E-03 0.  1.
        -11    1    3    3    0    0  0.37426235113E+01 -0.24236216004E+02  0.11437025310E+02  0.27059322703E+02  0.51100000000E-03 0. -1.
         12    1    3    3    0    0  0.25727844477E+01 -0.39990864047E+01  0.12512480114E+01  0.49170655347E+01  0.00000000000E+00 0. -1.
</event>
<event>
 7    1  0.1538805E-008  0.4614232E+02  0.7816164E-02  0.1320468E+00
        -11   -1    0    0    0    0  0.00000000000E+00  0.00000000000E+00  0.45593999997E+02  0.45594000000E+02  0.51100000000E-03 0. -1.
         11   -1    0    0    0    0 -0.00000000000E+00 -0.00000000000E+00 -0.45593999997E+02  0.45594000000E+02  0.51100000000E-03 0.  1.
    9900012    2    1    2    0    0 -0.23240813759E+02 -0.26271232576E+02  0.28263054658E+02  0.46142319365E+02  0.10000014626E+02 0.  0.
        -12    1    1    2    0    0  0.23240813759E+02  0.26271232576E+02 -0.28263054658E+02  0.45045680635E+02  0.00000000000E+00 0.  1.
         11    1    3    3    0    0 -0.11749831173E+02 -0.18029776604E+02  0.19913833249E+02  0.29320507020E+02  0.51100000000E-03 0. -1.
        -11    1    3    3    0    0 -0.82553049022E+01 -0.39026024059E+01  0.59684062915E+01  0.10908814715E+02  0.51100000000E-03 0.  1.
         12    1    3    3    0    0 -0.32356776842E+01 -0.43388535662E+01  0.23808151171E+01  0.59129976295E+01  0.00000000000E+00 0. -1.
</event>
<event>
 7    1  0.1538805E-008  0.4614232E+02  0.7816164E-02  0.1320468E+00
        -11   -1    0    0    0    0  0.00000000000E+00  0.00000000000E+00  0.45593999997E+02  0.45594000000E+02  0.51100000000E-03 0.  1.
         11   -1    0    0    0    0 -0.00000000000E+00 -0.00000000000E+00 -0.45593999997E+02  0.45594000000E+02  0.51100000000E-03 0. -1.
    9900012    2    1    2    0    0 -0.12557812445E+02 -0.38413860623E+02 -0.19894474917E+02  0.46142317925E+02  0.10000001494E+02 0.  0.
        -12    1    1    2    0    0  0.12557812445E+02  0.38413860623E+02  0.19894474917E+02  0.45045682075E+02  0.00000000000E+00 0.  1.
         11    1    3    3    0    0 -0.66665667352E+01 -0.16961490754E+02 -0.54336978425E+01  0.19017369775E+02  0.51100000000E-03 0. -1.
        -11    1    3    3    0    0 -0.53397530774E+01 -0.21697719384E+02 -0.14093880833E+02  0.26418581843E+02  0.51100000000E-03 0.  1.
        -12    1    3    3    0    0 -0.55149263262E+00  0.24534951503E+00 -0.36689624116E+00  0.70636630734E+00  0.00000000000E+00 0.  1.
</event>
<event>
 7    1  0.1538805E-008  0.4614232E+02  0.7816164E-02  0.1320468E+00
        -11   -1    0    0    0    0  0.00000000000E+00  0.00000000000E+00  0.45593999997E+02  0.45594000000E+02  0.51100000000E-03 0. -1.
         11   -1    0    0    0    0 -0.00000000000E+00 -0.00000000000E+00 -0.45593999997E+02  0.45594000000E+02  0.51100000000E-03 0.  1.
    9900012    2    1    2    0    0  0.41652769376E+02  0.79969573134E+01  0.15172637671E+02  0.46142318111E+02  0.10000003187E+02 0.  0.
        -12    1    1    2    0    0 -0.41652769376E+02 -0.79969573134E+01 -0.15172637671E+02  0.45045681889E+02  0.00000000000E+00 0.  1.
         11    1    3    3    0    0  0.15494822140E+02  0.42764457368E+01  0.10117630604E+02  0.18993260662E+02  0.51100000000E-03 0. -1.
        -11    1    3    3    0    0  0.23105145356E+02  0.37903073095E+01  0.33520693589E+01  0.23652706836E+02  0.51100000000E-03 0.  1.
        -12    1    3    3    0    0  0.30528018802E+01 -0.69795732808E-01  0.17029377091E+01  0.34963506124E+01  0.00000000000E+00 0.  1.
</event>
<event>
 7    1  0.1538805E-008  0.4614232E+02  0.7816164E-02  0.1320468E+00
        -11   -1    0    0    0    0  0.00000000000E+00  0.00000000000E+00  0.45593999997E+02  0.45594000000E+02  0.51100000000E-03 0. -1.
         11   -1    0    0    0    0 -0.00000000000E+00 -0.00000000000E+00 -0.45593999997E+02  0.45594000000E+02  0.51100000000E-03 0.  1.
    9900012    2    1    2    0    0 -0.33966307824E+02  0.29059256229E+02  0.55644479003E+01  0.46142317408E+02  0.99999967768E+01 0.  0.
        -12    1    1    2    0    0  0.33966307824E+02 -0.29059256229E+02 -0.55644479003E+01  0.45045682592E+02  0.00000000000E+00 0.  1.
         11    1    3    3    0    0 -0.12030957804E+02  0.97472153827E+01  0.61815949943E+01  0.16672260504E+02  0.51100000000E-03 0. -1.
        -11    1    3    3    0    0 -0.94980894616E+01  0.10820375655E+02 -0.60389524544E+00  0.14410375514E+02  0.51100000000E-03 0.  1.
         12    1    3    3    0    0 -0.12437260559E+02  0.84916651916E+01 -0.13251848526E-01  0.15059681389E+02  0.00000000000E+00 0. -1.
</event>
<event>
 7    1  0.1538805E-008  0.4614232E+02  0.7816164E-02  0.1320468E+00
        -11   -1    0    0    0    0  0.00000000000E+00  0.00000000000E+00  0.45593999997E+02  0.45594000000E+02  0.51100000000E-03 0.  1.
         11   -1    0    0    0    0 -0.00000000000E+00 -0.00000000000E+00 -0.45593999997E+02  0.45594000000E+02  0.51100000000E-03 0. -1.
    9900012    2    1    2    0    0 -0.93067389802E+01  0.29401107605E+02 -0.32834022068E+02  0.46142317366E+02  0.99999963934E+01 0.  0.
        -12    1    1    2    0    0  0.93067389802E+01 -0.29401107605E+02  0.32834022068E+02  0.45045682634E+02  0.00000000000E+00 0.  1.
         11    1    3    3    0    0 -0.31511463363E+01  0.17662140278E+02 -0.16152783384E+02  0.24141112935E+02  0.51100000000E-03 0. -1.
        -11    1    3    3    0    0 -0.28484344136E+01  0.49605273752E+01 -0.11520379387E+02  0.12862330735E+02  0.51100000000E-03 0.  1.
         12    1    3    3    0    0 -0.33071582303E+01  0.67784399522E+01 -0.51608592959E+01  0.91388736952E+01  0.00000000000E+00 0. -1.
</event>
<event>
 7    1  0.1538805E-008  0.4614232E+02  0.7816164E-02  0.1320468E+00
        -11   -1    0    0    0    0  0.00000000000E+00  0.00000000000E+00  0.45593999997E+02  0.45594000000E+02  0.51100000000E-03 0. -1.
         11   -1    0    0    0    0 -0.00000000000E+00 -0.00000000000E+00 -0.45593999997E+02  0.45594000000E+02  0.51100000000E-03 0.  1.
    9900012    2    1    2    0    0 -0.17041205285E+02 -0.25309800956E+02  0.33137966274E+02  0.46142317513E+02  0.99999977336E+01 0.  0.
        -12    1    1    2    0    0  0.17041205285E+02  0.25309800956E+02 -0.33137966274E+02  0.45045682487E+02  0.00000000000E+00 0.  1.
         11    1    3    3    0    0 -0.70973331166E+01 -0.57757718819E+01  0.10120636794E+02  0.13644008487E+02  0.51100000000E-03 0.  1.
        -11    1    3    3    0    0 -0.88821237518E+01 -0.14461979727E+02  0.20842499571E+02  0.26878444311E+02  0.51100000000E-03 0. -1.
         12    1    3    3    0    0 -0.10617484164E+01 -0.50720493472E+01  0.21748299086E+01  0.56198647147E+01  0.00000000000E+00 0. -1.
</event>
<event>
 7    1  0.1538805E-008  0.4614232E+02  0.7816164E-02  0.1320468E+00
        -11   -1    0    0    0    0  0.00000000000E+00  0.00000000000E+00  0.45593999997E+02  0.45594000000E+02  0.51100000000E-03 0.  1.
         11   -1    0    0    0    0 -0.00000000000E+00 -0.00000000000E+00 -0.45593999997E+02  0.45594000000E+02  0.51100000000E-03 0. -1.
    9900012    2    1    2    0    0  0.18102807010E+02 -0.26129981644E+02 -0.31915919136E+02  0.46142318113E+02  0.10000003211E+02 0.  0.
        -12    1    1    2    0    0 -0.18102807010E+02  0.26129981644E+02  0.31915919136E+02  0.45045681887E+02  0.00000000000E+00 0.  1.
         11    1    3    3    0    0  0.10043845947E+02 -0.13244977317E+02 -0.12530888507E+02  0.20816614340E+02  0.51100000000E-03 0. -1.
        -11    1    3    3    0    0  0.42911939026E+01 -0.43315949099E+01 -0.11825037465E+02  0.13304456806E+02  0.51100000000E-03 0.  1.
        -12    1    3    3    0    0  0.37677671604E+01 -0.85534094178E+01 -0.75599931627E+01  0.12021246968E+02  0.00000000000E+00 0.  1.
</event>
<event>
 7    1  0.1538805E-008  0.4614232E+02  0.7816164E-02  0.1320468E+00
        -11   -1    0    0    0    0  0.00000000000E+00  0.00000000000E+00  0.45593999997E+02  0.45594000000E+02  0.51100000000E-03 0.  1.
         11   -1    0    0    0    0 -0.00000000000E+00 -0.00000000000E+00 -0.45593999997E+02  0.45594000000E+02  0.51100000000E-03 0. -1.
    9900012    2    1    2    0    0 -0.20680095380E+02 -0.10415412106E+02 -0.38638924247E+02  0.46142316286E+02  0.99999865512E+01 0.  0.
        -12    1    1    2    0    0  0.20680095380E+02  0.10415412106E+02  0.38638924247E+02  0.45045683714E+02  0.00000000000E+00 0.  1.
         11    1    3    3    0    0 -0.77156534547E+01 -0.63855235088E+01 -0.18661790714E+02  0.21179439360E+02  0.51100000000E-03 0. -1.
        -11    1    3    3    0    0 -0.94568194769E+01 -0.50505323579E+01 -0.11447578267E+02  0.15683952313E+02  0.51100000000E-03 0.  1.
        -12    1    3    3    0    0 -0.35076224483E+01  0.10206437610E+01 -0.85295552670E+01  0.92789246133E+01  0.00000000000E+00 0.  1.
</event>
<event>
 7    1  0.1538805E-008  0.4614232E+02  0.7816164E-02  0.1320468E+00
        -11   -1    0    0    0    0  0.00000000000E+00  0.00000000000E+00  0.45593999997E+02  0.45594000000E+02  0.51100000000E-03 0.  1.
         11   -1    0    0    0    0 -0.00000000000E+00 -0.00000000000E+00 -0.45593999997E+02  0.45594000000E+02  0.51100000000E-03 0. -1.
    9900012    2    1    2    0    0 -0.25064043671E+02  0.13431554822E+02 -0.34935663500E+02  0.46142317252E+02  0.99999953538E+01 0.  0.
        -12    1    1    2    0    0  0.25064043671E+02 -0.13431554822E+02  0.34935663500E+02  0.45045682748E+02  0.00000000000E+00 0.  1.
         11    1    3    3    0    0 -0.20641482103E+01  0.30732683728E+01 -0.37621801775E+01  0.52782275694E+01  0.51100000000E-03 0. -1.
        -11    1    3    3    0    0 -0.16112736059E+02  0.51922485597E+01 -0.15357921811E+02  0.22857066108E+02  0.51100000000E-03 0.  1.
        -12    1    3    3    0    0 -0.68871594009E+01  0.51660378895E+01 -0.15815561511E+02  0.18007023574E+02  0.00000000000E+00 0.  1.
</event>
<event>
 7    1  0.1538805E-008  0.4614232E+02  0.7816164E-02  0.1320468E+00
        -11   -1    0    0    0    0  0.00000000000E+00  0.00000000000E+00  0.45593999997E+02  0.45594000000E+02  0.51100000000E-03 0.  1.
         11   -1    0    0    0    0 -0.00000000000E+00 -0.00000000000E+00 -0.45593999997E+02  0.45594000000E+02  0.51100000000E-03 0. -1.
    9900012    2    1    2    0    0  0.37187705329E+01  0.12159131794E+02 -0.43213885754E+02  0.46142315831E+02  0.99999823999E+01 0.  0.
        -12    1    1    2    0    0 -0.37187705329E+01 -0.12159131794E+02  0.43213885754E+02  0.45045684169E+02  0.00000000000E+00 0.  1.
         11    1    3    3    0    0  0.46692230208E+01  0.42911757329E+01 -0.12616662847E+02  0.14120765363E+02  0.51100000000E-03 0. -1.
        -11    1    3    3    0    0 -0.40930085504E+00  0.35962032937E-02  0.16049059418E-01  0.40963148810E+00  0.51100000000E-03 0.  1.
         12    1    3    3    0    0 -0.54115163290E+00  0.78643598582E+01 -0.30613271967E+02  0.31611918980E+02  0.00000000000E+00 0. -1.
</event>
<event>
 7    1  0.1538805E-008  0.4614232E+02  0.7816164E-02  0.1320468E+00
        -11   -1    0    0    0    0  0.00000000000E+00  0.00000000000E+00  0.45593999997E+02  0.45594000000E+02  0.51100000000E-03 0. -1.
         11   -1    0    0    0    0 -0.00000000000E+00 -0.00000000000E+00 -0.45593999997E+02  0.45594000000E+02  0.51100000000E-03 0.  1.
    9900012    2    1    2    0    0 -0.17761757910E+02 -0.11364177039E+02  0.39805639523E+02  0.46142317613E+02  0.99999986495E+01 0.  0.
        -12    1    1    2    0    0  0.17761757910E+02  0.11364177039E+02 -0.39805639523E+02  0.45045682387E+02  0.00000000000E+00 0.  1.
         11    1    3    3    0    0 -0.59522672167E+01 -0.21592786475E+01  0.15550668556E+02  0.16790332400E+02  0.51100000000E-03 0. -1.
        -11    1    3    3    0    0 -0.65000099016E+01 -0.83563859294E+01  0.19433118332E+02  0.22129740236E+02  0.51100000000E-03 0.  1.
        -12    1    3    3    0    0 -0.53094807920E+01 -0.84851246231E+00  0.48218526349E+01  0.72222449773E+01  0.00000000000E+00 0.  1.
</event>
<event>
 7    1  0.1538805E-008  0.4614232E+02  0.7816164E-02  0.1320468E+00
        -11   -1    0    0    0    0  0.00000000000E+00  0.00000000000E+00  0.45593999997E+02  0.45594000000E+02  0.51100000000E-03 0.  1.
         11   -1    0    0    0    0 -0.00000000000E+00 -0.00000000000E+00 -0.45593999997E+02  0.45594000000E+02  0.51100000000E-03 0. -1.
    9900012    2    1    2    0    0 -0.26946189132E+02 -0.35644308382E+02 -0.57008376792E+01  0.46142318974E+02  0.10000011064E+02 0.  0.
        -12    1    1    2    0    0  0.26946189132E+02  0.35644308382E+02  0.57008376792E+01  0.45045681026E+02  0.00000000000E+00 0.  1.
         11    1    3    3    0    0 -0.42501359471E+01 -0.63782449064E+01 -0.51581470851E+00  0.76819091852E+01  0.51100000000E-03 0.  1.
        -11    1    3    3    0    0 -0.94077330814E+01 -0.15002749569E+02  0.16914070678E+01  0.17789007687E+02  0.51100000000E-03 0. -1.
        -12    1    3    3    0    0 -0.13288320104E+02 -0.14263313907E+02 -0.68764300384E+01  0.20671402102E+02  0.00000000000E+00 0.  1.
</event>
<event>
 7    1  0.1538805E-008  0.4614232E+02  0.7816164E-02  0.1320468E+00
        -11   -1    0    0    0    0  0.00000000000E+00  0.00000000000E+00  0.45593999997E+02  0.45594000000E+02  0.51100000000E-03 0.  1.
         11   -1    0    0    0    0 -0.00000000000E+00 -0.00000000000E+00 -0.45593999997E+02  0.45594000000E+02  0.51100000000E-03 0. -1.
    9900012    2    1    2    0    0 -0.13155329942E+02  0.14209968072E+02 -0.40670967343E+02  0.46142317819E+02  0.10000000531E+02 0.  0.
        -12    1    1    2    0    0  0.13155329942E+02 -0.14209968072E+02  0.40670967343E+02  0.45045682181E+02  0.00000000000E+00 0.  1.
         11    1    3    3    0    0 -0.89712594363E+01  0.67960053135E+01 -0.26606117314E+02  0.28888659763E+02  0.51100000000E-03 0. -1.
        -11    1    3    3    0    0  0.46730894320E+00  0.18028645833E+01 -0.64478208551E+01  0.67114150814E+01  0.51100000000E-03 0.  1.
         12    1    3    3    0    0 -0.46513794488E+01  0.56110981751E+01 -0.76170291739E+01  0.10542242975E+02  0.00000000000E+00 0. -1.
</event>
<event>
 7    1  0.1538805E-008  0.4614232E+02  0.7816164E-02  0.1320468E+00
        -11   -1    0    0    0    0  0.00000000000E+00  0.00000000000E+00  0.45593999997E+02  0.45594000000E+02  0.51100000000E-03 0.  1.
         11   -1    0    0    0    0 -0.00000000000E+00 -0.00000000000E+00 -0.45593999997E+02  0.45594000000E+02  0.51100000000E-03 0. -1.
    9900012    2    1    2    0    0  0.10337183285E+02 -0.12795132796E+02 -0.41934959121E+02  0.46142316766E+02  0.99999909235E+01 0.  0.
        -12    1    1    2    0    0 -0.10337183285E+02  0.12795132796E+02  0.41934959121E+02  0.45045683234E+02  0.00000000000E+00 0.  1.
         11    1    3    3    0    0  0.48639771541E+01 -0.86702326122E+01 -0.28162189980E+02  0.29865367100E+02  0.51100000000E-03 0. -1.
        -11    1    3    3    0    0  0.50037352700E+01 -0.58814994046E+00 -0.70368751065E+01  0.86545305205E+01  0.51100000000E-03 0.  1.
        -12    1    3    3    0    0  0.46947086059E+00 -0.35367502433E+01 -0.67358940353E+01  0.76224191453E+01  0.00000000000E+00 0.  1.
</event>
<event>
 7    1  0.1538805E-008  0.4614232E+02  0.7816164E-02  0.1320468E+00
        -11   -1    0    0    0    0  0.00000000000E+00  0.00000000000E+00  0.45593999997E+02  0.45594000000E+02  0.51100000000E-03 0.  1.
         11   -1    0    0    0    0 -0.00000000000E+00 -0.00000000000E+00 -0.45593999997E+02  0.45594000000E+02  0.51100000000E-03 0. -1.
    9900012    2    1    2    0    0 -0.38998213084E+02 -0.22119488070E+02 -0.43567418129E+01  0.46142316794E+02  0.99999911811E+01 0.  0.
        -12    1    1    2    0    0  0.38998213084E+02  0.22119488070E+02  0.43567418129E+01  0.45045683206E+02  0.00000000000E+00 0.  1.
         11    1    3    3    0    0 -0.19862458415E+02 -0.13625863440E+02 -0.86176460356E+00  0.24102366010E+02  0.51100000000E-03 0. -1.
        -11    1    3    3    0    0 -0.15726509109E+02 -0.77762913183E+01 -0.50033320488E+01  0.18243550292E+02  0.51100000000E-03 0.  1.
         12    1    3    3    0    0 -0.34092455601E+01 -0.71733331175E+00  0.15083548394E+01  0.37964004914E+01  0.00000000000E+00 0. -1.
</event>
<event>
 7    1  0.1538805E-008  0.4614232E+02  0.7816164E-02  0.1320468E+00
        -11   -1    0    0    0    0  0.00000000000E+00  0.00000000000E+00  0.45593999997E+02  0.45594000000E+02  0.51100000000E-03 0. -1.
         11   -1    0    0    0    0 -0.00000000000E+00 -0.00000000000E+00 -0.45593999997E+02  0.45594000000E+02  0.51100000000E-03 0.  1.
    9900012    2    1    2    0    0  0.41624838120E+02 -0.14515027442E+02 -0.92628520669E+01  0.46142316538E+02  0.99999888470E+01 0.  0.
        -12    1    1    2    0    0 -0.41624838120E+02  0.14515027442E+02  0.92628520669E+01  0.45045683462E+02  0.00000000000E+00 0.  1.
         11    1    3    3    0    0  0.24590595534E+02 -0.10094183234E+02 -0.80142301654E+01  0.27763605841E+02  0.51100000000E-03 0. -1.
        -11    1    3    3    0    0  0.15334913947E+02 -0.31256059426E+01 -0.25796280486E+01  0.15861383275E+02  0.51100000000E-03 0.  1.
        -12    1    3    3    0    0  0.16993286388E+01 -0.12952382649E+01  0.13310061471E+01  0.25173274219E+01  0.00000000000E+00 0.  1.
</event>
<event>
 7    1  0.1538805E-008  0.4614231E+02  0.7816164E-02  0.1320468E+00
        -11   -1    0    0    0    0  0.00000000000E+00  0.00000000000E+00  0.45593999997E+02  0.45594000000E+02  0.51100000000E-03 0.  1.
         11   -1    0    0    0    0 -0.00000000000E+00 -0.00000000000E+00 -0.45593999997E+02  0.45594000000E+02  0.51100000000E-03 0. -1.
    9900012    2    1    2    0    0  0.21020377532E+02 -0.18624392275E+02 -0.35219171641E+02  0.46142308638E+02  0.99999168108E+01 0.  0.
        -12    1    1    2    0    0 -0.21020377532E+02  0.18624392275E+02  0.35219171641E+02  0.45045691362E+02  0.00000000000E+00 0.  1.
         11    1    3    3    0    0  0.73613964245E+00 -0.89695713332E+00 -0.60856657486E+00  0.13102622674E+01  0.51100000000E-03 0. -1.
        -11    1    3    3    0    0 -0.74059887502E-01  0.89823865312E+00 -0.11799347114E+01  0.14847773332E+01  0.51100000000E-03 0.  1.
        -12    1    3    3    0    0  0.20358297778E+02 -0.18625673794E+02 -0.33430670354E+02  0.43347269038E+02  0.00000000000E+00 0.  1.
</event>
<event>
 7    1  0.1538805E-008  0.4614232E+02  0.7816164E-02  0.1320468E+00
        -11   -1    0    0    0    0  0.00000000000E+00  0.00000000000E+00  0.45593999997E+02  0.45594000000E+02  0.51100000000E-03 0.  1.
         11   -1    0    0    0    0 -0.00000000000E+00 -0.00000000000E+00 -0.45593999997E+02  0.45594000000E+02  0.51100000000E-03 0. -1.
    9900012    2    1    2    0    0 -0.15601490906E+01  0.26585979346E+02 -0.36329949041E+02  0.46142316963E+02  0.99999927197E+01 0.  0.
        -12    1    1    2    0    0  0.15601490906E+01 -0.26585979346E+02  0.36329949041E+02  0.45045683037E+02  0.00000000000E+00 0.  1.
         11    1    3    3    0    0  0.23629660103E+01  0.87652822467E+01 -0.89775235739E+01  0.12767525642E+02  0.51100000000E-03 0. -1.
        -11    1    3    3    0    0  0.84613649728E+00  0.17336962603E+01 -0.11070391803E+01  0.22242269899E+01  0.51100000000E-03 0.  1.
         12    1    3    3    0    0 -0.47692515982E+01  0.16087000839E+02 -0.26245386287E+02  0.31150564331E+02  0.00000000000E+00 0. -1.
</event>
<event>
 7    1  0.1538805E-008  0.4614232E+02  0.7816164E-02  0.1320468E+00
        -11   -1    0    0    0    0  0.00000000000E+00  0.00000000000E+00  0.45593999997E+02  0.45594000000E+02  0.51100000000E-03 0.  1.
         11   -1    0    0    0    0 -0.00000000000E+00 -0.00000000000E+00 -0.45593999997E+02  0.45594000000E+02  0.51100000000E-03 0. -1.
    9900012    2    1    2    0    0 -0.27564229035E+02  0.34685486552E+02 -0.81390265617E+01  0.46142318154E+02  0.10000003580E+02 0.  0.
        -12    1    1    2    0    0  0.27564229035E+02 -0.34685486552E+02  0.81390265617E+01  0.45045681846E+02  0.00000000000E+00 0.  1.
         11    1    3    3    0    0 -0.78049989737E+01  0.12882458060E+02 -0.35600536115E+01  0.15477393728E+02  0.51100000000E-03 0. -1.
        -11    1    3    3    0    0 -0.42262978750E+01  0.98389133320E+01 -0.19208505942E+01  0.10879130321E+02  0.51100000000E-03 0.  1.
        -12    1    3    3    0    0 -0.15532932186E+02  0.11964115160E+02 -0.26581223560E+01  0.19785794104E+02  0.00000000000E+00 0.  1.
</event>
<event>
 7    1  0.1538805E-008  0.4614232E+02  0.7816164E-02  0.1320468E+00
        -11   -1    0    0    0    0  0.00000000000E+00  0.00000000000E+00  0.45593999997E+02  0.45594000000E+02  0.51100000000E-03 0.  1.
         11   -1    0    0    0    0 -0.00000000000E+00 -0.00000000000E+00 -0.45593999997E+02  0.45594000000E+02  0.51100000000E-03 0. -1.
    9900012    2    1    2    0    0  0.27369341107E+02  0.18864465302E+02 -0.30400066308E+02  0.46142324122E+02  0.10000058005E+02 0.  0.
        -12    1    1    2    0    0 -0.27369341107E+02 -0.18864465302E+02  0.30400066308E+02  0.45045675878E+02  0.00000000000E+00 0.  1.
         11    1    3    3    0    0  0.11094137567E+01 -0.87250978213E+00 -0.14785084592E+01  0.20440302661E+01  0.51100000000E-03 0.  1.
        -11    1    3    3    0    0  0.21045691775E+02  0.15495277369E+02 -0.25664526856E+02  0.36629123686E+02  0.51100000000E-03 0. -1.
         12    1    3    3    0    0  0.52142355750E+01  0.42416977147E+01 -0.32570309934E+01  0.74691701699E+01  0.00000000000E+00 0. -1.
</event>
<event>
 7    1  0.1538805E-008  0.4614232E+02  0.7816164E-02  0.1320468E+00
        -11   -1    0    0    0    0  0.00000000000E+00  0.00000000000E+00  0.45593999997E+02  0.45594000000E+02  0.51100000000E-03 0.  1.
         11   -1    0    0    0    0 -0.00000000000E+00 -0.00000000000E+00 -0.45593999997E+02  0.45594000000E+02  0.51100000000E-03 0. -1.
    9900012    2    1    2    0    0  0.13754566079E+02 -0.42762815723E+02 -0.33566385747E+01  0.46142317420E+02  0.99999968868E+01 0.  0.
        -12    1    1    2    0    0 -0.13754566079E+02  0.42762815723E+02  0.33566385747E+01  0.45045682580E+02  0.00000000000E+00 0.  1.
         11    1    3    3    0    0  0.77180647833E+01 -0.21546518428E+02 -0.31574957270E+01  0.23103912220E+02  0.51100000000E-03 0. -1.
        -11    1    3    3    0    0  0.49122833409E+01 -0.61324990003E+01  0.68356179229E+00  0.78870354757E+01  0.51100000000E-03 0.  1.
         12    1    3    3    0    0  0.11242179544E+01 -0.15083798295E+02 -0.88270463991E+00  0.15151369724E+02  0.00000000000E+00 0. -1.
</event>
<event>
 7    1  0.1538805E-008  0.4614232E+02  0.7816164E-02  0.1320468E+00
        -11   -1    0    0    0    0  0.00000000000E+00  0.00000000000E+00  0.45593999997E+02  0.45594000000E+02  0.51100000000E-03 0.  1.
         11   -1    0    0    0    0 -0.00000000000E+00 -0.00000000000E+00 -0.45593999997E+02  0.45594000000E+02  0.51100000000E-03 0. -1.
    9900012    2    1    2    0    0 -0.31243558860E+01  0.11801599213E+02 -0.43359822028E+02  0.46142317521E+02  0.99999978108E+01 0.  0.
        -12    1    1    2    0    0  0.31243558860E+01 -0.11801599213E+02  0.43359822028E+02  0.45045682479E+02  0.00000000000E+00 0.  1.
         11    1    3    3    0    0 -0.19854422759E+01  0.10648153105E+02 -0.27719001993E+02  0.29760178382E+02  0.51100000000E-03 0. -1.
        -11    1    3    3    0    0  0.15537304253E+01 -0.59205245418E+00 -0.52098647521E+01  0.54687562881E+01  0.51100000000E-03 0.  1.
         12    1    3    3    0    0 -0.26926440354E+01  0.17454985618E+01 -0.10430955283E+02  0.10913382851E+02  0.00000000000E+00 0. -1.
</event>
<event>
 7    1  0.1538805E-008  0.4614231E+02  0.7816164E-02  0.1320468E+00
        -11   -1    0    0    0    0  0.00000000000E+00  0.00000000000E+00  0.45593999997E+02  0.45594000000E+02  0.51100000000E-03 0.  1.
         11   -1    0    0    0    0 -0.00000000000E+00 -0.00000000000E+00 -0.45593999997E+02  0.45594000000E+02  0.51100000000E-03 0. -1.
    9900012    2    1    2    0    0 -0.24612024806E+01 -0.96646991772E+01 -0.43927785643E+02  0.46142308981E+02  0.99999199400E+01 0.  0.
        -12    1    1    2    0    0  0.24612024806E+01  0.96646991772E+01  0.43927785643E+02  0.45045691019E+02  0.00000000000E+00 0.  1.
         11    1    3    3    0    0 -0.22994887363E+01  0.57732903785E+00 -0.65525550798E+01  0.69682806776E+01  0.51100000000E-03 0. -1.
        -11    1    3    3    0    0  0.11056246938E+01 -0.45531015142E+01 -0.25713878125E+02  0.26137265883E+02  0.51100000000E-03 0.  1.
        -12    1    3    3    0    0 -0.12673384381E+01 -0.56889267008E+01 -0.11661352438E+02  0.13036762420E+02  0.00000000000E+00 0.  1.
</event>
<event>
 7    1  0.1538805E-008  0.4614232E+02  0.7816164E-02  0.1320468E+00
        -11   -1    0    0    0    0  0.00000000000E+00  0.00000000000E+00  0.45593999997E+02  0.45594000000E+02  0.51100000000E-03 0. -1.
         11   -1    0    0    0    0 -0.00000000000E+00 -0.00000000000E+00 -0.45593999997E+02  0.45594000000E+02  0.51100000000E-03 0.  1.
    9900012    2    1    2    0    0 -0.44451880552E+02  0.60342043640E+01  0.40905009088E+01  0.46142317581E+02  0.99999983536E+01 0.  0.
        -12    1    1    2    0    0  0.44451880552E+02 -0.60342043640E+01 -0.40905009088E+01  0.45045682419E+02  0.00000000000E+00 0.  1.
         11    1    3    3    0    0 -0.26385966208E+02 -0.56627867101E+00  0.32898839973E+01  0.26596300894E+02  0.51100000000E-03 0.  1.
        -11    1    3    3    0    0 -0.82202790501E+01  0.47654374255E+01  0.74239382626E+00  0.95306626408E+01  0.51100000000E-03 0. -1.
         12    1    3    3    0    0 -0.98456352939E+01  0.18350456095E+01  0.58223085301E-01  0.10015354045E+02  0.00000000000E+00 0. -1.
</event>
<event>
 7    1  0.1538805E-008  0.4614232E+02  0.7816164E-02  0.1320468E+00
        -11   -1    0    0    0    0  0.00000000000E+00  0.00000000000E+00  0.45593999997E+02  0.45594000000E+02  0.51100000000E-03 0. -1.
         11   -1    0    0    0    0 -0.00000000000E+00 -0.00000000000E+00 -0.45593999997E+02  0.45594000000E+02  0.51100000000E-03 0.  1.
    9900012    2    1    2    0    0 -0.35417761966E+02 -0.21725452056E+02  0.17398282619E+02  0.46142319100E+02  0.10000012205E+02 0.  0.
        -12    1    1    2    0    0  0.35417761966E+02  0.21725452056E+02 -0.17398282619E+02  0.45045680900E+02  0.00000000000E+00 0.  1.
         11    1    3    3    0    0 -0.14686274201E+02 -0.10917479826E+02  0.10978749051E+02  0.21340359572E+02  0.51100000000E-03 0. -1.
        -11    1    3    3    0    0 -0.11002911320E+02 -0.28211175849E+01  0.34180009877E+01  0.11861934621E+02  0.51100000000E-03 0.  1.
        -12    1    3    3    0    0 -0.97285764445E+01 -0.79868546448E+01  0.30015325803E+01  0.12940024907E+02  0.00000000000E+00 0.  1.
</event>
<event>
 7    1  0.1538805E-008  0.4614232E+02  0.7816164E-02  0.1320468E+00
        -11   -1    0    0    0    0  0.00000000000E+00  0.00000000000E+00  0.45593999997E+02  0.45594000000E+02  0.51100000000E-03 0. -1.
         11   -1    0    0    0    0 -0.00000000000E+00 -0.00000000000E+00 -0.45593999997E+02  0.45594000000E+02  0.51100000000E-03 0.  1.
    9900012    2    1    2    0    0 -0.39209819412E+02  0.19278594202E+02  0.10956247729E+02  0.46142317665E+02  0.99999991207E+01 0.  0.
        -12    1    1    2    0    0  0.39209819412E+02 -0.19278594202E+02 -0.10956247729E+02  0.45045682335E+02  0.00000000000E+00 0.  1.
         11    1    3    3    0    0 -0.23579994326E+02  0.10817319248E+02  0.91728884381E+01  0.27516765992E+02  0.51100000000E-03 0. -1.
        -11    1    3    3    0    0 -0.13677135313E+02  0.50478014024E+01  0.97999161947E+00  0.14611800478E+02  0.51100000000E-03 0.  1.
        -12    1    3    3    0    0 -0.19526897735E+01  0.34134735506E+01  0.80336767181E+00  0.40137511941E+01  0.00000000000E+00 0.  1.
</event>
<event>
 7    1  0.1538805E-008  0.4614232E+02  0.7816164E-02  0.1320468E+00
        -11   -1    0    0    0    0  0.00000000000E+00  0.00000000000E+00  0.45593999997E+02  0.45594000000E+02  0.51100000000E-03 0. -1.
         11   -1    0    0    0    0 -0.00000000000E+00 -0.00000000000E+00 -0.45593999997E+02  0.45594000000E+02  0.51100000000E-03 0.  1.
    9900012    2    1    2    0    0 -0.42802640087E+02  0.12924989256E+02  0.54765075934E+01  0.46142317841E+02  0.10000000733E+02 0.  0.
        -12    1    1    2    0    0  0.42802640087E+02 -0.12924989256E+02 -0.54765075934E+01  0.45045682159E+02  0.00000000000E+00 0.  1.
         11    1    3    3    0    0 -0.86897926665E+01  0.26976016246E+01  0.44405033930E+00  0.91097053782E+01  0.51100000000E-03 0. -1.
        -11    1    3    3    0    0 -0.26382964826E+02  0.63171046847E+01  0.23391499084E+00  0.27129713620E+02  0.51100000000E-03 0.  1.
        -12    1    3    3    0    0 -0.77298825945E+01  0.39102829469E+01  0.47985422632E+01  0.99028988434E+01  0.00000000000E+00 0.  1.
</event>
<event>
 7    1  0.1538805E-008  0.4614232E+02  0.7816164E-02  0.1320468E+00
        -11   -1    0    0    0    0  0.00000000000E+00  0.00000000000E+00  0.45593999997E+02  0.45594000000E+02  0.51100000000E-03 0.  1.
         11   -1    0    0    0    0 -0.00000000000E+00 -0.00000000000E+00 -0.45593999997E+02  0.45594000000E+02  0.51100000000E-03 0. -1.
    9900012    2    1    2    0    0 -0.27201951532E+02 -0.19902063945E+02 -0.29884363082E+02  0.46142317929E+02  0.10000001530E+02 0.  0.
        -12    1    1    2    0    0  0.27201951532E+02  0.19902063945E+02  0.29884363082E+02  0.45045682071E+02  0.00000000000E+00 0.  1.
         11    1    3    3    0    0 -0.62488078414E+01 -0.46076811871E+01 -0.68594903021E+01  0.10360064325E+02  0.51100000000E-03 0. -1.
        -11    1    3    3    0    0 -0.13717130992E+00 -0.24509335914E+01 -0.44660866251E+00  0.24950653290E+01  0.51100000000E-03 0.  1.
        -12    1    3    3    0    0 -0.20815972381E+02 -0.12843449166E+02 -0.22578264118E+02  0.33287188274E+02  0.00000000000E+00 0.  1.
</event>
<event>
 7    1  0.1538805E-008  0.4614233E+02  0.7816164E-02  0.1320468E+00
        -11   -1    0    0    0    0  0.00000000000E+00  0.00000000000E+00  0.45593999997E+02  0.45594000000E+02  0.51100000000E-03 0.  1.
         11   -1    0    0    0    0 -0.00000000000E+00 -0.00000000000E+00 -0.45593999997E+02  0.45594000000E+02  0.51100000000E-03 0. -1.
    9900012    2    1    2    0    0 -0.84815617078E+01  0.25577550890E+02 -0.36096595230E+02  0.46142332220E+02  0.10000131844E+02 0.  0.
        -12    1    1    2    0    0  0.84815617078E+01 -0.25577550890E+02  0.36096595230E+02  0.45045667780E+02  0.00000000000E+00 0.  1.
         11    1    3    3    0    0 -0.56778158587E+01  0.12461467545E+02 -0.12827850980E+02  0.18763782330E+02  0.51100000000E-03 0. -1.
        -11    1    3    3    0    0 -0.14254295656E+01  0.12694835685E+02 -0.19194297263E+02  0.23056707271E+02  0.51100000000E-03 0.  1.
        -12    1    3    3    0    0 -0.13783162835E+01  0.42124766081E+00 -0.40744469872E+01  0.43218426187E+01  0.00000000000E+00 0.  1.
</event>
<event>
 7    1  0.1538805E-008  0.4614232E+02  0.7816164E-02  0.1320468E+00
        -11   -1    0    0    0    0  0.00000000000E+00  0.00000000000E+00  0.45593999997E+02  0.45594000000E+02  0.51100000000E-03 0. -1.
         11   -1    0    0    0    0 -0.00000000000E+00 -0.00000000000E+00 -0.45593999997E+02  0.45594000000E+02  0.51100000000E-03 0.  1.
    9900012    2    1    2    0    0 -0.44585058057E+02  0.60947911957E+01  0.20345834387E+01  0.46142318615E+02  0.10000007788E+02 0.  0.
        -12    1    1    2    0    0  0.44585058057E+02 -0.60947911957E+01 -0.20345834387E+01  0.45045681385E+02  0.00000000000E+00 0.  1.
         11    1    3    3    0    0 -0.28039992397E+02  0.51198599685E+01 -0.16328674259E+01  0.28550313414E+02  0.51100000000E-03 0. -1.
        -11    1    3    3    0    0 -0.67847756312E+01 -0.18721491586E+01  0.14732443939E+01  0.71908672734E+01  0.51100000000E-03 0.  1.
         12    1    3    3    0    0 -0.97602900286E+01  0.28470803857E+01  0.21942064706E+01  0.10401137928E+02  0.00000000000E+00 0. -1.
</event>
<event>
 7    1  0.1538805E-008  0.4614232E+02  0.7816164E-02  0.1320468E+00
        -11   -1    0    0    0    0  0.00000000000E+00  0.00000000000E+00  0.45593999997E+02  0.45594000000E+02  0.51100000000E-03 0.  1.
         11   -1    0    0    0    0 -0.00000000000E+00 -0.00000000000E+00 -0.45593999997E+02  0.45594000000E+02  0.51100000000E-03 0. -1.
    9900012    2    1    2    0    0  0.32665715017E+01 -0.11804666127E+02 -0.43348503105E+02  0.46142319262E+02  0.10000013687E+02 0.  0.
        -12    1    1    2    0    0 -0.32665715017E+01  0.11804666127E+02  0.43348503105E+02  0.45045680738E+02  0.00000000000E+00 0.  1.
         11    1    3    3    0    0  0.12730378844E+01 -0.81367205763E+01 -0.13057791978E+02  0.15438030275E+02  0.51100000000E-03 0. -1.
        -11    1    3    3    0    0  0.39811409319E+00  0.29040275537E+00 -0.11278362075E+01  0.12307897317E+01  0.51100000000E-03 0.  1.
         12    1    3    3    0    0  0.15954195241E+01 -0.39583483059E+01 -0.29162874919E+02  0.29473499255E+02  0.00000000000E+00 0. -1.
</event>
<event>
 7    1  0.1538805E-008  0.4614232E+02  0.7816164E-02  0.1320468E+00
        -11   -1    0    0    0    0  0.00000000000E+00  0.00000000000E+00  0.45593999997E+02  0.45594000000E+02  0.51100000000E-03 0.  1.
         11   -1    0    0    0    0 -0.00000000000E+00 -0.00000000000E+00 -0.45593999997E+02  0.45594000000E+02  0.51100000000E-03 0. -1.
    9900012    2    1    2    0    0 -0.18537895494E+02  0.41880492599E+01 -0.40840175898E+02  0.46142319926E+02  0.10000019744E+02 0.  0.
        -12    1    1    2    0    0  0.18537895494E+02 -0.41880492599E+01  0.40840175898E+02  0.45045680074E+02  0.00000000000E+00 0.  1.
         11    1    3    3    0    0 -0.61112243478E+01  0.25682164603E+01 -0.78517077955E+01  0.10275802372E+02  0.51100000000E-03 0. -1.
        -11    1    3    3    0    0 -0.77527400995E+01 -0.20659180792E+01 -0.21030475549E+02  0.22508973735E+02  0.51100000000E-03 0.  1.
        -12    1    3    3    0    0 -0.46739310464E+01  0.36857508788E+01 -0.11957992554E+02  0.13357543819E+02  0.00000000000E+00 0.  1.
</event>
<event>
 7    1  0.1538805E-008  0.4614232E+02  0.7816164E-02  0.1320468E+00
        -11   -1    0    0    0    0  0.00000000000E+00  0.00000000000E+00  0.45593999997E+02  0.45594000000E+02  0.51100000000E-03 0.  1.
         11   -1    0    0    0    0 -0.00000000000E+00 -0.00000000000E+00 -0.45593999997E+02  0.45594000000E+02  0.51100000000E-03 0. -1.
    9900012    2    1    2    0    0  0.27658035368E+02  0.21136211378E+01 -0.35491959506E+02  0.46142317585E+02  0.99999983911E+01 0.  0.
        -12    1    1    2    0    0 -0.27658035368E+02 -0.21136211378E+01  0.35491959506E+02  0.45045682415E+02  0.00000000000E+00 0.  1.
         11    1    3    3    0    0  0.24507987352E+02  0.44565028991E+01 -0.27508562953E+02  0.37110953884E+02  0.51100000000E-03 0. -1.
        -11    1    3    3    0    0  0.27179204015E+01 -0.22707758026E+01 -0.77802806302E+01  0.85484665877E+01  0.51100000000E-03 0.  1.
         12    1    3    3    0    0  0.43212761438E+00 -0.72105958632E-01 -0.20311592195E+00  0.48289711340E+00  0.00000000000E+00 0. -1.
</event>
<event>
 7    1  0.1538805E-008  0.4614232E+02  0.7816164E-02  0.1320468E+00
        -11   -1    0    0    0    0  0.00000000000E+00  0.00000000000E+00  0.45593999997E+02  0.45594000000E+02  0.51100000000E-03 0.  1.
         11   -1    0    0    0    0 -0.00000000000E+00 -0.00000000000E+00 -0.45593999997E+02  0.45594000000E+02  0.51100000000E-03 0. -1.
    9900012    2    1    2    0    0  0.19270926302E+02 -0.40203541526E+02  0.64358500145E+01  0.46142317441E+02  0.99999970798E+01 0.  0.
        -12    1    1    2    0    0 -0.19270926302E+02  0.40203541526E+02 -0.64358500145E+01  0.45045682559E+02  0.00000000000E+00 0.  1.
         11    1    3    3    0    0  0.10212759342E+02 -0.14499296938E+02  0.24556016876E+01  0.17904190710E+02  0.51100000000E-03 0. -1.
        -11    1    3    3    0    0  0.29302196479E+01 -0.21945741442E+01  0.49670911678E+00  0.36944638403E+01  0.51100000000E-03 0.  1.
        -12    1    3    3    0    0  0.61279473127E+01 -0.23509670444E+02  0.34835392102E+01  0.24543662891E+02  0.00000000000E+00 0.  1.
</event>
<event>
 7    1  0.1538805E-008  0.4614232E+02  0.7816164E-02  0.1320468E+00
        -11   -1    0    0    0    0  0.00000000000E+00  0.00000000000E+00  0.45593999997E+02  0.45594000000E+02  0.51100000000E-03 0.  1.
         11   -1    0    0    0    0 -0.00000000000E+00 -0.00000000000E+00 -0.45593999997E+02  0.45594000000E+02  0.51100000000E-03 0. -1.
    9900012    2    1    2    0    0  0.18159149959E+02 -0.24210918208E+02 -0.33364505116E+02  0.46142317751E+02  0.99999999066E+01 0.  0.
        -12    1    1    2    0    0 -0.18159149959E+02  0.24210918208E+02  0.33364505116E+02  0.45045682249E+02  0.00000000000E+00 0.  1.
         11    1    3    3    0    0  0.14905967045E+02 -0.19483582102E+02 -0.29288145064E+02  0.38204623629E+02  0.51100000000E-03 0. -1.
        -11    1    3    3    0    0 -0.21807972608E+00  0.42041598962E+00  0.59756625024E-01  0.47736724502E+00  0.51100000000E-03 0.  1.
         12    1    3    3    0    0  0.34712626403E+01 -0.51477520949E+01 -0.41361166765E+01  0.74603268769E+01  0.00000000000E+00 0. -1.
</event>
<event>
 7    1  0.1538805E-008  0.4614232E+02  0.7816164E-02  0.1320468E+00
        -11   -1    0    0    0    0  0.00000000000E+00  0.00000000000E+00  0.45593999997E+02  0.45594000000E+02  0.51100000000E-03 0. -1.
         11   -1    0    0    0    0 -0.00000000000E+00 -0.00000000000E+00 -0.45593999997E+02  0.45594000000E+02  0.51100000000E-03 0.  1.
    9900012    2    1    2    0    0  0.35456458476E+02 -0.15655332043E+02 -0.22953496672E+02  0.46142324531E+02  0.10000061733E+02 0.  0.
        -12    1    1    2    0    0 -0.35456458476E+02  0.15655332043E+02  0.22953496672E+02  0.45045675469E+02  0.00000000000E+00 0.  1.
         11    1    3    3    0    0  0.50001364162E+01  0.33073741068E+00 -0.26814649937E+01  0.56833974160E+01  0.51100000000E-03 0. -1.
        -11    1    3    3    0    0  0.25563145150E+02 -0.15751274854E+02 -0.16389091997E+02  0.34207884855E+02  0.51100000000E-03 0.  1.
        -12    1    3    3    0    0  0.48931769096E+01 -0.23479459933E+00 -0.38829396813E+01  0.62510422604E+01  0.00000000000E+00 0.  1.
</event>
<event>
 7    1  0.1538805E-008  0.4614232E+02  0.7816164E-02  0.1320468E+00
        -11   -1    0    0    0    0  0.00000000000E+00  0.00000000000E+00  0.45593999997E+02  0.45594000000E+02  0.51100000000E-03 0. -1.
         11   -1    0    0    0    0 -0.00000000000E+00 -0.00000000000E+00 -0.45593999997E+02  0.45594000000E+02  0.51100000000E-03 0.  1.
    9900012    2    1    2    0    0  0.17944793070E+02  0.39401267645E+02 -0.12435352634E+02  0.46142317793E+02  0.10000000293E+02 0.  0.
        -12    1    1    2    0    0 -0.17944793070E+02 -0.39401267645E+02  0.12435352634E+02  0.45045682207E+02  0.00000000000E+00 0.  1.
         11    1    3    3    0    0  0.28138613013E+01  0.17096219938E+01 -0.19385321313E+00  0.32982119571E+01  0.51100000000E-03 0. -1.
        -11    1    3    3    0    0  0.10093654426E+02  0.30103633435E+02 -0.77204597405E+01  0.32675925458E+02  0.51100000000E-03 0.  1.
        -12    1    3    3    0    0  0.50372773424E+01  0.75880122158E+01 -0.45210396799E+01  0.10168180378E+02  0.00000000000E+00 0.  1.
</event>
<event>
 7    1  0.1538805E-008  0.4614232E+02  0.7816164E-02  0.1320468E+00
        -11   -1    0    0    0    0  0.00000000000E+00  0.00000000000E+00  0.45593999997E+02  0.45594000000E+02  0.51100000000E-03 0.  1.
         11   -1    0    0    0    0 -0.00000000000E+00 -0.00000000000E+00 -0.45593999997E+02  0.45594000000E+02  0.51100000000E-03 0. -1.
    9900012    2    1    2    0    0  0.15300383191E+02  0.33885573641E+02 -0.25431863400E+02  0.46142317601E+02  0.99999985442E+01 0.  0.
        -12    1    1    2    0    0 -0.15300383191E+02 -0.33885573641E+02  0.25431863400E+02  0.45045682399E+02  0.00000000000E+00 0.  1.
         11    1    3    3    0    0  0.32084809996E+01  0.51921050657E+01 -0.42191503429E+01  0.74198069527E+01  0.51100000000E-03 0. -1.
        -11    1    3    3    0    0  0.94372361214E+01  0.11730491308E+02 -0.11896852767E+02  0.19188563207E+02  0.51100000000E-03 0.  1.
        -12    1    3    3    0    0  0.26546660701E+01  0.16962977267E+02 -0.93158602903E+01  0.19533947442E+02  0.00000000000E+00 0.  1.
</event>
<event>
 7    1  0.1538805E-008  0.4614232E+02  0.7816164E-02  0.1320468E+00
        -11   -1    0    0    0    0  0.00000000000E+00  0.00000000000E+00  0.45593999997E+02  0.45594000000E+02  0.51100000000E-03 0.  1.
         11   -1    0    0    0    0 -0.00000000000E+00 -0.00000000000E+00 -0.45593999997E+02  0.45594000000E+02  0.51100000000E-03 0. -1.
    9900012    2    1    2    0    0 -0.41531742683E+02  0.17309280660E+00 -0.17441269839E+02  0.46142317576E+02  0.99999983125E+01 0.  0.
        -12    1    1    2    0    0  0.41531742683E+02 -0.17309280660E+00  0.17441269839E+02  0.45045682424E+02  0.00000000000E+00 0.  1.
         11    1    3    3    0    0 -0.23286282371E+02  0.38336874047E+01 -0.83025563442E+01  0.25017604760E+02  0.51100000000E-03 0.  1.
        -11    1    3    3    0    0 -0.17576973028E+02 -0.42409091250E+01 -0.82645137984E+01  0.19880580465E+02  0.51100000000E-03 0. -1.
         12    1    3    3    0    0 -0.66848728404E+00  0.58031452696E+00 -0.87419969646E+00  0.12441323516E+01  0.00000000000E+00 0. -1.
</event>
<event>
 7    1  0.1538805E-008  0.4614232E+02  0.7816164E-02  0.1320468E+00
        -11   -1    0    0    0    0  0.00000000000E+00  0.00000000000E+00  0.45593999997E+02  0.45594000000E+02  0.51100000000E-03 0.  1.
         11   -1    0    0    0    0 -0.00000000000E+00 -0.00000000000E+00 -0.45593999997E+02  0.45594000000E+02  0.51100000000E-03 0. -1.
    9900012    2    1    2    0    0  0.12140496726E+02 -0.26698690007E+02 -0.34189207484E+02  0.46142316330E+02  0.99999869537E+01 0.  0.
        -12    1    1    2    0    0 -0.12140496726E+02  0.26698690007E+02  0.34189207484E+02  0.45045683670E+02  0.00000000000E+00 0.  1.
         11    1    3    3    0    0  0.10174327960E+02 -0.22513981544E+02 -0.26086170604E+02  0.35928882691E+02  0.51100000000E-03 0. -1.
        -11    1    3    3    0    0  0.84418611319E+00 -0.27899490011E+01 -0.13229660539E+01  0.32010474947E+01  0.51100000000E-03 0.  1.
         12    1    3    3    0    0  0.11219826522E+01 -0.13947594626E+01 -0.67800708261E+01  0.70123861443E+01  0.00000000000E+00 0. -1.
</event>
<event>
 7    1  0.1538805E-008  0.4614232E+02  0.7816164E-02  0.1320468E+00
        -11   -1    0    0    0    0  0.00000000000E+00  0.00000000000E+00  0.45593999997E+02  0.45594000000E+02  0.51100000000E-03 0. -1.
         11   -1    0    0    0    0 -0.00000000000E+00 -0.00000000000E+00 -0.45593999997E+02  0.45594000000E+02  0.51100000000E-03 0.  1.
    9900012    2    1    2    0    0  0.39421372377E+02  0.20243587144E+02  0.80787478761E+01  0.46142316658E+02  0.99999899401E+01 0.  0.
        -12    1    1    2    0    0 -0.39421372377E+02 -0.20243587144E+02 -0.80787478761E+01  0.45045683342E+02  0.00000000000E+00 0.  1.
         11    1    3    3    0    0  0.26852702666E+01  0.38023554506E+01  0.30032384612E+01  0.55396773276E+01  0.51100000000E-03 0. -1.
        -11    1    3    3    0    0  0.21816604725E+02  0.97204305460E+01  0.21605119955E+01  0.23981635141E+02  0.51100000000E-03 0.  1.
         12    1    3    3    0    0  0.14919497385E+02  0.67208011472E+01  0.29149974194E+01  0.16621004189E+02  0.00000000000E+00 0. -1.
</event>
<event>
 7    1  0.1538805E-008  0.4614232E+02  0.7816164E-02  0.1320468E+00
        -11   -1    0    0    0    0  0.00000000000E+00  0.00000000000E+00  0.45593999997E+02  0.45594000000E+02  0.51100000000E-03 0. -1.
         11   -1    0    0    0    0 -0.00000000000E+00 -0.00000000000E+00 -0.45593999997E+02  0.45594000000E+02  0.51100000000E-03 0.  1.
    9900012    2    1    2    0    0 -0.15982094168E+02 -0.40092228373E+01  0.41923886527E+02  0.46142318039E+02  0.10000002537E+02 0.  0.
        -12    1    1    2    0    0  0.15982094168E+02  0.40092228373E+01 -0.41923886527E+02  0.45045681961E+02  0.00000000000E+00 0.  1.
         11    1    3    3    0    0 -0.58360548700E+01  0.21928666249E+01  0.11441760641E+02  0.13030045561E+02  0.51100000000E-03 0. -1.
        -11    1    3    3    0    0 -0.89140357821E+01 -0.48085978250E+01  0.19497014718E+02  0.21970804040E+02  0.51100000000E-03 0.  1.
        -12    1    3    3    0    0 -0.12320035154E+01 -0.13934916372E+01  0.10985111168E+02  0.11141468439E+02  0.00000000000E+00 0.  1.
</event>
<event>
 7    1  0.1538805E-008  0.4614232E+02  0.7816164E-02  0.1320468E+00
        -11   -1    0    0    0    0  0.00000000000E+00  0.00000000000E+00  0.45593999997E+02  0.45594000000E+02  0.51100000000E-03 0. -1.
         11   -1    0    0    0    0 -0.00000000000E+00 -0.00000000000E+00 -0.45593999997E+02  0.45594000000E+02  0.51100000000E-03 0.  1.
    9900012    2    1    2    0    0 -0.31661011261E+02 -0.87692104383E+01  0.30818741313E+02  0.46142317611E+02  0.99999986267E+01 0.  0.
        -12    1    1    2    0    0  0.31661011261E+02  0.87692104383E+01 -0.30818741313E+02  0.45045682389E+02  0.00000000000E+00 0.  1.
         11    1    3    3    0    0 -0.17874457046E+02 -0.20526461262E+01  0.16559838207E+02  0.24452766971E+02  0.51100000000E-03 0. -1.
        -11    1    3    3    0    0 -0.69831055025E+01 -0.63878873565E+01  0.73041405627E+01  0.11954887576E+02  0.51100000000E-03 0.  1.
        -12    1    3    3    0    0 -0.68034487124E+01 -0.32867695565E+00  0.69547625436E+01  0.97346630636E+01  0.00000000000E+00 0.  1.
</event>
<event>
 7    1  0.1538805E-008  0.4614232E+02  0.7816164E-02  0.1320468E+00
        -11   -1    0    0    0    0  0.00000000000E+00  0.00000000000E+00  0.45593999997E+02  0.45594000000E+02  0.51100000000E-03 0.  1.
         11   -1    0    0    0    0 -0.00000000000E+00 -0.00000000000E+00 -0.45593999997E+02  0.45594000000E+02  0.51100000000E-03 0. -1.
    9900012    2    1    2    0    0 -0.39514155672E+02  0.20413090825E+02 -0.71449774859E+01  0.46142317867E+02  0.10000000968E+02 0.  0.
        -12    1    1    2    0    0  0.39514155672E+02 -0.20413090825E+02  0.71449774859E+01  0.45045682133E+02  0.00000000000E+00 0.  1.
         11    1    3    3    0    0 -0.21078397739E+02  0.12917919590E+02 -0.21221042100E+01  0.24812795577E+02  0.51100000000E-03 0. -1.
        -11    1    3    3    0    0 -0.66951629887E+01  0.43840585157E+01 -0.44803067077E+01  0.91716042746E+01  0.51100000000E-03 0.  1.
        -12    1    3    3    0    0 -0.11740594945E+02  0.31111127187E+01 -0.54256656818E+00  0.12157918016E+02  0.00000000000E+00 0.  1.
</event>
<event>
 7    1  0.1538805E-008  0.4614232E+02  0.7816164E-02  0.1320468E+00
        -11   -1    0    0    0    0  0.00000000000E+00  0.00000000000E+00  0.45593999997E+02  0.45594000000E+02  0.51100000000E-03 0. -1.
         11   -1    0    0    0    0 -0.00000000000E+00 -0.00000000000E+00 -0.45593999997E+02  0.45594000000E+02  0.51100000000E-03 0.  1.
    9900012    2    1    2    0    0  0.13731837086E+01  0.44798401574E+02 -0.45089952806E+01  0.46142318125E+02  0.10000003322E+02 0.  0.
        -12    1    1    2    0    0 -0.13731837086E+01 -0.44798401574E+02  0.45089952806E+01  0.45045681875E+02  0.00000000000E+00 0.  1.
         11    1    3    3    0    0 -0.16956461464E+01  0.87537237863E+01 -0.22391221584E+01  0.91932890894E+01  0.51100000000E-03 0. -1.
        -11    1    3    3    0    0 -0.16954865468E+00  0.98187280893E+00 -0.14099525968E+01  0.17264957415E+01  0.51100000000E-03 0.  1.
        -12    1    3    3    0    0  0.32383785096E+01  0.35062804979E+02 -0.85992052546E+00  0.35222533295E+02  0.00000000000E+00 0.  1.
</event>
<event>
 7    1  0.1538805E-008  0.4614232E+02  0.7816164E-02  0.1320468E+00
        -11   -1    0    0    0    0  0.00000000000E+00  0.00000000000E+00  0.45593999997E+02  0.45594000000E+02  0.51100000000E-03 0.  1.
         11   -1    0    0    0    0 -0.00000000000E+00 -0.00000000000E+00 -0.45593999997E+02  0.45594000000E+02  0.51100000000E-03 0. -1.
    9900012    2    1    2    0    0 -0.10637468896E+01  0.44788650120E+02 -0.46860064361E+01  0.46142318816E+02  0.10000009615E+02 0.  0.
        -12    1    1    2    0    0  0.10637468896E+01 -0.44788650120E+02  0.46860064361E+01  0.45045681184E+02  0.00000000000E+00 0.  1.
         11    1    3    3    0    0 -0.34423996603E+01  0.24553613184E+02 -0.44516902858E+01  0.25190227916E+02  0.51100000000E-03 0. -1.
        -11    1    3    3    0    0  0.94565952500E+00  0.35799611866E+00 -0.15728246582E+00  0.10233138294E+01  0.51100000000E-03 0.  1.
         12    1    3    3    0    0  0.14329932457E+01  0.19877040818E+02 -0.77033684510E-01  0.19928777070E+02  0.00000000000E+00 0. -1.
</event>
<event>
 7    1  0.1538805E-008  0.4614232E+02  0.7816164E-02  0.1320468E+00
        -11   -1    0    0    0    0  0.00000000000E+00  0.00000000000E+00  0.45593999997E+02  0.45594000000E+02  0.51100000000E-03 0.  1.
         11   -1    0    0    0    0 -0.00000000000E+00 -0.00000000000E+00 -0.45593999997E+02  0.45594000000E+02  0.51100000000E-03 0. -1.
    9900012    2    1    2    0    0  0.42489636861E+02  0.14806801513E+02  0.21219910732E+01  0.46142318101E+02  0.10000003103E+02 0.  0.
        -12    1    1    2    0    0 -0.42489636861E+02 -0.14806801513E+02 -0.21219910732E+01  0.45045681899E+02  0.00000000000E+00 0.  1.
         11    1    3    3    0    0  0.12377405152E+02  0.39177701966E+01  0.24637772003E+00  0.12984983013E+02  0.51100000000E-03 0. -1.
        -11    1    3    3    0    0  0.71404117476E+01  0.53135354050E+01 -0.22034974149E+01  0.91692169537E+01  0.51100000000E-03 0.  1.
        -12    1    3    3    0    0  0.22971819961E+02  0.55754959111E+01  0.40791107680E+01  0.23988118134E+02  0.00000000000E+00 0.  1.
</event>
<event>
 7    1  0.1538805E-008  0.4614232E+02  0.7816164E-02  0.1320468E+00
        -11   -1    0    0    0    0  0.00000000000E+00  0.00000000000E+00  0.45593999997E+02  0.45594000000E+02  0.51100000000E-03 0.  1.
         11   -1    0    0    0    0 -0.00000000000E+00 -0.00000000000E+00 -0.45593999997E+02  0.45594000000E+02  0.51100000000E-03 0. -1.
    9900012    2    1    2    0    0 -0.38665119378E+02 -0.19031097460E+02 -0.13112566328E+02  0.46142317379E+02  0.99999965201E+01 0.  0.
        -12    1    1    2    0    0  0.38665119378E+02  0.19031097460E+02  0.13112566328E+02  0.45045682621E+02  0.00000000000E+00 0.  1.
         11    1    3    3    0    0 -0.25863264958E+02 -0.15670429142E+02 -0.61134420666E+01  0.30851985316E+02  0.51100000000E-03 0. -1.
        -11    1    3    3    0    0 -0.49524098385E+01 -0.42508647748E-01 -0.35659740366E+01  0.61028142102E+01  0.51100000000E-03 0.  1.
        -12    1    3    3    0    0 -0.78494445813E+01 -0.33181596695E+01 -0.34331502253E+01  0.91875178528E+01  0.00000000000E+00 0.  1.
</event>
<event>
 7    1  0.1538805E-008  0.4614232E+02  0.7816164E-02  0.1320468E+00
        -11   -1    0    0    0    0  0.00000000000E+00  0.00000000000E+00  0.45593999997E+02  0.45594000000E+02  0.51100000000E-03 0.  1.
         11   -1    0    0    0    0 -0.00000000000E+00 -0.00000000000E+00 -0.45593999997E+02  0.45594000000E+02  0.51100000000E-03 0. -1.
    9900012    2    1    2    0    0 -0.15189557586E+02 -0.50256012775E+01 -0.42108599175E+02  0.46142318161E+02  0.10000003643E+02 0.  0.
        -12    1    1    2    0    0  0.15189557586E+02  0.50256012775E+01  0.42108599175E+02  0.45045681839E+02  0.00000000000E+00 0.  1.
         11    1    3    3    0    0 -0.14972105999E+02 -0.31194814471E+01 -0.37344911189E+02  0.40355142355E+02  0.51100000000E-03 0. -1.
        -11    1    3    3    0    0 -0.61342898802E+00 -0.22636554421E+01 -0.23681616353E+01  0.33329597771E+01  0.51100000000E-03 0.  1.
         12    1    3    3    0    0  0.39597740043E+00  0.35753561169E+00 -0.23955263511E+01  0.24542160284E+01  0.00000000000E+00 0. -1.
</event>
<event>
 7    1  0.1538805E-008  0.4614232E+02  0.7816164E-02  0.1320468E+00
        -11   -1    0    0    0    0  0.00000000000E+00  0.00000000000E+00  0.45593999997E+02  0.45594000000E+02  0.51100000000E-03 0.  1.
         11   -1    0    0    0    0 -0.00000000000E+00 -0.00000000000E+00 -0.45593999997E+02  0.45594000000E+02  0.51100000000E-03 0. -1.
    9900012    2    1    2    0    0 -0.39275164194E+01 -0.80275034132E+01 -0.44150280202E+02  0.46142318318E+02  0.10000005082E+02 0.  0.
        -12    1    1    2    0    0  0.39275164194E+01  0.80275034132E+01  0.44150280202E+02  0.45045681682E+02  0.00000000000E+00 0.  1.
         11    1    3    3    0    0 -0.21200450785E+00 -0.43552000480E+01 -0.31038922630E+02  0.31343698437E+02  0.51100000000E-03 0. -1.
        -11    1    3    3    0    0  0.20531400433E-01 -0.29796345967E+01 -0.46433121769E+01  0.55171543482E+01  0.51100000000E-03 0.  1.
        -12    1    3    3    0    0 -0.37360433120E+01 -0.69266876845E+00 -0.84680453942E+01  0.92814655335E+01  0.00000000000E+00 0.  1.
</event>
<event>
 7    1  0.1538805E-008  0.4614232E+02  0.7816164E-02  0.1320468E+00
        -11   -1    0    0    0    0  0.00000000000E+00  0.00000000000E+00  0.45593999997E+02  0.45594000000E+02  0.51100000000E-03 0.  1.
         11   -1    0    0    0    0 -0.00000000000E+00 -0.00000000000E+00 -0.45593999997E+02  0.45594000000E+02  0.51100000000E-03 0. -1.
    9900012    2    1    2    0    0  0.18033862604E+02 -0.40392432676E+02 -0.85055627964E+01  0.46142318560E+02  0.10000007285E+02 0.  0.
        -12    1    1    2    0    0 -0.18033862604E+02  0.40392432676E+02  0.85055627964E+01  0.45045681440E+02  0.00000000000E+00 0.  1.
         11    1    3    3    0    0  0.17950631489E+01 -0.84938836414E+01 -0.48930153571E+01  0.99654357942E+01  0.51100000000E-03 0. -1.
        -11    1    3    3    0    0  0.29566775535E+01 -0.79160993210E+01  0.45233698021E+00  0.84623388978E+01  0.51100000000E-03 0.  1.
         12    1    3    3    0    0  0.13282121901E+02 -0.23982449714E+02 -0.40648844195E+01  0.27714543868E+02  0.00000000000E+00 0. -1.
</event>
<event>
 7    1  0.1538805E-008  0.4614232E+02  0.7816164E-02  0.1320468E+00
        -11   -1    0    0    0    0  0.00000000000E+00  0.00000000000E+00  0.45593999997E+02  0.45594000000E+02  0.51100000000E-03 0.  1.
         11   -1    0    0    0    0 -0.00000000000E+00 -0.00000000000E+00 -0.45593999997E+02  0.45594000000E+02  0.51100000000E-03 0. -1.
    9900012    2    1    2    0    0  0.12391603274E+02 -0.52756193962E+01 -0.42985224438E+02  0.46142317502E+02  0.99999976393E+01 0.  0.
        -12    1    1    2    0    0 -0.12391603274E+02  0.52756193962E+01  0.42985224438E+02  0.45045682498E+02  0.00000000000E+00 0.  1.
         11    1    3    3    0    0 -0.41474362687E+00 -0.20097380395E+00  0.10698068596E+00  0.47312564313E+00  0.51100000000E-03 0. -1.
        -11    1    3    3    0    0 -0.49117566407E+00 -0.75868084135E+00 -0.52473780484E+01  0.53246433492E+01  0.51100000000E-03 0.  1.
         12    1    3    3    0    0  0.13297522565E+02 -0.43159647509E+01 -0.37844827075E+02  0.40344548510E+02  0.00000000000E+00 0. -1.
</event>
<event>
 7    1  0.1538805E-008  0.4614232E+02  0.7816164E-02  0.1320468E+00
        -11   -1    0    0    0    0  0.00000000000E+00  0.00000000000E+00  0.45593999997E+02  0.45594000000E+02  0.51100000000E-03 0.  1.
         11   -1    0    0    0    0 -0.00000000000E+00 -0.00000000000E+00 -0.45593999997E+02  0.45594000000E+02  0.51100000000E-03 0. -1.
    9900012    2    1    2    0    0 -0.19479600949E+02 -0.32396998156E+02 -0.24496798088E+02  0.46142318085E+02  0.10000002954E+02 0.  0.
        -12    1    1    2    0    0  0.19479600949E+02  0.32396998156E+02  0.24496798088E+02  0.45045681915E+02  0.00000000000E+00 0.  1.
         11    1    3    3    0    0 -0.50196946627E+01 -0.15616075396E+02 -0.94769558018E+01  0.18943912922E+02  0.51100000000E-03 0. -1.
        -11    1    3    3    0    0 -0.95842996969E+01 -0.10532445226E+02 -0.12306271555E+02  0.18821145634E+02  0.51100000000E-03 0.  1.
         12    1    3    3    0    0 -0.48756065889E+01 -0.62484775342E+01 -0.27135707307E+01  0.83772595289E+01  0.00000000000E+00 0. -1.
</event>
<event>
 7    1  0.1538805E-008  0.4614232E+02  0.7816164E-02  0.1320468E+00
        -11   -1    0    0    0    0  0.00000000000E+00  0.00000000000E+00  0.45593999997E+02  0.45594000000E+02  0.51100000000E-03 0.  1.
         11   -1    0    0    0    0 -0.00000000000E+00 -0.00000000000E+00 -0.45593999997E+02  0.45594000000E+02  0.51100000000E-03 0. -1.
    9900012    2    1    2    0    0 -0.36782488965E+02  0.25917341529E+02 -0.21103281281E+01  0.46142316842E+02  0.99999916172E+01 0.  0.
        -12    1    1    2    0    0  0.36782488965E+02 -0.25917341529E+02  0.21103281281E+01  0.45045683158E+02  0.00000000000E+00 0.  1.
         11    1    3    3    0    0 -0.21450209893E+02  0.15056952157E+02 -0.57418186206E+01  0.26828935761E+02  0.51100000000E-03 0. -1.
        -11    1    3    3    0    0 -0.14358643251E+01  0.50503739654E+00  0.90212003943E+00  0.17693473256E+01  0.51100000000E-03 0.  1.
         12    1    3    3    0    0 -0.13896414746E+02  0.10355351976E+02  0.27293704531E+01  0.17544033755E+02  0.00000000000E+00 0. -1.
</event>
<event>
 7    1  0.1538805E-008  0.4614232E+02  0.7816164E-02  0.1320468E+00
        -11   -1    0    0    0    0  0.00000000000E+00  0.00000000000E+00  0.45593999997E+02  0.45594000000E+02  0.51100000000E-03 0. -1.
         11   -1    0    0    0    0 -0.00000000000E+00 -0.00000000000E+00 -0.45593999997E+02  0.45594000000E+02  0.51100000000E-03 0.  1.
    9900012    2    1    2    0    0 -0.42419941752E+02  0.80434494249E+01  0.12843870654E+02  0.46142317074E+02  0.99999937350E+01 0.  0.
        -12    1    1    2    0    0  0.42419941752E+02 -0.80434494249E+01 -0.12843870654E+02  0.45045682926E+02  0.00000000000E+00 0.  1.
         11    1    3    3    0    0 -0.21550256578E+02  0.55419247706E+01  0.49367765022E+01  0.22792504277E+02  0.51100000000E-03 0. -1.
        -11    1    3    3    0    0 -0.12284812832E+02  0.13409980292E+01  0.79364549094E+01  0.14686804241E+02  0.51100000000E-03 0.  1.
        -12    1    3    3    0    0 -0.85848723424E+01  0.11605266251E+01 -0.29360757906E-01  0.86630085558E+01  0.00000000000E+00 0.  1.
</event>
<event>
 7    1  0.1538805E-008  0.4614232E+02  0.7816164E-02  0.1320468E+00
        -11   -1    0    0    0    0  0.00000000000E+00  0.00000000000E+00  0.45593999997E+02  0.45594000000E+02  0.51100000000E-03 0.  1.
         11   -1    0    0    0    0 -0.00000000000E+00 -0.00000000000E+00 -0.45593999997E+02  0.45594000000E+02  0.51100000000E-03 0. -1.
    9900012    2    1    2    0    0  0.14975960910E+02  0.54432675529E-01 -0.42483304585E+02  0.46142317226E+02  0.99999951223E+01 0.  0.
        -12    1    1    2    0    0 -0.14975960910E+02 -0.54432675529E-01  0.42483304585E+02  0.45045682774E+02  0.00000000000E+00 0.  1.
         11    1    3    3    0    0  0.35492405196E+01 -0.13504203169E+00 -0.14585373624E+02  0.15011611127E+02  0.51100000000E-03 0. -1.
        -11    1    3    3    0    0  0.11075116526E+02 -0.22902420887E+01 -0.22865062544E+02  0.25509106223E+02  0.51100000000E-03 0.  1.
        -12    1    3    3    0    0  0.35160386430E+00  0.24797167959E+01 -0.50328684165E+01  0.56215998757E+01  0.00000000000E+00 0.  1.
</event>
<event>
 7    1  0.1538805E-008  0.4614232E+02  0.7816164E-02  0.1320468E+00
        -11   -1    0    0    0    0  0.00000000000E+00  0.00000000000E+00  0.45593999997E+02  0.45594000000E+02  0.51100000000E-03 0.  1.
         11   -1    0    0    0    0 -0.00000000000E+00 -0.00000000000E+00 -0.45593999997E+02  0.45594000000E+02  0.51100000000E-03 0. -1.
    9900012    2    1    2    0    0  0.36406290182E+02  0.24634622108E+02 -0.98402742792E+01  0.46142316865E+02  0.99999918265E+01 0.  0.
        -12    1    1    2    0    0 -0.36406290182E+02 -0.24634622108E+02  0.98402742792E+01  0.45045683135E+02  0.00000000000E+00 0.  1.
         11    1    3    3    0    0  0.84375483422E+01  0.10363524961E+02 -0.46020037525E+01  0.14134118666E+02  0.51100000000E-03 0. -1.
        -11    1    3    3    0    0  0.21828567278E+02  0.97159712315E+01 -0.46391777774E+01  0.24339441593E+02  0.51100000000E-03 0.  1.
         12    1    3    3    0    0  0.61401745625E+01  0.45551259146E+01 -0.59909274936E+00  0.76687566057E+01  0.00000000000E+00 0. -1.
</event>
<event>
 7    1  0.1538805E-008  0.4614232E+02  0.7816164E-02  0.1320468E+00
        -11   -1    0    0    0    0  0.00000000000E+00  0.00000000000E+00  0.45593999997E+02  0.45594000000E+02  0.51100000000E-03 0.  1.
         11   -1    0    0    0    0 -0.00000000000E+00 -0.00000000000E+00 -0.45593999997E+02  0.45594000000E+02  0.51100000000E-03 0. -1.
    9900012    2    1    2    0    0  0.51079507784E+01  0.24933785534E+02 -0.37166230547E+02  0.46142317462E+02  0.99999972741E+01 0.  0.
        -12    1    1    2    0    0 -0.51079507784E+01 -0.24933785534E+02  0.37166230547E+02  0.45045682538E+02  0.00000000000E+00 0.  1.
         11    1    3    3    0    0  0.69541315424E+00  0.10520007887E+02 -0.15153187053E+02  0.18460044515E+02  0.51100000000E-03 0.  1.
        -11    1    3    3    0    0  0.57489937625E+01  0.95230555642E+01 -0.11440725879E+02  0.15957121465E+02  0.51100000000E-03 0. -1.
         12    1    3    3    0    0 -0.13364561384E+01  0.48907220837E+01 -0.10572317615E+02  0.11725151481E+02  0.00000000000E+00 0. -1.
</event>
<event>
 7    1  0.1538805E-008  0.4614232E+02  0.7816164E-02  0.1320468E+00
        -11   -1    0    0    0    0  0.00000000000E+00  0.00000000000E+00  0.45593999997E+02  0.45594000000E+02  0.51100000000E-03 0. -1.
         11   -1    0    0    0    0 -0.00000000000E+00 -0.00000000000E+00 -0.45593999997E+02  0.45594000000E+02  0.51100000000E-03 0.  1.
    9900012    2    1    2    0    0  0.41095753249E+02 -0.18089223300E+02 -0.36100492921E+01  0.46142318847E+02  0.10000009898E+02 0.  0.
        -12    1    1    2    0    0 -0.41095753249E+02  0.18089223300E+02  0.36100492921E+01  0.45045681153E+02  0.00000000000E+00 0.  1.
         11    1    3    3    0    0  0.18676147086E+02 -0.12550050891E+02 -0.45025560026E+01  0.22947227679E+02  0.51100000000E-03 0. -1.
        -11    1    3    3    0    0  0.37839642149E+01 -0.12179333862E+01  0.84977500748E+00  0.40649556871E+01  0.51100000000E-03 0.  1.
         12    1    3    3    0    0  0.18635641948E+02 -0.43212390233E+01  0.42731703001E-01  0.19130135480E+02  0.00000000000E+00 0. -1.
</event>
<event>
 7    1  0.1538805E-008  0.4614232E+02  0.7816164E-02  0.1320468E+00
        -11   -1    0    0    0    0  0.00000000000E+00  0.00000000000E+00  0.45593999997E+02  0.45594000000E+02  0.51100000000E-03 0. -1.
         11   -1    0    0    0    0 -0.00000000000E+00 -0.00000000000E+00 -0.45593999997E+02  0.45594000000E+02  0.51100000000E-03 0.  1.
    9900012    2    1    2    0    0 -0.13212667345E+02  0.11527793464E+02 -0.41492757315E+02  0.46142317519E+02  0.99999977941E+01 0.  0.
        -12    1    1    2    0    0  0.13212667345E+02 -0.11527793464E+02  0.41492757315E+02  0.45045682481E+02  0.00000000000E+00 0.  1.
         11    1    3    3    0    0 -0.38340222900E+01  0.74989551274E+01 -0.16432884499E+02  0.18465474490E+02  0.51100000000E-03 0. -1.
        -11    1    3    3    0    0 -0.64674704831E+01  0.15081123830E+01 -0.91401949621E+01  0.11298041495E+02  0.51100000000E-03 0.  1.
        -12    1    3    3    0    0 -0.29111745719E+01  0.25207259538E+01 -0.15919677854E+02  0.16378801534E+02  0.00000000000E+00 0.  1.
</event>
<event>
 7    1  0.1538805E-008  0.4614232E+02  0.7816164E-02  0.1320468E+00
        -11   -1    0    0    0    0  0.00000000000E+00  0.00000000000E+00  0.45593999997E+02  0.45594000000E+02  0.51100000000E-03 0.  1.
         11   -1    0    0    0    0 -0.00000000000E+00 -0.00000000000E+00 -0.45593999997E+02  0.45594000000E+02  0.51100000000E-03 0. -1.
    9900012    2    1    2    0    0  0.83372589318E+01 -0.33960415528E+02 -0.28395312681E+02  0.46142317726E+02  0.99999996759E+01 0.  0.
        -12    1    1    2    0    0 -0.83372589318E+01  0.33960415528E+02  0.28395312681E+02  0.45045682274E+02  0.00000000000E+00 0.  1.
         11    1    3    3    0    0  0.60121641071E+01 -0.14118906921E+02 -0.15832912782E+02  0.22049280653E+02  0.51100000000E-03 0. -1.
        -11    1    3    3    0    0 -0.14272343066E+01 -0.44408944236E+01 -0.35235980570E+01  0.58458775711E+01  0.51100000000E-03 0.  1.
         12    1    3    3    0    0  0.37523291313E+01 -0.15400614183E+02 -0.90388018417E+01  0.18247159501E+02  0.00000000000E+00 0. -1.
</event>
<event>
 7    1  0.1538805E-008  0.4614232E+02  0.7816164E-02  0.1320468E+00
        -11   -1    0    0    0    0  0.00000000000E+00  0.00000000000E+00  0.45593999997E+02  0.45594000000E+02  0.51100000000E-03 0.  1.
         11   -1    0    0    0    0 -0.00000000000E+00 -0.00000000000E+00 -0.45593999997E+02  0.45594000000E+02  0.51100000000E-03 0. -1.
    9900012    2    1    2    0    0  0.24252979684E+02 -0.33506010500E+02 -0.17839667653E+02  0.46142317575E+02  0.99999983034E+01 0.  0.
        -12    1    1    2    0    0 -0.24252979684E+02  0.33506010500E+02  0.17839667653E+02  0.45045682425E+02  0.00000000000E+00 0.  1.
         11    1    3    3    0    0  0.10526153357E+02 -0.13219198229E+02 -0.53528582198E+01  0.17725693151E+02  0.51100000000E-03 0. -1.
        -11    1    3    3    0    0  0.20723164410E+01 -0.60695403889E+01 -0.42169522982E+00  0.64274134060E+01  0.51100000000E-03 0.  1.
         12    1    3    3    0    0  0.11654509886E+02 -0.14217271882E+02 -0.12065114203E+02  0.21989211018E+02  0.00000000000E+00 0. -1.
</event>
<event>
 7    1  0.1538805E-008  0.4614232E+02  0.7816164E-02  0.1320468E+00
        -11   -1    0    0    0    0  0.00000000000E+00  0.00000000000E+00  0.45593999997E+02  0.45594000000E+02  0.51100000000E-03 0.  1.
         11   -1    0    0    0    0 -0.00000000000E+00 -0.00000000000E+00 -0.45593999997E+02  0.45594000000E+02  0.51100000000E-03 0. -1.
    9900012    2    1    2    0    0  0.12005011210E+02  0.17805783915E+02 -0.39597313925E+02  0.46142317576E+02  0.99999983154E+01 0.  0.
        -12    1    1    2    0    0 -0.12005011210E+02 -0.17805783915E+02  0.39597313925E+02  0.45045682424E+02  0.00000000000E+00 0.  1.
         11    1    3    3    0    0 -0.46805607115E+00  0.54139375885E+01 -0.10710064510E+02  0.12009799281E+02  0.51100000000E-03 0. -1.
        -11    1    3    3    0    0  0.89078594131E+01  0.67165962343E+01 -0.21023021246E+02  0.23799790899E+02  0.51100000000E-03 0.  1.
         12    1    3    3    0    0  0.35652078681E+01  0.56752500920E+01 -0.78642281687E+01  0.10332727396E+02  0.00000000000E+00 0. -1.
</event>
<event>
 7    1  0.1538805E-008  0.4614232E+02  0.7816164E-02  0.1320468E+00
        -11   -1    0    0    0    0  0.00000000000E+00  0.00000000000E+00  0.45593999997E+02  0.45594000000E+02  0.51100000000E-03 0.  1.
         11   -1    0    0    0    0 -0.00000000000E+00 -0.00000000000E+00 -0.45593999997E+02  0.45594000000E+02  0.51100000000E-03 0. -1.
    9900012    2    1    2    0    0  0.16242864011E+02 -0.39802652353E+02 -0.13454802604E+02  0.46142317868E+02  0.10000000978E+02 0.  0.
        -12    1    1    2    0    0 -0.16242864011E+02  0.39802652353E+02  0.13454802604E+02  0.45045682132E+02  0.00000000000E+00 0.  1.
         11    1    3    3    0    0  0.95204664504E+01 -0.29624238081E+02 -0.64415371548E+01  0.31776220110E+02  0.51100000000E-03 0. -1.
        -11    1    3    3    0    0  0.42478113636E+01 -0.63124265241E+01 -0.59386232896E+01  0.96518328228E+01  0.51100000000E-03 0.  1.
         12    1    3    3    0    0  0.24745861964E+01 -0.38659877482E+01 -0.10746421600E+01  0.47142649358E+01  0.00000000000E+00 0. -1.
</event>
<event>
 7    1  0.1538805E-008  0.4614232E+02  0.7816164E-02  0.1320468E+00
        -11   -1    0    0    0    0  0.00000000000E+00  0.00000000000E+00  0.45593999997E+02  0.45594000000E+02  0.51100000000E-03 0.  1.
         11   -1    0    0    0    0 -0.00000000000E+00 -0.00000000000E+00 -0.45593999997E+02  0.45594000000E+02  0.51100000000E-03 0. -1.
    9900012    2    1    2    0    0  0.25190311750E+02  0.21428281112E+02 -0.30584154341E+02  0.46142317252E+02  0.99999953546E+01 0.  0.
        -12    1    1    2    0    0 -0.25190311750E+02 -0.21428281112E+02  0.30584154341E+02  0.45045682748E+02  0.00000000000E+00 0.  1.
         11    1    3    3    0    0  0.10179486591E+02  0.80961217433E+01 -0.14215056728E+02  0.19267510804E+02  0.51100000000E-03 0. -1.
        -11    1    3    3    0    0  0.85773347312E+01  0.11599993783E+02 -0.93201893721E+01  0.17175460898E+02  0.51100000000E-03 0.  1.
         12    1    3    3    0    0  0.64334904279E+01  0.17321655857E+01 -0.70489082409E+01  0.96993455496E+01  0.00000000000E+00 0. -1.
</event>
<event>
 7    1  0.1538805E-008  0.4614232E+02  0.7816164E-02  0.1320468E+00
        -11   -1    0    0    0    0  0.00000000000E+00  0.00000000000E+00  0.45593999997E+02  0.45594000000E+02  0.51100000000E-03 0.  1.
         11   -1    0    0    0    0 -0.00000000000E+00 -0.00000000000E+00 -0.45593999997E+02  0.45594000000E+02  0.51100000000E-03 0. -1.
    9900012    2    1    2    0    0  0.52377874201E+01  0.18424968936E+02 -0.40770081634E+02  0.46142318145E+02  0.10000003500E+02 0.  0.
        -12    1    1    2    0    0 -0.52377874201E+01 -0.18424968936E+02  0.40770081634E+02  0.45045681855E+02  0.00000000000E+00 0.  1.
         11    1    3    3    0    0  0.29375938205E+01  0.10641824125E+01 -0.56627312032E+01  0.64674930694E+01  0.51100000000E-03 0. -1.
        -11    1    3    3    0    0  0.41189333113E+01  0.14613691113E+02 -0.28533640979E+02  0.32321730265E+02  0.51100000000E-03 0.  1.
        -12    1    3    3    0    0 -0.18187397118E+01  0.27470954110E+01 -0.65737094514E+01  0.73530948102E+01  0.00000000000E+00 0.  1.
</event>
<event>
 7    1  0.1538805E-008  0.4614232E+02  0.7816164E-02  0.1320468E+00
        -11   -1    0    0    0    0  0.00000000000E+00  0.00000000000E+00  0.45593999997E+02  0.45594000000E+02  0.51100000000E-03 0.  1.
         11   -1    0    0    0    0 -0.00000000000E+00 -0.00000000000E+00 -0.45593999997E+02  0.45594000000E+02  0.51100000000E-03 0. -1.
    9900012    2    1    2    0    0  0.25542909934E+02 -0.14206810198E+02 -0.34275934988E+02  0.46142318484E+02  0.10000006594E+02 0.  0.
        -12    1    1    2    0    0 -0.25542909934E+02  0.14206810198E+02  0.34275934988E+02  0.45045681516E+02  0.00000000000E+00 0.  1.
         11    1    3    3    0    0  0.40900305253E+01 -0.17033779825E+01 -0.11401096749E+02  0.12231715072E+02  0.51100000000E-03 0. -1.
        -11    1    3    3    0    0  0.56710262737E+01 -0.24518167179E+01 -0.41721097416E+01  0.74550951819E+01  0.51100000000E-03 0.  1.
        -12    1    3    3    0    0  0.15781853135E+02 -0.10051615498E+02 -0.18702728497E+02  0.26455508230E+02  0.00000000000E+00 0.  1.
</event>
<event>
 7    1  0.1538805E-008  0.4614232E+02  0.7816164E-02  0.1320468E+00
        -11   -1    0    0    0    0  0.00000000000E+00  0.00000000000E+00  0.45593999997E+02  0.45594000000E+02  0.51100000000E-03 0.  1.
         11   -1    0    0    0    0 -0.00000000000E+00 -0.00000000000E+00 -0.45593999997E+02  0.45594000000E+02  0.51100000000E-03 0. -1.
    9900012    2    1    2    0    0  0.36364805662E+02  0.20806191674E+02 -0.16547414482E+02  0.46142316202E+02  0.99999857797E+01 0.  0.
        -12    1    1    2    0    0 -0.36364805662E+02 -0.20806191674E+02  0.16547414482E+02  0.45045683798E+02  0.00000000000E+00 0.  1.
         11    1    3    3    0    0  0.42583641397E+01  0.37905559115E+01  0.40298634469E+00  0.57152758043E+01  0.51100000000E-03 0. -1.
        -11    1    3    3    0    0  0.17756869861E+02  0.11407088458E+02 -0.77548208764E+01  0.22484780218E+02  0.51100000000E-03 0.  1.
         12    1    3    3    0    0  0.14349571661E+02  0.56085473044E+01 -0.91955799503E+01  0.17942260179E+02  0.00000000000E+00 0. -1.
</event>
<event>
 7    1  0.1538805E-008  0.4614232E+02  0.7816164E-02  0.1320468E+00
        -11   -1    0    0    0    0  0.00000000000E+00  0.00000000000E+00  0.45593999997E+02  0.45594000000E+02  0.51100000000E-03 0.  1.
         11   -1    0    0    0    0 -0.00000000000E+00 -0.00000000000E+00 -0.45593999997E+02  0.45594000000E+02  0.51100000000E-03 0. -1.
    9900012    2    1    2    0    0  0.92343644965E+01 -0.42825106110E+02 -0.10480950305E+02  0.46142317407E+02  0.99999967670E+01 0.  0.
        -12    1    1    2    0    0 -0.92343644965E+01  0.42825106110E+02  0.10480950305E+02  0.45045682593E+02  0.00000000000E+00 0.  1.
         11    1    3    3    0    0 -0.10885623889E+01 -0.12844727939E+02 -0.31302603707E+01  0.13265388579E+02  0.51100000000E-03 0. -1.
        -11    1    3    3    0    0  0.97532125710E+01 -0.26347541853E+02 -0.50664528592E+01  0.28547978247E+02  0.51100000000E-03 0.  1.
        -12    1    3    3    0    0  0.56971431438E+00 -0.36328363186E+01 -0.22842370748E+01  0.43289505809E+01  0.00000000000E+00 0.  1.
</event>
<event>
 7    1  0.1538805E-008  0.4614232E+02  0.7816164E-02  0.1320468E+00
        -11   -1    0    0    0    0  0.00000000000E+00  0.00000000000E+00  0.45593999997E+02  0.45594000000E+02  0.51100000000E-03 0. -1.
         11   -1    0    0    0    0 -0.00000000000E+00 -0.00000000000E+00 -0.45593999997E+02  0.45594000000E+02  0.51100000000E-03 0.  1.
    9900012    2    1    2    0    0 -0.43219675968E+02  0.10674744586E+02  0.68718915926E+01  0.46142318111E+02  0.10000003189E+02 0.  0.
        -12    1    1    2    0    0  0.43219675968E+02 -0.10674744586E+02 -0.68718915926E+01  0.45045681889E+02  0.00000000000E+00 0.  1.
         11    1    3    3    0    0 -0.29937543455E+02  0.35118932840E+01  0.53550785402E+01  0.30614812901E+02  0.51100000000E-03 0. -1.
        -11    1    3    3    0    0 -0.12708692892E+02  0.69898683733E+01  0.70842217332E+00  0.14521397906E+02  0.51100000000E-03 0.  1.
         12    1    3    3    0    0 -0.57343962148E+00  0.17298292918E+00  0.80839087911E+00  0.10061073038E+01  0.00000000000E+00 0. -1.
</event>
<event>
 7    1  0.1538805E-008  0.4614232E+02  0.7816164E-02  0.1320468E+00
        -11   -1    0    0    0    0  0.00000000000E+00  0.00000000000E+00  0.45593999997E+02  0.45594000000E+02  0.51100000000E-03 0. -1.
         11   -1    0    0    0    0 -0.00000000000E+00 -0.00000000000E+00 -0.45593999997E+02  0.45594000000E+02  0.51100000000E-03 0.  1.
    9900012    2    1    2    0    0 -0.37495261848E+02  0.14327957232E+02  0.20443298804E+02  0.46142317793E+02  0.10000000293E+02 0.  0.
        -12    1    1    2    0    0  0.37495261848E+02 -0.14327957232E+02 -0.20443298804E+02  0.45045682207E+02  0.00000000000E+00 0.  1.
         11    1    3    3    0    0 -0.60952771557E+01  0.40355073848E+01  0.32843158494E+01  0.80140161166E+01  0.51100000000E-03 0. -1.
        -11    1    3    3    0    0 -0.27975196541E+02  0.11454285085E+02  0.13947949710E+02  0.33292004591E+02  0.51100000000E-03 0.  1.
        -12    1    3    3    0    0 -0.34247881509E+01 -0.11618352378E+01  0.32110332450E+01  0.48362970855E+01  0.00000000000E+00 0.  1.
</event>
<event>
 7    1  0.1538805E-008  0.4614232E+02  0.7816164E-02  0.1320468E+00
        -11   -1    0    0    0    0  0.00000000000E+00  0.00000000000E+00  0.45593999997E+02  0.45594000000E+02  0.51100000000E-03 0.  1.
         11   -1    0    0    0    0 -0.00000000000E+00 -0.00000000000E+00 -0.45593999997E+02  0.45594000000E+02  0.51100000000E-03 0. -1.
    9900012    2    1    2    0    0  0.21635956249E+02  0.23592282969E+01 -0.39438977197E+02  0.46142317818E+02  0.10000000516E+02 0.  0.
        -12    1    1    2    0    0 -0.21635956249E+02 -0.23592282969E+01  0.39438977197E+02  0.45045682182E+02  0.00000000000E+00 0.  1.
         11    1    3    3    0    0  0.12810136490E+02  0.38040982258E+00 -0.20120365953E+02  0.23855260109E+02  0.51100000000E-03 0. -1.
        -11    1    3    3    0    0 -0.12254816739E+00  0.10839868162E+01 -0.13380128058E+00  0.10990671111E+01  0.51100000000E-03 0.  1.
        -12    1    3    3    0    0  0.89483679257E+01  0.89483165814E+00 -0.19184809963E+02  0.21187990597E+02  0.00000000000E+00 0.  1.
</event>
<event>
 7    1  0.1538805E-008  0.4614232E+02  0.7816164E-02  0.1320468E+00
        -11   -1    0    0    0    0  0.00000000000E+00  0.00000000000E+00  0.45593999997E+02  0.45594000000E+02  0.51100000000E-03 0.  1.
         11   -1    0    0    0    0 -0.00000000000E+00 -0.00000000000E+00 -0.45593999997E+02  0.45594000000E+02  0.51100000000E-03 0. -1.
    9900012    2    1    2    0    0 -0.22609760163E+02 -0.14125741271E+02 -0.36309441039E+02  0.46142319523E+02  0.10000016066E+02 0.  0.
        -12    1    1    2    0    0  0.22609760163E+02  0.14125741271E+02  0.36309441039E+02  0.45045680477E+02  0.00000000000E+00 0.  1.
         11    1    3    3    0    0 -0.16438841782E+02 -0.96105919735E+01 -0.27830127794E+02  0.33721135961E+02  0.51100000000E-03 0. -1.
        -11    1    3    3    0    0 -0.36030412715E+00 -0.58999494633E+00  0.62332771242E+00  0.93083338945E+00  0.51100000000E-03 0.  1.
        -12    1    3    3    0    0 -0.58106142543E+01 -0.39251543514E+01 -0.91026409568E+01  0.11490350172E+02  0.00000000000E+00 0.  1.
</event>
<event>
 7    1  0.1538805E-008  0.4614232E+02  0.7816164E-02  0.1320468E+00
        -11   -1    0    0    0    0  0.00000000000E+00  0.00000000000E+00  0.45593999997E+02  0.45594000000E+02  0.51100000000E-03 0.  1.
         11   -1    0    0    0    0 -0.00000000000E+00 -0.00000000000E+00 -0.45593999997E+02  0.45594000000E+02  0.51100000000E-03 0. -1.
    9900012    2    1    2    0    0 -0.12113056546E+01  0.42107983122E+02  0.15955060064E+02  0.46142318235E+02  0.10000004322E+02 0.  0.
        -12    1    1    2    0    0  0.12113056546E+01 -0.42107983122E+02 -0.15955060064E+02  0.45045681765E+02  0.00000000000E+00 0.  1.
         11    1    3    3    0    0  0.31208957358E+01  0.13875753704E+02  0.27698994967E+01  0.14489612643E+02  0.51100000000E-03 0. -1.
        -11    1    3    3    0    0 -0.17839957917E+01  0.57950468681E+01  0.15906981550E+01  0.62686146850E+01  0.51100000000E-03 0.  1.
         12    1    3    3    0    0 -0.25482055987E+01  0.22437182550E+02  0.11594462412E+02  0.25384090907E+02  0.00000000000E+00 0. -1.
</event>
<event>
 7    1  0.1538805E-008  0.4614233E+02  0.7816164E-02  0.1320468E+00
        -11   -1    0    0    0    0  0.00000000000E+00  0.00000000000E+00  0.45593999997E+02  0.45594000000E+02  0.51100000000E-03 0.  1.
         11   -1    0    0    0    0 -0.00000000000E+00 -0.00000000000E+00 -0.45593999997E+02  0.45594000000E+02  0.51100000000E-03 0. -1.
    9900012    2    1    2    0    0  0.28056991618E+02  0.30079455659E+02  0.18361487369E+02  0.46142327069E+02  0.10000084874E+02 0.  0.
        -12    1    1    2    0    0 -0.28056991618E+02 -0.30079455659E+02 -0.18361487369E+02  0.45045672931E+02  0.00000000000E+00 0.  1.
         11    1    3    3    0    0  0.50466451144E+01  0.81642646753E+01  0.58691361838E+01  0.11250360190E+02  0.51100000000E-03 0. -1.
        -11    1    3    3    0    0  0.13514070309E+02  0.11769161132E+02  0.32778296078E+01  0.18217777506E+02  0.51100000000E-03 0.  1.
        -12    1    3    3    0    0  0.94962761948E+01  0.10146029853E+02  0.92145215778E+01  0.16674189373E+02  0.00000000000E+00 0.  1.
</event>
<event>
 7    1  0.1538805E-008  0.4614232E+02  0.7816164E-02  0.1320468E+00
        -11   -1    0    0    0    0  0.00000000000E+00  0.00000000000E+00  0.45593999997E+02  0.45594000000E+02  0.51100000000E-03 0. -1.
         11   -1    0    0    0    0 -0.00000000000E+00 -0.00000000000E+00 -0.45593999997E+02  0.45594000000E+02  0.51100000000E-03 0.  1.
    9900012    2    1    2    0    0  0.43731493831E+02  0.10322538194E+02  0.31804333946E+01  0.46142317587E+02  0.99999984164E+01 0.  0.
        -12    1    1    2    0    0 -0.43731493831E+02 -0.10322538194E+02 -0.31804333946E+01  0.45045682413E+02  0.00000000000E+00 0.  1.
         11    1    3    3    0    0  0.16652732521E+02  0.59975333620E+01  0.20311558747E+00  0.17700993278E+02  0.51100000000E-03 0. -1.
        -11    1    3    3    0    0  0.16030162455E+02  0.14764648962E+01  0.49934107182E+01  0.16854679107E+02  0.51100000000E-03 0.  1.
         12    1    3    3    0    0  0.11048598855E+02  0.28485399361E+01 -0.20160929110E+01  0.11586645203E+02  0.00000000000E+00 0. -1.
</event>
<event>
 7    1  0.1538805E-008  0.4614232E+02  0.7816164E-02  0.1320468E+00
        -11   -1    0    0    0    0  0.00000000000E+00  0.00000000000E+00  0.45593999997E+02  0.45594000000E+02  0.51100000000E-03 0.  1.
         11   -1    0    0    0    0 -0.00000000000E+00 -0.00000000000E+00 -0.45593999997E+02  0.45594000000E+02  0.51100000000E-03 0. -1.
    9900012    2    1    2    0    0  0.22818896464E+02 -0.24170625845E+02 -0.30400530875E+02  0.46142317997E+02  0.10000002154E+02 0.  0.
        -12    1    1    2    0    0 -0.22818896464E+02  0.24170625845E+02  0.30400530875E+02  0.45045682003E+02  0.00000000000E+00 0.  1.
         11    1    3    3    0    0  0.13619502609E+02 -0.19127474323E+02 -0.19508759933E+02  0.30527738856E+02  0.51100000000E-03 0. -1.
        -11    1    3    3    0    0  0.58362844185E+01 -0.15266134723E+01 -0.77557236540E+01  0.98256813588E+01  0.51100000000E-03 0.  1.
         12    1    3    3    0    0  0.33631094368E+01 -0.35165380504E+01 -0.31360472888E+01  0.57888977829E+01  0.00000000000E+00 0. -1.
</event>
<event>
 7    1  0.1538805E-008  0.4614232E+02  0.7816164E-02  0.1320468E+00
        -11   -1    0    0    0    0  0.00000000000E+00  0.00000000000E+00  0.45593999997E+02  0.45594000000E+02  0.51100000000E-03 0. -1.
         11   -1    0    0    0    0 -0.00000000000E+00 -0.00000000000E+00 -0.45593999997E+02  0.45594000000E+02  0.51100000000E-03 0.  1.
    9900012    2    1    2    0    0 -0.28178753961E+02 -0.17708613590E+00  0.35143135600E+02  0.46142317476E+02  0.99999973958E+01 0.  0.
        -12    1    1    2    0    0  0.28178753961E+02  0.17708613590E+00 -0.35143135600E+02  0.45045682524E+02  0.00000000000E+00 0.  1.
         11    1    3    3    0    0 -0.11196433433E+02  0.72273425066E+00  0.12719158019E+02  0.16960526153E+02  0.51100000000E-03 0. -1.
        -11    1    3    3    0    0 -0.49422286858E+01  0.28156494428E+00  0.17922658879E+01  0.52647051651E+01  0.51100000000E-03 0.  1.
         12    1    3    3    0    0 -0.12040091842E+02 -0.11813853308E+01  0.20631711694E+02  0.23917086158E+02  0.00000000000E+00 0. -1.
</event>
<event>
 7    1  0.1538805E-008  0.4614232E+02  0.7816164E-02  0.1320468E+00
        -11   -1    0    0    0    0  0.00000000000E+00  0.00000000000E+00  0.45593999997E+02  0.45594000000E+02  0.51100000000E-03 0.  1.
         11   -1    0    0    0    0 -0.00000000000E+00 -0.00000000000E+00 -0.45593999997E+02  0.45594000000E+02  0.51100000000E-03 0. -1.
    9900012    2    1    2    0    0 -0.21677541347E+02  0.21722658352E+02 -0.32974591269E+02  0.46142319252E+02  0.10000013592E+02 0.  0.
        -12    1    1    2    0    0  0.21677541347E+02 -0.21722658352E+02  0.32974591269E+02  0.45045680748E+02  0.00000000000E+00 0.  1.
         11    1    3    3    0    0 -0.81751226882E+01  0.11547299881E+02 -0.10677633793E+02  0.17725253995E+02  0.51100000000E-03 0. -1.
        -11    1    3    3    0    0 -0.51881592452E+01  0.14517323668E+01 -0.51045791089E+01  0.74216744310E+01  0.51100000000E-03 0.  1.
         12    1    3    3    0    0 -0.83142594132E+01  0.87236261046E+01 -0.17192378367E+02  0.20995390826E+02  0.00000000000E+00 0. -1.
</event>
<event>
 7    1  0.1538805E-008  0.4614232E+02  0.7816164E-02  0.1320468E+00
        -11   -1    0    0    0    0  0.00000000000E+00  0.00000000000E+00  0.45593999997E+02  0.45594000000E+02  0.51100000000E-03 0.  1.
         11   -1    0    0    0    0 -0.00000000000E+00 -0.00000000000E+00 -0.45593999997E+02  0.45594000000E+02  0.51100000000E-03 0. -1.
    9900012    2    1    2    0    0 -0.25685310624E+02 -0.36118390347E+02  0.80523390943E+01  0.46142317988E+02  0.10000002066E+02 0.  0.
        -12    1    1    2    0    0  0.25685310624E+02  0.36118390347E+02 -0.80523390943E+01  0.45045682012E+02  0.00000000000E+00 0.  1.
         11    1    3    3    0    0 -0.10683935295E+01 -0.39492290747E+01  0.13268589092E+01  0.43009801028E+01  0.51100000000E-03 0. -1.
        -11    1    3    3    0    0 -0.67466693494E+01 -0.12994713268E+02  0.53703803700E+01  0.15595547627E+02  0.51100000000E-03 0.  1.
        -12    1    3    3    0    0 -0.17870247745E+02 -0.19174448004E+02  0.13550998151E+01  0.26245790258E+02  0.00000000000E+00 0.  1.
</event>
<event>
 7    1  0.1538805E-008  0.4614232E+02  0.7816164E-02  0.1320468E+00
        -11   -1    0    0    0    0  0.00000000000E+00  0.00000000000E+00  0.45593999997E+02  0.45594000000E+02  0.51100000000E-03 0.  1.
         11   -1    0    0    0    0 -0.00000000000E+00 -0.00000000000E+00 -0.45593999997E+02  0.45594000000E+02  0.51100000000E-03 0. -1.
    9900012    2    1    2    0    0 -0.89564278746E+01 -0.38812807258E+02 -0.21034769332E+02  0.46142321757E+02  0.10000036440E+02 0.  0.
        -12    1    1    2    0    0  0.89564278746E+01  0.38812807258E+02  0.21034769332E+02  0.45045678243E+02  0.00000000000E+00 0.  1.
         11    1    3    3    0    0 -0.36131448976E+01 -0.81909468339E+01 -0.54458012296E+01  0.10478701130E+02  0.51100000000E-03 0. -1.
        -11    1    3    3    0    0 -0.70696440175E+01 -0.28359315863E+02 -0.14066916020E+02  0.32436226496E+02  0.51100000000E-03 0.  1.
        -12    1    3    3    0    0  0.17263610405E+01 -0.22625445612E+01 -0.15220520818E+01  0.32273941305E+01  0.00000000000E+00 0.  1.
</event>
<event>
 7    1  0.1538805E-008  0.4614232E+02  0.7816164E-02  0.1320468E+00
        -11   -1    0    0    0    0  0.00000000000E+00  0.00000000000E+00  0.45593999997E+02  0.45594000000E+02  0.51100000000E-03 0.  1.
         11   -1    0    0    0    0 -0.00000000000E+00 -0.00000000000E+00 -0.45593999997E+02  0.45594000000E+02  0.51100000000E-03 0. -1.
    9900012    2    1    2    0    0 -0.19137235811E+02 -0.82187683742E+01 -0.39941601878E+02  0.46142317536E+02  0.99999979490E+01 0.  0.
        -12    1    1    2    0    0  0.19137235811E+02  0.82187683742E+01  0.39941601878E+02  0.45045682464E+02  0.00000000000E+00 0.  1.
         11    1    3    3    0    0 -0.19841527558E+01 -0.15551221912E+01 -0.62142054850E+01  0.67060880742E+01  0.51100000000E-03 0. -1.
        -11    1    3    3    0    0 -0.16854716316E+02 -0.46853395902E+01 -0.25197686477E+02  0.30675026866E+02  0.51100000000E-03 0.  1.
        -12    1    3    3    0    0 -0.29836673940E+00 -0.19783065927E+01 -0.85297099155E+01  0.87612025960E+01  0.00000000000E+00 0.  1.
</event>
<event>
 7    1  0.1538805E-008  0.4614232E+02  0.7816164E-02  0.1320468E+00
        -11   -1    0    0    0    0  0.00000000000E+00  0.00000000000E+00  0.45593999997E+02  0.45594000000E+02  0.51100000000E-03 0.  1.
         11   -1    0    0    0    0 -0.00000000000E+00 -0.00000000000E+00 -0.45593999997E+02  0.45594000000E+02  0.51100000000E-03 0. -1.
    9900012    2    1    2    0    0 -0.16788508407E+02 -0.15446276248E+01 -0.41771684837E+02  0.46142317153E+02  0.99999944529E+01 0.  0.
        -12    1    1    2    0    0  0.16788508407E+02  0.15446276248E+01  0.41771684837E+02  0.45045682847E+02  0.00000000000E+00 0.  1.
         11    1    3    3    0    0 -0.18646241056E+00 -0.16144155689E+00 -0.67554733922E+01  0.67599743063E+01  0.51100000000E-03 0. -1.
        -11    1    3    3    0    0 -0.14167943274E+02 -0.94350865493E+00 -0.33724584988E+02  0.36591917934E+02  0.51100000000E-03 0.  1.
        -12    1    3    3    0    0 -0.24341027220E+01 -0.43967741299E+00 -0.12916264571E+01  0.27904249127E+01  0.00000000000E+00 0.  1.
</event>
<event>
 7    1  0.1538805E-008  0.4614232E+02  0.7816164E-02  0.1320468E+00
        -11   -1    0    0    0    0  0.00000000000E+00  0.00000000000E+00  0.45593999997E+02  0.45594000000E+02  0.51100000000E-03 0.  1.
         11   -1    0    0    0    0 -0.00000000000E+00 -0.00000000000E+00 -0.45593999997E+02  0.45594000000E+02  0.51100000000E-03 0. -1.
    9900012    2    1    2    0    0  0.24158889829E+02  0.37792674731E+02  0.41443041850E+01  0.46142317874E+02  0.10000001025E+02 0.  0.
        -12    1    1    2    0    0 -0.24158889829E+02 -0.37792674731E+02 -0.41443041850E+01  0.45045682126E+02  0.00000000000E+00 0.  1.
         11    1    3    3    0    0  0.26555846565E+00  0.42828062382E+01  0.13489032746E+01  0.44980541212E+01  0.51100000000E-03 0. -1.
        -11    1    3    3    0    0  0.40104328571E+01  0.89359983900E+01  0.21479756920E+01  0.10027434306E+02  0.51100000000E-03 0.  1.
        -12    1    3    3    0    0  0.19882898506E+02  0.24573870103E+02  0.64742521843E+00  0.31616829446E+02  0.00000000000E+00 0.  1.
</event>
<event>
 7    1  0.1538805E-008  0.4614232E+02  0.7816164E-02  0.1320468E+00
        -11   -1    0    0    0    0  0.00000000000E+00  0.00000000000E+00  0.45593999997E+02  0.45594000000E+02  0.51100000000E-03 0. -1.
         11   -1    0    0    0    0 -0.00000000000E+00 -0.00000000000E+00 -0.45593999997E+02  0.45594000000E+02  0.51100000000E-03 0.  1.
    9900012    2    1    2    0    0  0.36995935459E+02  0.13820580106E+01  0.25661332196E+02  0.46142319908E+02  0.10000019578E+02 0.  0.
        -12    1    1    2    0    0 -0.36995935459E+02 -0.13820580106E+01 -0.25661332196E+02  0.45045680092E+02  0.00000000000E+00 0.  1.
         11    1    3    3    0    0  0.22759425448E+02  0.11857687106E+01  0.16231976197E+02  0.27979895384E+02  0.51100000000E-03 0. -1.
        -11    1    3    3    0    0 -0.22601985504E+00 -0.76491111189E+00  0.13507830488E+01  0.15686902467E+01  0.51100000000E-03 0.  1.
         12    1    3    3    0    0  0.14462529867E+02  0.96120041191E+00  0.80785729498E+01  0.16593734278E+02  0.00000000000E+00 0. -1.
</event>
<event>
 7    1  0.1538805E-008  0.4614232E+02  0.7816164E-02  0.1320468E+00
        -11   -1    0    0    0    0  0.00000000000E+00  0.00000000000E+00  0.45593999997E+02  0.45594000000E+02  0.51100000000E-03 0. -1.
         11   -1    0    0    0    0 -0.00000000000E+00 -0.00000000000E+00 -0.45593999997E+02  0.45594000000E+02  0.51100000000E-03 0.  1.
    9900012    2    1    2    0    0 -0.41343674916E+02  0.17706477938E+02  0.25089115075E+01  0.46142318149E+02  0.10000003533E+02 0.  0.
        -12    1    1    2    0    0  0.41343674916E+02 -0.17706477938E+02 -0.25089115075E+01  0.45045681851E+02  0.00000000000E+00 0.  1.
         11    1    3    3    0    0 -0.20922748360E+02  0.79989168420E+01  0.11190342365E+01  0.22427579171E+02  0.51100000000E-03 0. -1.
        -11    1    3    3    0    0 -0.14403924023E+02  0.53755961988E+01  0.39453759012E+01  0.15872493598E+02  0.51100000000E-03 0.  1.
        -12    1    3    3    0    0 -0.60170025329E+01  0.43319648968E+01 -0.25554986303E+01  0.78422453798E+01  0.00000000000E+00 0.  1.
</event>
<event>
 7    1  0.1538805E-008  0.4614232E+02  0.7816164E-02  0.1320468E+00
        -11   -1    0    0    0    0  0.00000000000E+00  0.00000000000E+00  0.45593999997E+02  0.45594000000E+02  0.51100000000E-03 0.  1.
         11   -1    0    0    0    0 -0.00000000000E+00 -0.00000000000E+00 -0.45593999997E+02  0.45594000000E+02  0.51100000000E-03 0. -1.
    9900012    2    1    2    0    0  0.27791190177E+01 -0.43771384987E+02 -0.10269169815E+02  0.46142317688E+02  0.99999993367E+01 0.  0.
        -12    1    1    2    0    0 -0.27791190177E+01  0.43771384987E+02  0.10269169815E+02  0.45045682312E+02  0.00000000000E+00 0.  1.
         11    1    3    3    0    0  0.25356873628E+01 -0.20632623648E+02 -0.62519799088E+01  0.21707651233E+02  0.51100000000E-03 0. -1.
        -11    1    3    3    0    0  0.99475419594E+00 -0.22464615901E+02 -0.49890422281E+01  0.23033433224E+02  0.51100000000E-03 0.  1.
        -12    1    3    3    0    0 -0.75132254106E+00 -0.67414543819E+00  0.97185232167E+00  0.14012332310E+01  0.00000000000E+00 0.  1.
</event>
<event>
 7    1  0.1538805E-008  0.4614232E+02  0.7816164E-02  0.1320468E+00
        -11   -1    0    0    0    0  0.00000000000E+00  0.00000000000E+00  0.45593999997E+02  0.45594000000E+02  0.51100000000E-03 0.  1.
         11   -1    0    0    0    0 -0.00000000000E+00 -0.00000000000E+00 -0.45593999997E+02  0.45594000000E+02  0.51100000000E-03 0. -1.
    9900012    2    1    2    0    0 -0.20147245662E+02  0.19739104566E+02 -0.35122211033E+02  0.46142318025E+02  0.10000002403E+02 0.  0.
        -12    1    1    2    0    0  0.20147245662E+02 -0.19739104566E+02  0.35122211033E+02  0.45045681975E+02  0.00000000000E+00 0.  1.
         11    1    3    3    0    0 -0.56835067775E+01  0.34748524610E+01 -0.13527876118E+02  0.15079133975E+02  0.51100000000E-03 0. -1.
        -11    1    3    3    0    0 -0.14875045066E+02  0.15796239154E+02 -0.21127419892E+02  0.30284583680E+02  0.51100000000E-03 0.  1.
         12    1    3    3    0    0  0.41130618173E+00  0.46801295020E+00 -0.46691502318E+00  0.77860036961E+00  0.00000000000E+00 0. -1.
</event>
<event>
 7    1  0.1538805E-008  0.4614232E+02  0.7816164E-02  0.1320468E+00
        -11   -1    0    0    0    0  0.00000000000E+00  0.00000000000E+00  0.45593999997E+02  0.45594000000E+02  0.51100000000E-03 0.  1.
         11   -1    0    0    0    0 -0.00000000000E+00 -0.00000000000E+00 -0.45593999997E+02  0.45594000000E+02  0.51100000000E-03 0. -1.
    9900012    2    1    2    0    0  0.33982934974E+02  0.17211801368E+02 -0.24042202364E+02  0.46142317962E+02  0.10000001831E+02 0.  0.
        -12    1    1    2    0    0 -0.33982934974E+02 -0.17211801368E+02  0.24042202364E+02  0.45045682038E+02  0.00000000000E+00 0.  1.
         11    1    3    3    0    0  0.74885926756E+01  0.33731289300E+01 -0.73993843951E+01  0.11054768597E+02  0.51100000000E-03 0.  1.
        -11    1    3    3    0    0  0.24352980225E+02  0.14080589806E+02 -0.17050230291E+02  0.32894391747E+02  0.51100000000E-03 0. -1.
        -12    1    3    3    0    0  0.21413620727E+01 -0.24191736755E+00  0.40741232244E+00  0.21931576185E+01  0.00000000000E+00 0.  1.
</event>
<event>
 7    1  0.1538805E-008  0.4614232E+02  0.7816164E-02  0.1320468E+00
        -11   -1    0    0    0    0  0.00000000000E+00  0.00000000000E+00  0.45593999997E+02  0.45594000000E+02  0.51100000000E-03 0.  1.
         11   -1    0    0    0    0 -0.00000000000E+00 -0.00000000000E+00 -0.45593999997E+02  0.45594000000E+02  0.51100000000E-03 0. -1.
    9900012    2    1    2    0    0 -0.78150974803E+01 -0.25687791327E+02 -0.36168704781E+02  0.46142316772E+02  0.99999909827E+01 0.  0.
        -12    1    1    2    0    0  0.78150974803E+01  0.25687791327E+02  0.36168704781E+02  0.45045683228E+02  0.00000000000E+00 0.  1.
         11    1    3    3    0    0 -0.25005166687E+01 -0.11867594984E+02 -0.10997177688E+02  0.16371631307E+02  0.51100000000E-03 0. -1.
        -11    1    3    3    0    0 -0.17238183324E+01 -0.14122824844E+01 -0.11769294917E+01  0.25201695872E+01  0.51100000000E-03 0.  1.
         12    1    3    3    0    0 -0.35907624792E+01 -0.12407913859E+02 -0.23994597602E+02  0.27250515878E+02  0.00000000000E+00 0. -1.
</event>
<event>
 7    1  0.1538805E-008  0.4614232E+02  0.7816164E-02  0.1320468E+00
        -11   -1    0    0    0    0  0.00000000000E+00  0.00000000000E+00  0.45593999997E+02  0.45594000000E+02  0.51100000000E-03 0.  1.
         11   -1    0    0    0    0 -0.00000000000E+00 -0.00000000000E+00 -0.45593999997E+02  0.45594000000E+02  0.51100000000E-03 0. -1.
    9900012    2    1    2    0    0  0.37410787995E+02 -0.24895422085E+02  0.31248061426E+01  0.46142317492E+02  0.99999975495E+01 0.  0.
        -12    1    1    2    0    0 -0.37410787995E+02  0.24895422085E+02 -0.31248061426E+01  0.45045682508E+02  0.00000000000E+00 0.  1.
         11    1    3    3    0    0  0.22437299589E+02 -0.12463905427E+02 -0.85902037385E-01  0.25666880035E+02  0.51100000000E-03 0. -1.
        -11    1    3    3    0    0  0.80146420655E+01 -0.51730079993E+01  0.40955955232E+01  0.10381156109E+02  0.51100000000E-03 0.  1.
        -12    1    3    3    0    0  0.69588463405E+01 -0.72585086586E+01 -0.88488734319E+00  0.10094281349E+02  0.00000000000E+00 0.  1.
</event>
<event>
 7    1  0.1538805E-008  0.4614232E+02  0.7816164E-02  0.1320468E+00
        -11   -1    0    0    0    0  0.00000000000E+00  0.00000000000E+00  0.45593999997E+02  0.45594000000E+02  0.51100000000E-03 0. -1.
         11   -1    0    0    0    0 -0.00000000000E+00 -0.00000000000E+00 -0.45593999997E+02  0.45594000000E+02  0.51100000000E-03 0.  1.
    9900012    2    1    2    0    0 -0.13420348907E+02  0.27249852395E+02  0.33263392484E+02  0.46142317633E+02  0.99999988358E+01 0.  0.
        -12    1    1    2    0    0  0.13420348907E+02 -0.27249852395E+02 -0.33263392484E+02  0.45045682367E+02  0.00000000000E+00 0.  1.
         11    1    3    3    0    0 -0.13766763200E+01  0.37043532174E+01  0.15007718841E+01  0.42272670792E+01  0.51100000000E-03 0. -1.
        -11    1    3    3    0    0 -0.70716444734E+01  0.16365079433E+02  0.25720833082E+02  0.31295131173E+02  0.51100000000E-03 0.  1.
        -12    1    3    3    0    0 -0.49720281132E+01  0.71804197439E+01  0.60417875180E+01  0.10619919381E+02  0.00000000000E+00 0.  1.
</event>
<event>
 7    1  0.1538805E-008  0.4614232E+02  0.7816164E-02  0.1320468E+00
        -11   -1    0    0    0    0  0.00000000000E+00  0.00000000000E+00  0.45593999997E+02  0.45594000000E+02  0.51100000000E-03 0. -1.
         11   -1    0    0    0    0 -0.00000000000E+00 -0.00000000000E+00 -0.45593999997E+02  0.45594000000E+02  0.51100000000E-03 0.  1.
    9900012    2    1    2    0    0  0.43939497793E+01  0.29961107795E+02  0.33348737415E+02  0.46142322492E+02  0.10000043141E+02 0.  0.
        -12    1    1    2    0    0 -0.43939497793E+01 -0.29961107795E+02 -0.33348737415E+02  0.45045677508E+02  0.00000000000E+00 0.  1.
         11    1    3    3    0    0  0.16166832609E+01  0.69514343160E+01  0.26507764826E+01  0.76133251630E+01  0.51100000000E-03 0. -1.
        -11    1    3    3    0    0  0.29389384036E+01  0.17853226522E+02  0.23038649679E+02  0.29294273083E+02  0.51100000000E-03 0.  1.
         12    1    3    3    0    0 -0.16167188528E+00  0.51564469570E+01  0.76593112537E+01  0.92347242460E+01  0.00000000000E+00 0. -1.
</event>
<event>
 7    1  0.1538805E-008  0.4614232E+02  0.7816164E-02  0.1320468E+00
        -11   -1    0    0    0    0  0.00000000000E+00  0.00000000000E+00  0.45593999997E+02  0.45594000000E+02  0.51100000000E-03 0.  1.
         11   -1    0    0    0    0 -0.00000000000E+00 -0.00000000000E+00 -0.45593999997E+02  0.45594000000E+02  0.51100000000E-03 0. -1.
    9900012    2    1    2    0    0  0.23977036248E+02  0.37031536920E+02  0.91038675442E+01  0.46142318762E+02  0.10000009129E+02 0.  0.
        -12    1    1    2    0    0 -0.23977036248E+02 -0.37031536920E+02 -0.91038675442E+01  0.45045681238E+02  0.00000000000E+00 0.  1.
         11    1    3    3    0    0  0.54816263198E+01  0.65967598847E+01  0.18572832213E+01  0.87758173016E+01  0.51100000000E-03 0. -1.
        -11    1    3    3    0    0  0.16037296589E+02  0.18674182952E+02  0.41956762705E+01  0.24970456353E+02  0.51100000000E-03 0.  1.
        -12    1    3    3    0    0  0.24581133391E+01  0.11760594083E+02  0.30509080525E+01  0.12396045108E+02  0.00000000000E+00 0.  1.
</event>
<event>
 7    1  0.1538805E-008  0.4614232E+02  0.7816164E-02  0.1320468E+00
        -11   -1    0    0    0    0  0.00000000000E+00  0.00000000000E+00  0.45593999997E+02  0.45594000000E+02  0.51100000000E-03 0.  1.
         11   -1    0    0    0    0 -0.00000000000E+00 -0.00000000000E+00 -0.45593999997E+02  0.45594000000E+02  0.51100000000E-03 0. -1.
    9900012    2    1    2    0    0  0.22469372377E+02  0.29482024910E+02 -0.25593963104E+02  0.46142318351E+02  0.10000005383E+02 0.  0.
        -12    1    1    2    0    0 -0.22469372377E+02 -0.29482024910E+02  0.25593963104E+02  0.45045681649E+02  0.00000000000E+00 0.  1.
         11    1    3    3    0    0  0.83515160874E+01  0.67826802728E+01 -0.10975937750E+02  0.15369573267E+02  0.51100000000E-03 0.  1.
        -11    1    3    3    0    0  0.86252253311E+01  0.11483190067E+02 -0.58203127049E+01  0.15496264271E+02  0.51100000000E-03 0. -1.
        -12    1    3    3    0    0  0.54926309586E+01  0.11216154570E+02 -0.87977126490E+01  0.15276480813E+02  0.00000000000E+00 0.  1.
</event>
<event>
 7    1  0.1538805E-008  0.4614232E+02  0.7816164E-02  0.1320468E+00
        -11   -1    0    0    0    0  0.00000000000E+00  0.00000000000E+00  0.45593999997E+02  0.45594000000E+02  0.51100000000E-03 0.  1.
         11   -1    0    0    0    0 -0.00000000000E+00 -0.00000000000E+00 -0.45593999997E+02  0.45594000000E+02  0.51100000000E-03 0. -1.
    9900012    2    1    2    0    0  0.18085609586E+02  0.33208066671E+02 -0.24479553538E+02  0.46142317548E+02  0.99999980574E+01 0.  0.
        -12    1    1    2    0    0 -0.18085609586E+02 -0.33208066671E+02  0.24479553538E+02  0.45045682452E+02  0.00000000000E+00 0.  1.
         11    1    3    3    0    0  0.78260249359E+00  0.16701835484E+01 -0.27369888023E+01  0.33004678022E+01  0.51100000000E-03 0. -1.
        -11    1    3    3    0    0  0.14317820041E+02  0.17751219519E+02 -0.13679590257E+02  0.26593927032E+02  0.51100000000E-03 0.  1.
        -12    1    3    3    0    0  0.29851870509E+01  0.13786663604E+02 -0.80629744794E+01  0.16247922714E+02  0.00000000000E+00 0.  1.
</event>
<event>
 7    1  0.1538805E-008  0.4614232E+02  0.7816164E-02  0.1320468E+00
        -11   -1    0    0    0    0  0.00000000000E+00  0.00000000000E+00  0.45593999997E+02  0.45594000000E+02  0.51100000000E-03 0.  1.
         11   -1    0    0    0    0 -0.00000000000E+00 -0.00000000000E+00 -0.45593999997E+02  0.45594000000E+02  0.51100000000E-03 0. -1.
    9900012    2    1    2    0    0 -0.54693723617E+01  0.43680403437E+02 -0.95510071591E+01  0.46142318562E+02  0.10000007301E+02 0.  0.
        -12    1    1    2    0    0  0.54693723617E+01 -0.43680403437E+02  0.95510071591E+01  0.45045681438E+02  0.00000000000E+00 0.  1.
         11    1    3    3    0    0  0.84402293487E+00  0.52893813170E+01 -0.70732143069E+00  0.54027986543E+01  0.51100000000E-03 0. -1.
        -11    1    3    3    0    0 -0.79317638187E+01  0.23864694902E+02 -0.58555526953E+01  0.25820999936E+02  0.51100000000E-03 0.  1.
        -12    1    3    3    0    0  0.16183685222E+01  0.14526327218E+02 -0.29881330331E+01  0.14918519972E+02  0.00000000000E+00 0.  1.
</event>
<event>
 7    1  0.1538805E-008  0.4614232E+02  0.7816164E-02  0.1320468E+00
        -11   -1    0    0    0    0  0.00000000000E+00  0.00000000000E+00  0.45593999997E+02  0.45594000000E+02  0.51100000000E-03 0.  1.
         11   -1    0    0    0    0 -0.00000000000E+00 -0.00000000000E+00 -0.45593999997E+02  0.45594000000E+02  0.51100000000E-03 0. -1.
    9900012    2    1    2    0    0 -0.32802555811E+02  0.21298778269E+02 -0.22348780301E+02  0.46142316473E+02  0.99999882536E+01 0.  0.
        -12    1    1    2    0    0  0.32802555811E+02 -0.21298778269E+02  0.22348780301E+02  0.45045683527E+02  0.00000000000E+00 0.  1.
         11    1    3    3    0    0 -0.34657997837E+01  0.33485721338E+01 -0.67831775771E+01  0.83208293925E+01  0.51100000000E-03 0. -1.
        -11    1    3    3    0    0 -0.12773634971E+02  0.72394494889E+01 -0.55166442439E+01  0.15684665863E+02  0.51100000000E-03 0.  1.
         12    1    3    3    0    0 -0.16563121057E+02  0.10710756646E+02 -0.10048958480E+02  0.22136821217E+02  0.00000000000E+00 0. -1.
</event>
<event>
 7    1  0.1538805E-008  0.4614232E+02  0.7816164E-02  0.1320468E+00
        -11   -1    0    0    0    0  0.00000000000E+00  0.00000000000E+00  0.45593999997E+02  0.45594000000E+02  0.51100000000E-03 0. -1.
         11   -1    0    0    0    0 -0.00000000000E+00 -0.00000000000E+00 -0.45593999997E+02  0.45594000000E+02  0.51100000000E-03 0.  1.
    9900012    2    1    2    0    0  0.39412968494E+02  0.12731706422E+02  0.17709732228E+02  0.46142322632E+02  0.10000044420E+02 0.  0.
        -12    1    1    2    0    0 -0.39412968494E+02 -0.12731706422E+02 -0.17709732228E+02  0.45045677368E+02  0.00000000000E+00 0.  1.
         11    1    3    3    0    0  0.21129384255E+02  0.27928419470E+01  0.83328756982E+01  0.22884223011E+02  0.51100000000E-03 0. -1.
        -11    1    3    3    0    0 -0.24924887165E+00  0.23865242516E+00  0.29389550716E+00  0.45327123260E+00  0.51100000000E-03 0.  1.
         12    1    3    3    0    0  0.18532833110E+02  0.97002120502E+01  0.90829610227E+01  0.22804828389E+02  0.00000000000E+00 0. -1.
</event>
<event>
 7    1  0.1538805E-008  0.4614232E+02  0.7816164E-02  0.1320468E+00
        -11   -1    0    0    0    0  0.00000000000E+00  0.00000000000E+00  0.45593999997E+02  0.45594000000E+02  0.51100000000E-03 0.  1.
         11   -1    0    0    0    0 -0.00000000000E+00 -0.00000000000E+00 -0.45593999997E+02  0.45594000000E+02  0.51100000000E-03 0. -1.
    9900012    2    1    2    0    0 -0.25541732749E+02  0.31997506513E+02 -0.18785446398E+02  0.46142317285E+02  0.99999956606E+01 0.  0.
        -12    1    1    2    0    0  0.25541732749E+02 -0.31997506513E+02  0.18785446398E+02  0.45045682715E+02  0.00000000000E+00 0.  1.
         11    1    3    3    0    0 -0.12153028360E+02  0.16936933952E+02 -0.10454917189E+02  0.23320830253E+02  0.51100000000E-03 0. -1.
        -11    1    3    3    0    0 -0.14018058127E+02  0.13843434816E+02 -0.69903432975E+01  0.20904820995E+02  0.51100000000E-03 0.  1.
         12    1    3    3    0    0  0.62935373837E+00  0.12171377448E+01 -0.13401859122E+01  0.19166660370E+01  0.00000000000E+00 0. -1.
</event>
<event>
 7    1  0.1538805E-008  0.4614232E+02  0.7816164E-02  0.1320468E+00
        -11   -1    0    0    0    0  0.00000000000E+00  0.00000000000E+00  0.45593999997E+02  0.45594000000E+02  0.51100000000E-03 0.  1.
         11   -1    0    0    0    0 -0.00000000000E+00 -0.00000000000E+00 -0.45593999997E+02  0.45594000000E+02  0.51100000000E-03 0. -1.
    9900012    2    1    2    0    0  0.25899127213E+02 -0.20052138764E+02 -0.30923460319E+02  0.46142318103E+02  0.10000003122E+02 0.  0.
        -12    1    1    2    0    0 -0.25899127213E+02  0.20052138764E+02  0.30923460319E+02  0.45045681897E+02  0.00000000000E+00 0.  1.
         11    1    3    3    0    0  0.18764785150E+02 -0.18526937858E+02 -0.21995621032E+02  0.34339072978E+02  0.51100000000E-03 0. -1.
        -11    1    3    3    0    0  0.45781072294E+01 -0.18070805413E+00 -0.68669786866E+01  0.82551267554E+01  0.51100000000E-03 0.  1.
         12    1    3    3    0    0  0.25562348341E+01 -0.13444928513E+01 -0.20608606005E+01  0.35481183702E+01  0.00000000000E+00 0. -1.
</event>
<event>
 7    1  0.1538805E-008  0.4614232E+02  0.7816164E-02  0.1320468E+00
        -11   -1    0    0    0    0  0.00000000000E+00  0.00000000000E+00  0.45593999997E+02  0.45594000000E+02  0.51100000000E-03 0. -1.
         11   -1    0    0    0    0 -0.00000000000E+00 -0.00000000000E+00 -0.45593999997E+02  0.45594000000E+02  0.51100000000E-03 0.  1.
    9900012    2    1    2    0    0 -0.41908519041E+02 -0.16248121957E+02 -0.29644471653E+01  0.46142318938E+02  0.10000010734E+02 0.  0.
        -12    1    1    2    0    0  0.41908519041E+02  0.16248121957E+02  0.29644471653E+01  0.45045681062E+02  0.00000000000E+00 0.  1.
         11    1    3    3    0    0 -0.98336999670E+01 -0.34078645649E+00  0.16538357574E-01  0.98396170773E+01  0.51100000000E-03 0. -1.
        -11    1    3    3    0    0 -0.18552125756E+02 -0.87691086494E+01 -0.42616956248E+01  0.20958069721E+02  0.51100000000E-03 0.  1.
        -12    1    3    3    0    0 -0.13522693318E+02 -0.71382268508E+01  0.12807101019E+01  0.15344632140E+02  0.00000000000E+00 0.  1.
</event>
<event>
 7    1  0.1538805E-008  0.4614232E+02  0.7816164E-02  0.1320468E+00
        -11   -1    0    0    0    0  0.00000000000E+00  0.00000000000E+00  0.45593999997E+02  0.45594000000E+02  0.51100000000E-03 0.  1.
         11   -1    0    0    0    0 -0.00000000000E+00 -0.00000000000E+00 -0.45593999997E+02  0.45594000000E+02  0.51100000000E-03 0. -1.
    9900012    2    1    2    0    0 -0.40219040276E+02 -0.12045230351E+02 -0.16323446159E+02  0.46142315752E+02  0.99999816750E+01 0.  0.
        -12    1    1    2    0    0  0.40219040276E+02  0.12045230351E+02  0.16323446159E+02  0.45045684248E+02  0.00000000000E+00 0.  1.
         11    1    3    3    0    0 -0.25716751029E+02 -0.97838251940E+01 -0.11764462044E+02  0.29924523160E+02  0.51100000000E-03 0. -1.
        -11    1    3    3    0    0 -0.27751524733E+01 -0.25813880708E+01 -0.60637182689E+00  0.38383228988E+01  0.51100000000E-03 0.  1.
         12    1    3    3    0    0 -0.11727136774E+02  0.31998291401E+00 -0.39526122879E+01  0.12379469693E+02  0.00000000000E+00 0. -1.
</event>
<event>
 7    1  0.1538805E-008  0.4614232E+02  0.7816164E-02  0.1320468E+00
        -11   -1    0    0    0    0  0.00000000000E+00  0.00000000000E+00  0.45593999997E+02  0.45594000000E+02  0.51100000000E-03 0.  1.
         11   -1    0    0    0    0 -0.00000000000E+00 -0.00000000000E+00 -0.45593999997E+02  0.45594000000E+02  0.51100000000E-03 0. -1.
    9900012    2    1    2    0    0  0.42829693571E+02  0.13923621445E+02 -0.92927573180E+00  0.46142318310E+02  0.10000005009E+02 0.  0.
        -12    1    1    2    0    0 -0.42829693571E+02 -0.13923621445E+02  0.92927573180E+00  0.45045681690E+02  0.00000000000E+00 0.  1.
         11    1    3    3    0    0  0.34258673767E+02  0.14135860469E+02  0.14986838265E+01  0.37090771533E+02  0.51100000000E-03 0. -1.
        -11    1    3    3    0    0  0.95565292829E+00 -0.52259562235E+00 -0.44114027945E+00  0.11751526331E+01  0.51100000000E-03 0.  1.
         12    1    3    3    0    0  0.76153668755E+01  0.31035659858E+00 -0.19868192788E+01  0.78763941441E+01  0.00000000000E+00 0. -1.
</event>
<event>
 7    1  0.1538805E-008  0.4614232E+02  0.7816164E-02  0.1320468E+00
        -11   -1    0    0    0    0  0.00000000000E+00  0.00000000000E+00  0.45593999997E+02  0.45594000000E+02  0.51100000000E-03 0.  1.
         11   -1    0    0    0    0 -0.00000000000E+00 -0.00000000000E+00 -0.45593999997E+02  0.45594000000E+02  0.51100000000E-03 0. -1.
    9900012    2    1    2    0    0  0.56679480951E+01 -0.43374115749E+02 -0.10755178545E+02  0.46142318541E+02  0.10000007109E+02 0.  0.
        -12    1    1    2    0    0 -0.56679480951E+01  0.43374115749E+02  0.10755178545E+02  0.45045681459E+02  0.00000000000E+00 0.  1.
         11    1    3    3    0    0  0.34345704720E+01 -0.27513497952E+02 -0.67783717327E+01  0.28543566131E+02  0.51100000000E-03 0. -1.
        -11    1    3    3    0    0 -0.19218293448E+01 -0.31668259898E+01 -0.15873655883E+01  0.40301296074E+01  0.51100000000E-03 0.  1.
         12    1    3    3    0    0  0.41552069679E+01 -0.12693791807E+02 -0.23894412244E+01  0.13568622802E+02  0.00000000000E+00 0. -1.
</event>
<event>
 7    1  0.1538805E-008  0.4614232E+02  0.7816164E-02  0.1320468E+00
        -11   -1    0    0    0    0  0.00000000000E+00  0.00000000000E+00  0.45593999997E+02  0.45594000000E+02  0.51100000000E-03 0. -1.
         11   -1    0    0    0    0 -0.00000000000E+00 -0.00000000000E+00 -0.45593999997E+02  0.45594000000E+02  0.51100000000E-03 0.  1.
    9900012    2    1    2    0    0 -0.33073908408E+02 -0.25600740941E+02  0.16728183259E+02  0.46142317973E+02  0.10000001933E+02 0.  0.
        -12    1    1    2    0    0  0.33073908408E+02  0.25600740941E+02 -0.16728183259E+02  0.45045682027E+02  0.00000000000E+00 0.  1.
         11    1    3    3    0    0 -0.12318229097E+02 -0.11683143915E+02  0.50675809787E+01  0.17717646488E+02  0.51100000000E-03 0. -1.
        -11    1    3    3    0    0 -0.11270711238E+02 -0.67843120841E+01  0.24023130039E+01  0.13372618678E+02  0.51100000000E-03 0.  1.
        -12    1    3    3    0    0 -0.94849680734E+01 -0.71332849420E+01  0.92582892759E+01  0.15052052808E+02  0.00000000000E+00 0.  1.
</event>
<event>
 7    1  0.1538805E-008  0.4614232E+02  0.7816164E-02  0.1320468E+00
        -11   -1    0    0    0    0  0.00000000000E+00  0.00000000000E+00  0.45593999997E+02  0.45594000000E+02  0.51100000000E-03 0.  1.
         11   -1    0    0    0    0 -0.00000000000E+00 -0.00000000000E+00 -0.45593999997E+02  0.45594000000E+02  0.51100000000E-03 0. -1.
    9900012    2    1    2    0    0  0.55885013742E+01 -0.18450095246E+01 -0.44659580384E+02  0.46142317323E+02  0.99999960014E+01 0.  0.
        -12    1    1    2    0    0 -0.55885013742E+01  0.18450095246E+01  0.44659580384E+02  0.45045682677E+02  0.00000000000E+00 0.  1.
         11    1    3    3    0    0  0.14500041405E+01 -0.51922024947E+01 -0.25499356877E+02  0.26062975274E+02  0.51100000000E-03 0. -1.
        -11    1    3    3    0    0  0.38007859881E+01  0.18163384145E+01 -0.16086807635E+02  0.16629204416E+02  0.51100000000E-03 0.  1.
        -12    1    3    3    0    0  0.33771124566E+00  0.15308545557E+01 -0.30734158727E+01  0.34501376324E+01  0.00000000000E+00 0.  1.
</event>
<event>
 7    1  0.1538805E-008  0.4614231E+02  0.7816164E-02  0.1320468E+00
        -11   -1    0    0    0    0  0.00000000000E+00  0.00000000000E+00  0.45593999997E+02  0.45594000000E+02  0.51100000000E-03 0. -1.
         11   -1    0    0    0    0 -0.00000000000E+00 -0.00000000000E+00 -0.45593999997E+02  0.45594000000E+02  0.51100000000E-03 0.  1.
    9900012    2    1    2    0    0  0.29488961928E+02  0.31292388382E+02  0.13427634813E+02  0.46142314048E+02  0.99999661407E+01 0.  0.
        -12    1    1    2    0    0 -0.29488961928E+02 -0.31292388382E+02 -0.13427634813E+02  0.45045685952E+02  0.00000000000E+00 0.  1.
         11    1    3    3    0    0  0.20836701870E+02  0.19284000554E+02  0.60987077639E+01  0.29038509928E+02  0.51100000000E-03 0. -1.
        -11    1    3    3    0    0 -0.14059633140E+00 -0.11872244334E+00 -0.25464296361E+00  0.31417454861E+00  0.51100000000E-03 0.  1.
         12    1    3    3    0    0  0.87928563891E+01  0.12127110272E+02  0.75835700123E+01  0.16789629572E+02  0.00000000000E+00 0. -1.
</event>
<event>
 7    1  0.1538805E-008  0.4614232E+02  0.7816164E-02  0.1320468E+00
        -11   -1    0    0    0    0  0.00000000000E+00  0.00000000000E+00  0.45593999997E+02  0.45594000000E+02  0.51100000000E-03 0.  1.
         11   -1    0    0    0    0 -0.00000000000E+00 -0.00000000000E+00 -0.45593999997E+02  0.45594000000E+02  0.51100000000E-03 0. -1.
    9900012    2    1    2    0    0 -0.32508119751E+02  0.19923620971E+02 -0.23987180301E+02  0.46142319396E+02  0.10000014905E+02 0.  0.
        -12    1    1    2    0    0  0.32508119751E+02 -0.19923620971E+02  0.23987180301E+02  0.45045680604E+02  0.00000000000E+00 0.  1.
         11    1    3    3    0    0 -0.31005687326E+02  0.19625527062E+02 -0.24426393116E+02  0.44081318492E+02  0.51100000000E-03 0. -1.
        -11    1    3    3    0    0 -0.41884104553E+00  0.61946891445E+00  0.54574516276E+00  0.92574705032E+00  0.51100000000E-03 0.  1.
         12    1    3    3    0    0 -0.10835913789E+01 -0.32137500566E+00 -0.10653234742E+00  0.11352538534E+01  0.00000000000E+00 0. -1.
</event>
<event>
 7    1  0.1538805E-008  0.4614232E+02  0.7816164E-02  0.1320468E+00
        -11   -1    0    0    0    0  0.00000000000E+00  0.00000000000E+00  0.45593999997E+02  0.45594000000E+02  0.51100000000E-03 0.  1.
         11   -1    0    0    0    0 -0.00000000000E+00 -0.00000000000E+00 -0.45593999997E+02  0.45594000000E+02  0.51100000000E-03 0. -1.
    9900012    2    1    2    0    0 -0.16617502538E+02 -0.15174437143E+02 -0.39021898928E+02  0.46142317308E+02  0.99999958681E+01 0.  0.
        -12    1    1    2    0    0  0.16617502538E+02  0.15174437143E+02  0.39021898928E+02  0.45045682692E+02  0.00000000000E+00 0.  1.
         11    1    3    3    0    0 -0.14790493537E+02 -0.11511948417E+02 -0.31454185218E+02  0.36614879809E+02  0.51100000000E-03 0. -1.
        -11    1    3    3    0    0 -0.39606089702E+00 -0.27380077245E+01 -0.13457461146E+01  0.30764563055E+01  0.51100000000E-03 0.  1.
         12    1    3    3    0    0 -0.14309481042E+01 -0.92448100158E+00 -0.62219675956E+01  0.64509811936E+01  0.00000000000E+00 0. -1.
</event>
<event>
 7    1  0.1538805E-008  0.4614232E+02  0.7816164E-02  0.1320468E+00
        -11   -1    0    0    0    0  0.00000000000E+00  0.00000000000E+00  0.45593999997E+02  0.45594000000E+02  0.51100000000E-03 0. -1.
         11   -1    0    0    0    0 -0.00000000000E+00 -0.00000000000E+00 -0.45593999997E+02  0.45594000000E+02  0.51100000000E-03 0.  1.
    9900012    2    1    2    0    0  0.35270414235E+02  0.68602484584E+01  0.27167045078E+02  0.46142317993E+02  0.10000002112E+02 0.  0.
        -12    1    1    2    0    0 -0.35270414235E+02 -0.68602484584E+01 -0.27167045078E+02  0.45045682007E+02  0.00000000000E+00 0.  1.
         11    1    3    3    0    0  0.15710330273E+02 -0.27764217781E+00  0.12322068723E+02  0.19968098066E+02  0.51100000000E-03 0. -1.
        -11    1    3    3    0    0  0.29650530127E+01  0.18907991351E+01  0.51947292665E+01  0.62731071369E+01  0.51100000000E-03 0.  1.
        -12    1    3    3    0    0  0.16595030949E+02  0.52470915011E+01  0.96502470881E+01  0.19901112790E+02  0.00000000000E+00 0.  1.
</event>
<event>
 7    1  0.1538805E-008  0.4614232E+02  0.7816164E-02  0.1320468E+00
        -11   -1    0    0    0    0  0.00000000000E+00  0.00000000000E+00  0.45593999997E+02  0.45594000000E+02  0.51100000000E-03 0. -1.
         11   -1    0    0    0    0 -0.00000000000E+00 -0.00000000000E+00 -0.45593999997E+02  0.45594000000E+02  0.51100000000E-03 0.  1.
    9900012    2    1    2    0    0  0.14414206840E+02 -0.21468915341E+02  0.36884004627E+02  0.46142317831E+02  0.10000000639E+02 0.  0.
        -12    1    1    2    0    0 -0.14414206840E+02  0.21468915341E+02 -0.36884004627E+02  0.45045682169E+02  0.00000000000E+00 0.  1.
         11    1    3    3    0    0  0.39500636305E+01 -0.42106136120E+01  0.13600202709E+02  0.14774903846E+02  0.51100000000E-03 0. -1.
        -11    1    3    3    0    0  0.43567241404E+01 -0.12525987346E+02  0.13892381743E+02  0.19206240522E+02  0.51100000000E-03 0.  1.
        -12    1    3    3    0    0  0.61074190689E+01 -0.47323143833E+01  0.93914201749E+01  0.12161173463E+02  0.00000000000E+00 0.  1.
</event>
<event>
 7    1  0.1538805E-008  0.4614232E+02  0.7816164E-02  0.1320468E+00
        -11   -1    0    0    0    0  0.00000000000E+00  0.00000000000E+00  0.45593999997E+02  0.45594000000E+02  0.51100000000E-03 0.  1.
         11   -1    0    0    0    0 -0.00000000000E+00 -0.00000000000E+00 -0.45593999997E+02  0.45594000000E+02  0.51100000000E-03 0. -1.
    9900012    2    1    2    0    0 -0.11262255080E+02 -0.86436648888E+01 -0.42749995330E+02  0.46142318377E+02  0.10000005612E+02 0.  0.
        -12    1    1    2    0    0  0.11262255080E+02  0.86436648888E+01  0.42749995330E+02  0.45045681623E+02  0.00000000000E+00 0.  1.
         11    1    3    3    0    0 -0.12172364569E+02 -0.61721725327E+01 -0.29819572163E+02  0.32794344897E+02  0.51100000000E-03 0. -1.
        -11    1    3    3    0    0 -0.17175845941E+00 -0.12348174837E+01 -0.90289926528E+01  0.91146576333E+01  0.51100000000E-03 0.  1.
         12    1    3    3    0    0  0.10818679480E+01 -0.12366748724E+01 -0.39014305139E+01  0.42333158459E+01  0.00000000000E+00 0. -1.
</event>
<event>
 7    1  0.1538805E-008  0.4614232E+02  0.7816164E-02  0.1320468E+00
        -11   -1    0    0    0    0  0.00000000000E+00  0.00000000000E+00  0.45593999997E+02  0.45594000000E+02  0.51100000000E-03 0. -1.
         11   -1    0    0    0    0 -0.00000000000E+00 -0.00000000000E+00 -0.45593999997E+02  0.45594000000E+02  0.51100000000E-03 0.  1.
    9900012    2    1    2    0    0 -0.27184797012E+02 -0.28861301510E+02  0.21380494392E+02  0.46142318144E+02  0.10000003488E+02 0.  0.
        -12    1    1    2    0    0  0.27184797012E+02  0.28861301510E+02 -0.21380494392E+02  0.45045681856E+02  0.00000000000E+00 0.  1.
         11    1    3    3    0    0 -0.18297756501E+02 -0.16799264972E+02  0.18059076188E+02  0.30710803141E+02  0.51100000000E-03 0. -1.
        -11    1    3    3    0    0 -0.50560047998E+01 -0.59790053376E+01  0.23633612257E+01  0.81790687677E+01  0.51100000000E-03 0.  1.
         12    1    3    3    0    0 -0.38310357116E+01 -0.60830312008E+01  0.95805697844E+00  0.72524462347E+01  0.00000000000E+00 0. -1.
</event>
<event>
 7    1  0.1538805E-008  0.4614232E+02  0.7816164E-02  0.1320468E+00
        -11   -1    0    0    0    0  0.00000000000E+00  0.00000000000E+00  0.45593999997E+02  0.45594000000E+02  0.51100000000E-03 0.  1.
         11   -1    0    0    0    0 -0.00000000000E+00 -0.00000000000E+00 -0.45593999997E+02  0.45594000000E+02  0.51100000000E-03 0. -1.
    9900012    2    1    2    0    0 -0.23480424866E+02 -0.88369236266E+00 -0.38431786721E+02  0.46142317692E+02  0.99999993671E+01 0.  0.
        -12    1    1    2    0    0  0.23480424866E+02  0.88369236266E+00  0.38431786721E+02  0.45045682308E+02  0.00000000000E+00 0.  1.
         11    1    3    3    0    0 -0.16790811333E+02 -0.25524183629E+01 -0.26186355143E+02  0.31211718643E+02  0.51100000000E-03 0. -1.
        -11    1    3    3    0    0  0.83735828848E-01 -0.11800311152E+01 -0.19759737106E+01  0.23030322377E+01  0.51100000000E-03 0.  1.
         12    1    3    3    0    0 -0.67733493614E+01  0.28487571155E+01 -0.10269457867E+02  0.12627566811E+02  0.00000000000E+00 0. -1.
</event>
<event>
 7    1  0.1538805E-008  0.4614231E+02  0.7816164E-02  0.1320468E+00
        -11   -1    0    0    0    0  0.00000000000E+00  0.00000000000E+00  0.45593999997E+02  0.45594000000E+02  0.51100000000E-03 0.  1.
         11   -1    0    0    0    0 -0.00000000000E+00 -0.00000000000E+00 -0.45593999997E+02  0.45594000000E+02  0.51100000000E-03 0. -1.
    9900012    2    1    2    0    0  0.19761912000E+02 -0.36629106400E+02 -0.17230472913E+02  0.46142314320E+02  0.99999686229E+01 0.  0.
        -12    1    1    2    0    0 -0.19761912000E+02  0.36629106400E+02  0.17230472913E+02  0.45045685680E+02  0.00000000000E+00 0.  1.
         11    1    3    3    0    0  0.65151536103E+01 -0.15687006938E+02 -0.42204661641E+01  0.17502621179E+02  0.51100000000E-03 0. -1.
        -11    1    3    3    0    0  0.11307024022E+01 -0.50770387854E+01 -0.47220334768E+01  0.70251271282E+01  0.51100000000E-03 0.  1.
        -12    1    3    3    0    0  0.12116055987E+02 -0.15865060677E+02 -0.82879732720E+01  0.21614566013E+02  0.00000000000E+00 0.  1.
</event>
<event>
 7    1  0.1538805E-008  0.4614232E+02  0.7816164E-02  0.1320468E+00
        -11   -1    0    0    0    0  0.00000000000E+00  0.00000000000E+00  0.45593999997E+02  0.45594000000E+02  0.51100000000E-03 0.  1.
         11   -1    0    0    0    0 -0.00000000000E+00 -0.00000000000E+00 -0.45593999997E+02  0.45594000000E+02  0.51100000000E-03 0. -1.
    9900012    2    1    2    0    0 -0.20330175441E+02 -0.25828926017E+02 -0.30800389863E+02  0.46142317983E+02  0.10000002021E+02 0.  0.
        -12    1    1    2    0    0  0.20330175441E+02  0.25828926017E+02  0.30800389863E+02  0.45045682017E+02  0.00000000000E+00 0.  1.
         11    1    3    3    0    0 -0.11968869661E+02 -0.18645532984E+02 -0.17522149380E+02  0.28247751421E+02  0.51100000000E-03 0. -1.
        -11    1    3    3    0    0 -0.51843774669E+00 -0.21956088999E+01 -0.48444014585E+01  0.53439406706E+01  0.51100000000E-03 0.  1.
        -12    1    3    3    0    0 -0.78428680333E+01 -0.49877841339E+01 -0.84338390246E+01  0.12550625891E+02  0.00000000000E+00 0.  1.
</event>
<event>
 7    1  0.1538805E-008  0.4614232E+02  0.7816164E-02  0.1320468E+00
        -11   -1    0    0    0    0  0.00000000000E+00  0.00000000000E+00  0.45593999997E+02  0.45594000000E+02  0.51100000000E-03 0. -1.
         11   -1    0    0    0    0 -0.00000000000E+00 -0.00000000000E+00 -0.45593999997E+02  0.45594000000E+02  0.51100000000E-03 0.  1.
    9900012    2    1    2    0    0 -0.13906101618E+02 -0.42449158144E+02  0.58139999563E+01  0.46142320020E+02  0.10000020598E+02 0.  0.
        -12    1    1    2    0    0  0.13906101618E+02  0.42449158144E+02 -0.58139999563E+01  0.45045679980E+02  0.00000000000E+00 0.  1.
         11    1    3    3    0    0  0.11094692587E+01 -0.24637924773E+01  0.97350655658E+00  0.28720916915E+01  0.51100000000E-03 0. -1.
        -11    1    3    3    0    0 -0.42881913866E+00 -0.15612123330E+01  0.11887366477E+01  0.20085728468E+01  0.51100000000E-03 0.  1.
         12    1    3    3    0    0 -0.14586751738E+02 -0.38424153334E+02  0.36517567520E+01  0.41261655482E+02  0.00000000000E+00 0. -1.
</event>
<event>
 7    1  0.1538805E-008  0.4614232E+02  0.7816164E-02  0.1320468E+00
        -11   -1    0    0    0    0  0.00000000000E+00  0.00000000000E+00  0.45593999997E+02  0.45594000000E+02  0.51100000000E-03 0.  1.
         11   -1    0    0    0    0 -0.00000000000E+00 -0.00000000000E+00 -0.45593999997E+02  0.45594000000E+02  0.51100000000E-03 0. -1.
    9900012    2    1    2    0    0  0.38217434381E+02  0.23242605481E+02  0.53218973844E+01  0.46142316611E+02  0.99999895139E+01 0.  0.
        -12    1    1    2    0    0 -0.38217434381E+02 -0.23242605481E+02 -0.53218973844E+01  0.45045683389E+02  0.00000000000E+00 0.  1.
         11    1    3    3    0    0  0.80185576673E+01  0.11215773070E+01  0.16198958754E+01  0.82570736722E+01  0.51100000000E-03 0. -1.
        -11    1    3    3    0    0  0.24601228083E+01  0.35383652351E+01  0.20057409847E+00  0.43142163830E+01  0.51100000000E-03 0.  1.
         12    1    3    3    0    0  0.27738753905E+02  0.18582662939E+02  0.35014274105E+01  0.33571026556E+02  0.00000000000E+00 0. -1.
</event>
<event>
 7    1  0.1538805E-008  0.4614232E+02  0.7816164E-02  0.1320468E+00
        -11   -1    0    0    0    0  0.00000000000E+00  0.00000000000E+00  0.45593999997E+02  0.45594000000E+02  0.51100000000E-03 0. -1.
         11   -1    0    0    0    0 -0.00000000000E+00 -0.00000000000E+00 -0.45593999997E+02  0.45594000000E+02  0.51100000000E-03 0.  1.
    9900012    2    1    2    0    0  0.11095100667E+02  0.28576251836E+02  0.33006212392E+02  0.46142317807E+02  0.10000000415E+02 0.  0.
        -12    1    1    2    0    0 -0.11095100667E+02 -0.28576251836E+02 -0.33006212392E+02  0.45045682193E+02  0.00000000000E+00 0.  1.
         11    1    3    3    0    0  0.80499601812E+01  0.20316688001E+02  0.19289257923E+02  0.29148673070E+02  0.51100000000E-03 0. -1.
        -11    1    3    3    0    0  0.35153486990E+01  0.74740173685E+01  0.13790988187E+02  0.16075135071E+02  0.51100000000E-03 0.  1.
         12    1    3    3    0    0 -0.47020821341E+00  0.78554646673E+00 -0.74033718473E-01  0.91850966616E+00  0.00000000000E+00 0. -1.
</event>
<event>
 7    1  0.1538805E-008  0.4614232E+02  0.7816164E-02  0.1320468E+00
        -11   -1    0    0    0    0  0.00000000000E+00  0.00000000000E+00  0.45593999997E+02  0.45594000000E+02  0.51100000000E-03 0.  1.
         11   -1    0    0    0    0 -0.00000000000E+00 -0.00000000000E+00 -0.45593999997E+02  0.45594000000E+02  0.51100000000E-03 0. -1.
    9900012    2    1    2    0    0  0.26786668845E+02 -0.12427681588E+02 -0.34016769352E+02  0.46142317691E+02  0.99999993646E+01 0.  0.
        -12    1    1    2    0    0 -0.26786668845E+02  0.12427681588E+02  0.34016769352E+02  0.45045682309E+02  0.00000000000E+00 0.  1.
         11    1    3    3    0    0  0.13184505542E+02 -0.90759222526E+01 -0.11979019962E+02  0.19992510363E+02  0.51100000000E-03 0.  1.
        -11    1    3    3    0    0  0.68641913879E+01 -0.23965377000E+01 -0.11514131012E+02  0.13617478826E+02  0.51100000000E-03 0. -1.
         12    1    3    3    0    0  0.67379719150E+01 -0.95522163584E+00 -0.10523618379E+02  0.12532328502E+02  0.00000000000E+00 0. -1.
</event>
<event>
 7    1  0.1538805E-008  0.4614232E+02  0.7816164E-02  0.1320468E+00
        -11   -1    0    0    0    0  0.00000000000E+00  0.00000000000E+00  0.45593999997E+02  0.45594000000E+02  0.51100000000E-03 0.  1.
         11   -1    0    0    0    0 -0.00000000000E+00 -0.00000000000E+00 -0.45593999997E+02  0.45594000000E+02  0.51100000000E-03 0. -1.
    9900012    2    1    2    0    0 -0.28495861965E+02  0.21991489109E+01 -0.34817568322E+02  0.46142317977E+02  0.10000001969E+02 0.  0.
        -12    1    1    2    0    0  0.28495861965E+02 -0.21991489109E+01  0.34817568322E+02  0.45045682023E+02  0.00000000000E+00 0.  1.
         11    1    3    3    0    0 -0.12982171735E+02  0.31557506798E+01 -0.14791644066E+02  0.19932091705E+02  0.51100000000E-03 0. -1.
        -11    1    3    3    0    0 -0.17021209488E+01 -0.19163681662E+01 -0.58910302549E+01  0.64244782199E+01  0.51100000000E-03 0.  1.
         12    1    3    3    0    0 -0.13811569282E+02  0.95976639728E+00 -0.14134894001E+02  0.19785748052E+02  0.00000000000E+00 0. -1.
</event>
<event>
 7    1  0.1538805E-008  0.4614232E+02  0.7816164E-02  0.1320468E+00
        -11   -1    0    0    0    0  0.00000000000E+00  0.00000000000E+00  0.45593999997E+02  0.45594000000E+02  0.51100000000E-03 0. -1.
         11   -1    0    0    0    0 -0.00000000000E+00 -0.00000000000E+00 -0.45593999997E+02  0.45594000000E+02  0.51100000000E-03 0.  1.
    9900012    2    1    2    0    0  0.34871025479E+02 -0.76157895643E+01  0.27479534535E+02  0.46142317778E+02  0.10000000152E+02 0.  0.
        -12    1    1    2    0    0 -0.34871025479E+02  0.76157895643E+01 -0.27479534535E+02  0.45045682222E+02  0.00000000000E+00 0.  1.
         11    1    3    3    0    0  0.21342847954E+01 -0.17646328598E+01  0.20519686632E+00  0.27769059640E+01  0.51100000000E-03 0. -1.
        -11    1    3    3    0    0  0.24658010171E+02 -0.20659417733E+01  0.19000543671E+02  0.31197856354E+02  0.51100000000E-03 0.  1.
         12    1    3    3    0    0  0.80787305119E+01 -0.37852149312E+01  0.82737939970E+01  0.12167555460E+02  0.00000000000E+00 0. -1.
</event>
<event>
 7    1  0.1538805E-008  0.4614232E+02  0.7816164E-02  0.1320468E+00
        -11   -1    0    0    0    0  0.00000000000E+00  0.00000000000E+00  0.45593999997E+02  0.45594000000E+02  0.51100000000E-03 0.  1.
         11   -1    0    0    0    0 -0.00000000000E+00 -0.00000000000E+00 -0.45593999997E+02  0.45594000000E+02  0.51100000000E-03 0. -1.
    9900012    2    1    2    0    0 -0.25104887918E+02  0.23334669043E+02 -0.29229288995E+02  0.46142317500E+02  0.99999976216E+01 0.  0.
        -12    1    1    2    0    0  0.25104887918E+02 -0.23334669043E+02  0.29229288995E+02  0.45045682500E+02  0.00000000000E+00 0.  1.
         11    1    3    3    0    0 -0.82585269889E+01  0.73720586289E+01 -0.11869329433E+02  0.16230572938E+02  0.51100000000E-03 0. -1.
        -11    1    3    3    0    0 -0.16049133500E+02  0.14404616115E+02 -0.17956767152E+02  0.28062664491E+02  0.51100000000E-03 0.  1.
        -12    1    3    3    0    0 -0.79722742975E+00  0.15579942985E+01  0.59680759034E+00  0.18490800709E+01  0.00000000000E+00 0.  1.
</event>
<event>
 7    1  0.1538805E-008  0.4614232E+02  0.7816164E-02  0.1320468E+00
        -11   -1    0    0    0    0  0.00000000000E+00  0.00000000000E+00  0.45593999997E+02  0.45594000000E+02  0.51100000000E-03 0.  1.
         11   -1    0    0    0    0 -0.00000000000E+00 -0.00000000000E+00 -0.45593999997E+02  0.45594000000E+02  0.51100000000E-03 0. -1.
    9900012    2    1    2    0    0  0.20289294961E+02 -0.44474615129E+01 -0.39970964856E+02  0.46142318349E+02  0.10000005359E+02 0.  0.
        -12    1    1    2    0    0 -0.20289294961E+02  0.44474615129E+01  0.39970964856E+02  0.45045681651E+02  0.00000000000E+00 0.  1.
         11    1    3    3    0    0  0.66093501195E+01  0.45534699096E-01 -0.14060528871E+02  0.15536539344E+02  0.51100000000E-03 0. -1.
        -11    1    3    3    0    0  0.51788336219E+01 -0.54754521962E+01 -0.14512821538E+02  0.16353069549E+02  0.51100000000E-03 0.  1.
        -12    1    3    3    0    0  0.85011112194E+01  0.98245598424E+00 -0.11397614447E+02  0.14252709455E+02  0.00000000000E+00 0.  1.
</event>
<event>
 7    1  0.1538805E-008  0.4614232E+02  0.7816164E-02  0.1320468E+00
        -11   -1    0    0    0    0  0.00000000000E+00  0.00000000000E+00  0.45593999997E+02  0.45594000000E+02  0.51100000000E-03 0. -1.
         11   -1    0    0    0    0 -0.00000000000E+00 -0.00000000000E+00 -0.45593999997E+02  0.45594000000E+02  0.51100000000E-03 0.  1.
    9900012    2    1    2    0    0  0.37532560238E+02 -0.70928911426E+01  0.23876998614E+02  0.46142320456E+02  0.10000024574E+02 0.  0.
        -12    1    1    2    0    0 -0.37532560238E+02  0.70928911426E+01 -0.23876998614E+02  0.45045679544E+02  0.00000000000E+00 0.  1.
         11    1    3    3    0    0  0.17862907679E+02 -0.75859744666E+01  0.13189450546E+02  0.23464698706E+02  0.51100000000E-03 0. -1.
        -11    1    3    3    0    0  0.51251826146E+01 -0.41622709154E+00  0.11742665260E+01  0.52744330463E+01  0.51100000000E-03 0.  1.
         12    1    3    3    0    0  0.14544469944E+02  0.90931041557E+00  0.95132815414E+01  0.17403188704E+02  0.00000000000E+00 0. -1.
</event>
<event>
 7    1  0.1538805E-008  0.4614232E+02  0.7816164E-02  0.1320468E+00
        -11   -1    0    0    0    0  0.00000000000E+00  0.00000000000E+00  0.45593999997E+02  0.45594000000E+02  0.51100000000E-03 0.  1.
         11   -1    0    0    0    0 -0.00000000000E+00 -0.00000000000E+00 -0.45593999997E+02  0.45594000000E+02  0.51100000000E-03 0. -1.
    9900012    2    1    2    0    0  0.18186877256E+02  0.37171088049E+02 -0.17794970154E+02  0.46142320364E+02  0.10000023737E+02 0.  0.
        -12    1    1    2    0    0 -0.18186877256E+02 -0.37171088049E+02  0.17794970154E+02  0.45045679636E+02  0.00000000000E+00 0.  1.
         11    1    3    3    0    0  0.10307886905E+02  0.11695005375E+02 -0.51286249397E+01  0.16411230216E+02  0.51100000000E-03 0. -1.
        -11    1    3    3    0    0  0.42523737254E+01  0.18423411679E+02 -0.80083336534E+01  0.20533830338E+02  0.51100000000E-03 0.  1.
         12    1    3    3    0    0  0.36266166251E+01  0.70526709954E+01 -0.46580115606E+01  0.91972598100E+01  0.00000000000E+00 0. -1.
</event>
<event>
 7    1  0.1538805E-008  0.4614232E+02  0.7816164E-02  0.1320468E+00
        -11   -1    0    0    0    0  0.00000000000E+00  0.00000000000E+00  0.45593999997E+02  0.45594000000E+02  0.51100000000E-03 0.  1.
         11   -1    0    0    0    0 -0.00000000000E+00 -0.00000000000E+00 -0.45593999997E+02  0.45594000000E+02  0.51100000000E-03 0. -1.
    9900012    2    1    2    0    0 -0.10383388863E+02  0.28286271457E+02 -0.33484110017E+02  0.46142317179E+02  0.99999946876E+01 0.  0.
        -12    1    1    2    0    0  0.10383388863E+02 -0.28286271457E+02  0.33484110017E+02  0.45045682821E+02  0.00000000000E+00 0.  1.
         11    1    3    3    0    0 -0.12448427278E+01  0.90368295476E+00 -0.15025660922E+01  0.21503444892E+01  0.51100000000E-03 0. -1.
        -11    1    3    3    0    0 -0.86565351988E+00  0.22422247807E+01  0.95884260188E-01  0.24054359347E+01  0.51100000000E-03 0.  1.
        -12    1    3    3    0    0 -0.82728926157E+01  0.25140363721E+02 -0.32077428185E+02  0.41586536755E+02  0.00000000000E+00 0.  1.
</event>
<event>
 7    1  0.1538805E-008  0.4614232E+02  0.7816164E-02  0.1320468E+00
        -11   -1    0    0    0    0  0.00000000000E+00  0.00000000000E+00  0.45593999997E+02  0.45594000000E+02  0.51100000000E-03 0.  1.
         11   -1    0    0    0    0 -0.00000000000E+00 -0.00000000000E+00 -0.45593999997E+02  0.45594000000E+02  0.51100000000E-03 0. -1.
    9900012    2    1    2    0    0 -0.33585181583E+02 -0.22538864946E+02 -0.19827976693E+02  0.46142317468E+02  0.99999973282E+01 0.  0.
        -12    1    1    2    0    0  0.33585181583E+02  0.22538864946E+02  0.19827976693E+02  0.45045682532E+02  0.00000000000E+00 0.  1.
         11    1    3    3    0    0 -0.25795755422E+02 -0.20020712391E+02 -0.13727168574E+02  0.35421534125E+02  0.51100000000E-03 0. -1.
        -11    1    3    3    0    0 -0.14418271783E+01  0.79608790026E+00 -0.96736455922E+00  0.19100827230E+01  0.51100000000E-03 0.  1.
         12    1    3    3    0    0 -0.63475989822E+01 -0.33142404560E+01 -0.51334435596E+01  0.88107006202E+01  0.00000000000E+00 0. -1.
</event>
<event>
 7    1  0.1538805E-008  0.4614232E+02  0.7816164E-02  0.1320468E+00
        -11   -1    0    0    0    0  0.00000000000E+00  0.00000000000E+00  0.45593999997E+02  0.45594000000E+02  0.51100000000E-03 0. -1.
         11   -1    0    0    0    0 -0.00000000000E+00 -0.00000000000E+00 -0.45593999997E+02  0.45594000000E+02  0.51100000000E-03 0.  1.
    9900012    2    1    2    0    0  0.33557006534E+02 -0.21245910969E+02  0.21252106029E+02  0.46142318397E+02  0.10000005797E+02 0.  0.
        -12    1    1    2    0    0 -0.33557006534E+02  0.21245910969E+02 -0.21252106029E+02  0.45045681603E+02  0.00000000000E+00 0.  1.
         11    1    3    3    0    0  0.13848540735E+02 -0.84284294331E+01  0.11667330307E+02  0.19973660154E+02  0.51100000000E-03 0. -1.
        -11    1    3    3    0    0  0.37031145283E+01 -0.54365773883E+01  0.13520571138E+01  0.67154664476E+01  0.51100000000E-03 0.  1.
         12    1    3    3    0    0  0.16005351271E+02 -0.73809041475E+01  0.82327186082E+01  0.19453191795E+02  0.00000000000E+00 0. -1.
</event>
<event>
 7    1  0.1538805E-008  0.4614232E+02  0.7816164E-02  0.1320468E+00
        -11   -1    0    0    0    0  0.00000000000E+00  0.00000000000E+00  0.45593999997E+02  0.45594000000E+02  0.51100000000E-03 0.  1.
         11   -1    0    0    0    0 -0.00000000000E+00 -0.00000000000E+00 -0.45593999997E+02  0.45594000000E+02  0.51100000000E-03 0. -1.
    9900012    2    1    2    0    0  0.36422776308E+02 -0.81722586051E+01 -0.25213270491E+02  0.46142318148E+02  0.10000003525E+02 0.  0.
        -12    1    1    2    0    0 -0.36422776308E+02  0.81722586051E+01  0.25213270491E+02  0.45045681852E+02  0.00000000000E+00 0.  1.
         11    1    3    3    0    0  0.44517395841E+00  0.41605085781E+00  0.52980214096E+00  0.80744581195E+00  0.51100000000E-03 0. -1.
        -11    1    3    3    0    0  0.21952946971E+02 -0.65138307552E+01 -0.13361686421E+02  0.26512195988E+02  0.51100000000E-03 0.  1.
         12    1    3    3    0    0  0.14024655379E+02 -0.20744787078E+01 -0.12381386211E+02  0.18822676348E+02  0.00000000000E+00 0. -1.
</event>
<event>
 7    1  0.1538805E-008  0.4614232E+02  0.7816164E-02  0.1320468E+00
        -11   -1    0    0    0    0  0.00000000000E+00  0.00000000000E+00  0.45593999997E+02  0.45594000000E+02  0.51100000000E-03 0.  1.
         11   -1    0    0    0    0 -0.00000000000E+00 -0.00000000000E+00 -0.45593999997E+02  0.45594000000E+02  0.51100000000E-03 0. -1.
    9900012    2    1    2    0    0  0.92536569664E+01 -0.98654548272E+01 -0.42966919645E+02  0.46142317077E+02  0.99999937635E+01 0.  0.
        -12    1    1    2    0    0 -0.92536569664E+01  0.98654548272E+01  0.42966919645E+02  0.45045682923E+02  0.00000000000E+00 0.  1.
         11    1    3    3    0    0  0.90267620058E+01 -0.57569382339E+01 -0.33073589105E+02  0.34763300572E+02  0.51100000000E-03 0. -1.
        -11    1    3    3    0    0  0.47916840668E+00 -0.32224812646E+01 -0.30139627923E+01  0.44382383709E+01  0.51100000000E-03 0.  1.
         12    1    3    3    0    0 -0.25227344605E+00 -0.88603532873E+00 -0.68793677478E+01  0.69407781339E+01  0.00000000000E+00 0. -1.
</event>
<event>
 7    1  0.1538805E-008  0.4614232E+02  0.7816164E-02  0.1320468E+00
        -11   -1    0    0    0    0  0.00000000000E+00  0.00000000000E+00  0.45593999997E+02  0.45594000000E+02  0.51100000000E-03 0.  1.
         11   -1    0    0    0    0 -0.00000000000E+00 -0.00000000000E+00 -0.45593999997E+02  0.45594000000E+02  0.51100000000E-03 0. -1.
    9900012    2    1    2    0    0  0.18399660505E+02 -0.18396018350E+02 -0.36771625798E+02  0.46142318057E+02  0.10000002702E+02 0.  0.
        -12    1    1    2    0    0 -0.18399660505E+02  0.18396018350E+02  0.36771625798E+02  0.45045681943E+02  0.00000000000E+00 0.  1.
         11    1    3    3    0    0  0.12521423559E+02 -0.10937176283E+02 -0.28229924141E+02  0.32761814514E+02  0.51100000000E-03 0. -1.
        -11    1    3    3    0    0  0.62387474313E+01 -0.76646304064E+01 -0.82416089502E+01  0.12868280659E+02  0.51100000000E-03 0.  1.
         12    1    3    3    0    0 -0.36051048483E+00  0.20578833928E+00 -0.30009270674E+00  0.51222288401E+00  0.00000000000E+00 0. -1.
</event>
<event>
 7    1  0.1538805E-008  0.4614232E+02  0.7816164E-02  0.1320468E+00
        -11   -1    0    0    0    0  0.00000000000E+00  0.00000000000E+00  0.45593999997E+02  0.45594000000E+02  0.51100000000E-03 0.  1.
         11   -1    0    0    0    0 -0.00000000000E+00 -0.00000000000E+00 -0.45593999997E+02  0.45594000000E+02  0.51100000000E-03 0. -1.
    9900012    2    1    2    0    0 -0.79180507043E+01  0.23218451762E+02 -0.37779908638E+02  0.46142317345E+02  0.99999962045E+01 0.  0.
        -12    1    1    2    0    0  0.79180507043E+01 -0.23218451762E+02  0.37779908638E+02  0.45045682655E+02  0.00000000000E+00 0.  1.
         11    1    3    3    0    0 -0.87722254036E+01  0.17223648920E+02 -0.23400751087E+02  0.30351296057E+02  0.51100000000E-03 0. -1.
        -11    1    3    3    0    0  0.14516111501E+01  0.45724864024E+01 -0.90480712884E+01  0.10241210921E+02  0.51100000000E-03 0.  1.
        -12    1    3    3    0    0 -0.59743645079E+00  0.14223164397E+01 -0.53310862626E+01  0.55498103667E+01  0.00000000000E+00 0.  1.
</event>
<event>
 7    1  0.1538805E-008  0.4614232E+02  0.7816164E-02  0.1320468E+00
        -11   -1    0    0    0    0  0.00000000000E+00  0.00000000000E+00  0.45593999997E+02  0.45594000000E+02  0.51100000000E-03 0. -1.
         11   -1    0    0    0    0 -0.00000000000E+00 -0.00000000000E+00 -0.45593999997E+02  0.45594000000E+02  0.51100000000E-03 0.  1.
    9900012    2    1    2    0    0  0.19883082157E+02  0.14228447329E+02  0.37832892811E+02  0.46142318210E+02  0.10000004094E+02 0.  0.
        -12    1    1    2    0    0 -0.19883082157E+02 -0.14228447329E+02 -0.37832892811E+02  0.45045681790E+02  0.00000000000E+00 0.  1.
         11    1    3    3    0    0  0.30651166732E+01  0.60352405136E+01  0.89921214244E+01  0.11255101788E+02  0.51100000000E-03 0. -1.
        -11    1    3    3    0    0  0.40683881311E+01 -0.48052040861E+00  0.76750657376E+01  0.86999607002E+01  0.51100000000E-03 0.  1.
         12    1    3    3    0    0  0.12749577353E+02  0.86737272239E+01  0.21165705649E+02  0.26187255722E+02  0.00000000000E+00 0. -1.
</event>
<event>
 7    1  0.1538805E-008  0.4614232E+02  0.7816164E-02  0.1320468E+00
        -11   -1    0    0    0    0  0.00000000000E+00  0.00000000000E+00  0.45593999997E+02  0.45594000000E+02  0.51100000000E-03 0. -1.
         11   -1    0    0    0    0 -0.00000000000E+00 -0.00000000000E+00 -0.45593999997E+02  0.45594000000E+02  0.51100000000E-03 0.  1.
    9900012    2    1    2    0    0 -0.62283147823E+01  0.40319903464E+02 -0.19095207312E+02  0.46142318047E+02  0.10000002604E+02 0.  0.
        -12    1    1    2    0    0  0.62283147823E+01 -0.40319903464E+02  0.19095207312E+02  0.45045681953E+02  0.00000000000E+00 0.  1.
         11    1    3    3    0    0 -0.69057952870E+01  0.25072679420E+02 -0.13475771871E+02  0.29290368547E+02  0.51100000000E-03 0. -1.
        -11    1    3    3    0    0  0.23649883289E+01  0.55348020554E+01 -0.18328165958E+01  0.62917740363E+01  0.51100000000E-03 0.  1.
         12    1    3    3    0    0 -0.16875078241E+01  0.97124219879E+01 -0.37866188455E+01  0.10560175463E+02  0.00000000000E+00 0. -1.
</event>
<event>
 7    1  0.1538805E-008  0.4614233E+02  0.7816164E-02  0.1320468E+00
        -11   -1    0    0    0    0  0.00000000000E+00  0.00000000000E+00  0.45593999997E+02  0.45594000000E+02  0.51100000000E-03 0.  1.
         11   -1    0    0    0    0 -0.00000000000E+00 -0.00000000000E+00 -0.45593999997E+02  0.45594000000E+02  0.51100000000E-03 0. -1.
    9900012    2    1    2    0    0 -0.18958650054E+02 -0.19583495894E+02 -0.35863198336E+02  0.46142326310E+02  0.10000077958E+02 0.  0.
        -12    1    1    2    0    0  0.18958650054E+02  0.19583495894E+02  0.35863198336E+02  0.45045673690E+02  0.00000000000E+00 0.  1.
         11    1    3    3    0    0 -0.11027925571E+01  0.48831643880E+00 -0.71313577480E+00  0.14011307087E+01  0.51100000000E-03 0. -1.
        -11    1    3    3    0    0 -0.93960128643E+00  0.28333672146E+00 -0.39979383195E+00  0.10597007334E+01  0.51100000000E-03 0.  1.
         12    1    3    3    0    0 -0.16916256210E+02 -0.20355149054E+02 -0.34750268729E+02  0.43681494868E+02  0.00000000000E+00 0. -1.
</event>
<event>
 7    1  0.1538805E-008  0.4614232E+02  0.7816164E-02  0.1320468E+00
        -11   -1    0    0    0    0  0.00000000000E+00  0.00000000000E+00  0.45593999997E+02  0.45594000000E+02  0.51100000000E-03 0.  1.
         11   -1    0    0    0    0 -0.00000000000E+00 -0.00000000000E+00 -0.45593999997E+02  0.45594000000E+02  0.51100000000E-03 0. -1.
    9900012    2    1    2    0    0  0.34897811840E+02  0.23879147902E+02 -0.15525543526E+02  0.46142317882E+02  0.10000001098E+02 0.  0.
        -12    1    1    2    0    0 -0.34897811840E+02 -0.23879147902E+02  0.15525543526E+02  0.45045682118E+02  0.00000000000E+00 0.  1.
         11    1    3    3    0    0  0.23843593224E+02  0.20903692359E+02 -0.99942706924E+01  0.33247056096E+02  0.51100000000E-03 0. -1.
        -11    1    3    3    0    0  0.48407674699E+01  0.17287545797E+01 -0.13899562714E+01  0.53248099301E+01  0.51100000000E-03 0.  1.
         12    1    3    3    0    0  0.62134511457E+01  0.12467009630E+01 -0.41413165620E+01  0.75704518556E+01  0.00000000000E+00 0. -1.
</event>
<event>
 7    1  0.1538805E-008  0.4614232E+02  0.7816164E-02  0.1320468E+00
        -11   -1    0    0    0    0  0.00000000000E+00  0.00000000000E+00  0.45593999997E+02  0.45594000000E+02  0.51100000000E-03 0.  1.
         11   -1    0    0    0    0 -0.00000000000E+00 -0.00000000000E+00 -0.45593999997E+02  0.45594000000E+02  0.51100000000E-03 0. -1.
    9900012    2    1    2    0    0 -0.23075339398E+02  0.32515357050E+02 -0.20961720737E+02  0.46142317979E+02  0.10000001991E+02 0.  0.
        -12    1    1    2    0    0  0.23075339398E+02 -0.32515357050E+02  0.20961720737E+02  0.45045682021E+02  0.00000000000E+00 0.  1.
         11    1    3    3    0    0 -0.10560166944E+02  0.15021567826E+02 -0.87022949414E+01  0.20319807168E+02  0.51100000000E-03 0. -1.
        -11    1    3    3    0    0 -0.77168334951E+01  0.93850772631E+01 -0.27947806519E+01  0.12467557643E+02  0.51100000000E-03 0.  1.
        -12    1    3    3    0    0 -0.47983389587E+01  0.81087119609E+01 -0.94646451438E+01  0.13354953168E+02  0.00000000000E+00 0.  1.
</event>
<event>
 7    1  0.1538805E-008  0.4614231E+02  0.7816164E-02  0.1320468E+00
        -11   -1    0    0    0    0  0.00000000000E+00  0.00000000000E+00  0.45593999997E+02  0.45594000000E+02  0.51100000000E-03 0. -1.
         11   -1    0    0    0    0 -0.00000000000E+00 -0.00000000000E+00 -0.45593999997E+02  0.45594000000E+02  0.51100000000E-03 0.  1.
    9900012    2    1    2    0    0 -0.19884063227E+02  0.17040374622E+02  0.36651924618E+02  0.46142313016E+02  0.99999567304E+01 0.  0.
        -12    1    1    2    0    0  0.19884063227E+02 -0.17040374622E+02 -0.36651924618E+02  0.45045686984E+02  0.00000000000E+00 0.  1.
         11    1    3    3    0    0 -0.10444571073E+02  0.11478253645E+02  0.26615535071E+02  0.30809512801E+02  0.51100000000E-03 0. -1.
        -11    1    3    3    0    0 -0.90158272147E+01  0.61156363208E+01  0.94083426729E+01  0.14394549666E+02  0.51100000000E-03 0.  1.
         12    1    3    3    0    0 -0.42366493861E+00 -0.55351534443E+00  0.62804687379E+00  0.93825054884E+00  0.00000000000E+00 0. -1.
</event>
<event>
 7    1  0.1538805E-008  0.4614232E+02  0.7816164E-02  0.1320468E+00
        -11   -1    0    0    0    0  0.00000000000E+00  0.00000000000E+00  0.45593999997E+02  0.45594000000E+02  0.51100000000E-03 0.  1.
         11   -1    0    0    0    0 -0.00000000000E+00 -0.00000000000E+00 -0.45593999997E+02  0.45594000000E+02  0.51100000000E-03 0. -1.
    9900012    2    1    2    0    0  0.21212128445E+02  0.11460234524E+01 -0.39722106621E+02  0.46142317440E+02  0.99999970719E+01 0.  0.
        -12    1    1    2    0    0 -0.21212128445E+02 -0.11460234524E+01  0.39722106621E+02  0.45045682560E+02  0.00000000000E+00 0.  1.
         11    1    3    3    0    0  0.13753171757E+02 -0.45720389222E+00 -0.22680734365E+02  0.26528748187E+02  0.51100000000E-03 0. -1.
        -11    1    3    3    0    0 -0.28805010164E+00  0.38872597922E+00  0.30856147589E+00  0.57383899615E+00  0.51100000000E-03 0.  1.
        -12    1    3    3    0    0  0.77470067896E+01  0.12145013654E+01 -0.17349933731E+02  0.19039730257E+02  0.00000000000E+00 0.  1.
</event>
<event>
 7    1  0.1538805E-008  0.4614232E+02  0.7816164E-02  0.1320468E+00
        -11   -1    0    0    0    0  0.00000000000E+00  0.00000000000E+00  0.45593999997E+02  0.45594000000E+02  0.51100000000E-03 0.  1.
         11   -1    0    0    0    0 -0.00000000000E+00 -0.00000000000E+00 -0.45593999997E+02  0.45594000000E+02  0.51100000000E-03 0. -1.
    9900012    2    1    2    0    0  0.32719809761E+02 -0.27601887266E+02 -0.14023669479E+02  0.46142318330E+02  0.10000005190E+02 0.  0.
        -12    1    1    2    0    0 -0.32719809761E+02  0.27601887266E+02  0.14023669479E+02  0.45045681670E+02  0.00000000000E+00 0.  1.
         11    1    3    3    0    0 -0.46579337713E+00 -0.17548742986E+01 -0.39773688513E+00  0.18586936716E+01  0.51100000000E-03 0. -1.
        -11    1    3    3    0    0  0.14852457391E+01 -0.77574690254E+00 -0.16109866155E+00  0.16833571226E+01  0.51100000000E-03 0.  1.
         12    1    3    3    0    0  0.31700357399E+02 -0.25071266065E+02 -0.13464833932E+02  0.42600267536E+02  0.00000000000E+00 0. -1.
</event>
<event>
 7    1  0.1538805E-008  0.4614231E+02  0.7816164E-02  0.1320468E+00
        -11   -1    0    0    0    0  0.00000000000E+00  0.00000000000E+00  0.45593999997E+02  0.45594000000E+02  0.51100000000E-03 0. -1.
         11   -1    0    0    0    0 -0.00000000000E+00 -0.00000000000E+00 -0.45593999997E+02  0.45594000000E+02  0.51100000000E-03 0.  1.
    9900012    2    1    2    0    0  0.18976286134E+02  0.34814022324E+02  0.21377515239E+02  0.46142314928E+02  0.99999741647E+01 0.  0.
        -12    1    1    2    0    0 -0.18976286134E+02 -0.34814022324E+02 -0.21377515239E+02  0.45045685072E+02  0.00000000000E+00 0.  1.
         11    1    3    3    0    0  0.17034915637E+02  0.31407804248E+02  0.15754333500E+02  0.39049168272E+02  0.51100000000E-03 0. -1.
        -11    1    3    3    0    0  0.13588562116E+01  0.30801614861E+01  0.34527843746E+01  0.48224065758E+01  0.51100000000E-03 0.  1.
         12    1    3    3    0    0  0.58251428574E+00  0.32605658990E+00  0.21703973642E+01  0.22707400801E+01  0.00000000000E+00 0. -1.
</event>
<event>
 7    1  0.1538805E-008  0.4614232E+02  0.7816164E-02  0.1320468E+00
        -11   -1    0    0    0    0  0.00000000000E+00  0.00000000000E+00  0.45593999997E+02  0.45594000000E+02  0.51100000000E-03 0.  1.
         11   -1    0    0    0    0 -0.00000000000E+00 -0.00000000000E+00 -0.45593999997E+02  0.45594000000E+02  0.51100000000E-03 0. -1.
    9900012    2    1    2    0    0 -0.14772812346E+02 -0.12961117482E+02 -0.40532542351E+02  0.46142317183E+02  0.99999947260E+01 0.  0.
        -12    1    1    2    0    0  0.14772812346E+02  0.12961117482E+02  0.40532542351E+02  0.45045682817E+02  0.00000000000E+00 0.  1.
         11    1    3    3    0    0 -0.10469832169E+02 -0.12897972799E+02 -0.28199833124E+02  0.32729278581E+02  0.51100000000E-03 0. -1.
        -11    1    3    3    0    0 -0.45547844158E+01 -0.67026376689E+00 -0.11079157875E+02  0.11997627018E+02  0.51100000000E-03 0.  1.
         12    1    3    3    0    0  0.25180423843E+00  0.60711908375E+00 -0.12535513529E+01  0.14154115835E+01  0.00000000000E+00 0. -1.
</event>
<event>
 7    1  0.1538805E-008  0.4614232E+02  0.7816164E-02  0.1320468E+00
        -11   -1    0    0    0    0  0.00000000000E+00  0.00000000000E+00  0.45593999997E+02  0.45594000000E+02  0.51100000000E-03 0.  1.
         11   -1    0    0    0    0 -0.00000000000E+00 -0.00000000000E+00 -0.45593999997E+02  0.45594000000E+02  0.51100000000E-03 0. -1.
    9900012    2    1    2    0    0 -0.40553891805E+02 -0.19479254422E+02 -0.22481161025E+01  0.46142317417E+02  0.99999968663E+01 0.  0.
        -12    1    1    2    0    0  0.40553891805E+02  0.19479254422E+02  0.22481161025E+01  0.45045682583E+02  0.00000000000E+00 0.  1.
         11    1    3    3    0    0 -0.32889615994E+02 -0.19258909797E+02 -0.33656102015E+01  0.38261727341E+02  0.51100000000E-03 0. -1.
        -11    1    3    3    0    0 -0.41672678667E+01  0.18585495096E+00  0.12588895708E+01  0.43572315463E+01  0.51100000000E-03 0.  1.
         12    1    3    3    0    0 -0.34970079440E+01 -0.40619957549E+00 -0.14139547182E+00  0.35233585306E+01  0.00000000000E+00 0. -1.
</event>
<event>
 7    1  0.1538805E-008  0.4614232E+02  0.7816164E-02  0.1320468E+00
        -11   -1    0    0    0    0  0.00000000000E+00  0.00000000000E+00  0.45593999997E+02  0.45594000000E+02  0.51100000000E-03 0.  1.
         11   -1    0    0    0    0 -0.00000000000E+00 -0.00000000000E+00 -0.45593999997E+02  0.45594000000E+02  0.51100000000E-03 0. -1.
    9900012    2    1    2    0    0 -0.36591668957E+02 -0.26043226238E+02  0.34516006989E+01  0.46142318549E+02  0.10000007186E+02 0.  0.
        -12    1    1    2    0    0  0.36591668957E+02  0.26043226238E+02 -0.34516006989E+01  0.45045681451E+02  0.00000000000E+00 0.  1.
         11    1    3    3    0    0 -0.22876545175E+01 -0.43743256210E+01 -0.75797891492E+00  0.49942587165E+01  0.51100000000E-03 0. -1.
        -11    1    3    3    0    0 -0.22265995542E+02 -0.15393898297E+02  0.50920955565E+01  0.27544075582E+02  0.51100000000E-03 0.  1.
        -12    1    3    3    0    0 -0.12038018898E+02 -0.62750023203E+01 -0.88251594273E+00  0.13603984250E+02  0.00000000000E+00 0.  1.
</event>
<event>
 7    1  0.1538805E-008  0.4614232E+02  0.7816164E-02  0.1320468E+00
        -11   -1    0    0    0    0  0.00000000000E+00  0.00000000000E+00  0.45593999997E+02  0.45594000000E+02  0.51100000000E-03 0.  1.
         11   -1    0    0    0    0 -0.00000000000E+00 -0.00000000000E+00 -0.45593999997E+02  0.45594000000E+02  0.51100000000E-03 0. -1.
    9900012    2    1    2    0    0 -0.27499265785E+02  0.41369419511E+01 -0.35437122572E+02  0.46142316925E+02  0.99999923788E+01 0.  0.
        -12    1    1    2    0    0  0.27499265785E+02 -0.41369419511E+01  0.35437122572E+02  0.45045683075E+02  0.00000000000E+00 0.  1.
         11    1    3    3    0    0 -0.10129769476E+02  0.40495335584E+01 -0.15812906415E+02  0.19210907351E+02  0.51100000000E-03 0. -1.
        -11    1    3    3    0    0 -0.33981165939E+01  0.90842184832E+00 -0.10424678601E+01  0.36686736215E+01  0.51100000000E-03 0.  1.
         12    1    3    3    0    0 -0.13971379715E+02 -0.82101345562E+00 -0.18581748297E+02  0.23262735953E+02  0.00000000000E+00 0. -1.
</event>
<event>
 7    1  0.1538805E-008  0.4614232E+02  0.7816164E-02  0.1320468E+00
        -11   -1    0    0    0    0  0.00000000000E+00  0.00000000000E+00  0.45593999997E+02  0.45594000000E+02  0.51100000000E-03 0.  1.
         11   -1    0    0    0    0 -0.00000000000E+00 -0.00000000000E+00 -0.45593999997E+02  0.45594000000E+02  0.51100000000E-03 0. -1.
    9900012    2    1    2    0    0 -0.17538478868E+02  0.15622776864E-01 -0.41491143406E+02  0.46142318007E+02  0.10000002242E+02 0.  0.
        -12    1    1    2    0    0  0.17538478868E+02 -0.15622776864E-01  0.41491143406E+02  0.45045681993E+02  0.00000000000E+00 0.  1.
         11    1    3    3    0    0 -0.80134904056E+01  0.22545270769E+01 -0.18450458957E+02  0.20241500854E+02  0.51100000000E-03 0. -1.
        -11    1    3    3    0    0 -0.10122554855E+02 -0.16794087099E+01 -0.17393142392E+02  0.20194254949E+02  0.51100000000E-03 0.  1.
        -12    1    3    3    0    0  0.59756639262E+00 -0.55949559011E+00 -0.56475420565E+01  0.57065622041E+01  0.00000000000E+00 0.  1.
</event>
<event>
 7    1  0.1538805E-008  0.4614232E+02  0.7816164E-02  0.1320468E+00
        -11   -1    0    0    0    0  0.00000000000E+00  0.00000000000E+00  0.45593999997E+02  0.45594000000E+02  0.51100000000E-03 0.  1.
         11   -1    0    0    0    0 -0.00000000000E+00 -0.00000000000E+00 -0.45593999997E+02  0.45594000000E+02  0.51100000000E-03 0. -1.
    9900012    2    1    2    0    0  0.25301337501E+02  0.21858003677E+02 -0.30185815596E+02  0.46142317996E+02  0.10000002140E+02 0.  0.
        -12    1    1    2    0    0 -0.25301337501E+02 -0.21858003677E+02  0.30185815596E+02  0.45045682004E+02  0.00000000000E+00 0.  1.
         11    1    3    3    0    0  0.48949711310E+01  0.13074108099E+01 -0.34569818529E+01  0.61335788241E+01  0.51100000000E-03 0. -1.
        -11    1    3    3    0    0  0.15388119678E+02  0.13601333893E+02 -0.22455235551E+02  0.30430710061E+02  0.51100000000E-03 0.  1.
        -12    1    3    3    0    0  0.50182466919E+01  0.69492589740E+01 -0.42735981919E+01  0.95780291111E+01  0.00000000000E+00 0.  1.
</event>
<event>
 7    1  0.1538805E-008  0.4614232E+02  0.7816164E-02  0.1320468E+00
        -11   -1    0    0    0    0  0.00000000000E+00  0.00000000000E+00  0.45593999997E+02  0.45594000000E+02  0.51100000000E-03 0. -1.
         11   -1    0    0    0    0 -0.00000000000E+00 -0.00000000000E+00 -0.45593999997E+02  0.45594000000E+02  0.51100000000E-03 0.  1.
    9900012    2    1    2    0    0 -0.28271574545E+02  0.93028399278E+01  0.33812553708E+02  0.46142317119E+02  0.99999941404E+01 0.  0.
        -12    1    1    2    0    0  0.28271574545E+02 -0.93028399278E+01 -0.33812553708E+02  0.45045682881E+02  0.00000000000E+00 0.  1.
         11    1    3    3    0    0 -0.51818512165E+01  0.11843936695E+01  0.10615752478E+02  0.11872176352E+02  0.51100000000E-03 0. -1.
        -11    1    3    3    0    0 -0.68754771163E+00  0.18233569162E+01  0.15753564034E+01  0.25058133127E+01  0.51100000000E-03 0.  1.
        -12    1    3    3    0    0 -0.22402175617E+02  0.62950893422E+01  0.21621444827E+02  0.31764327454E+02  0.00000000000E+00 0.  1.
</event>
<event>
 7    1  0.1538805E-008  0.4614232E+02  0.7816164E-02  0.1320468E+00
        -11   -1    0    0    0    0  0.00000000000E+00  0.00000000000E+00  0.45593999997E+02  0.45594000000E+02  0.51100000000E-03 0.  1.
         11   -1    0    0    0    0 -0.00000000000E+00 -0.00000000000E+00 -0.45593999997E+02  0.45594000000E+02  0.51100000000E-03 0. -1.
    9900012    2    1    2    0    0 -0.41064558611E+02 -0.13819467343E+02 -0.12322249437E+02  0.46142317823E+02  0.10000000565E+02 0.  0.
        -12    1    1    2    0    0  0.41064558611E+02  0.13819467343E+02  0.12322249437E+02  0.45045682177E+02  0.00000000000E+00 0.  1.
         11    1    3    3    0    0 -0.77093188935E+01 -0.24329165953E+01 -0.98493270335E+00  0.81438795210E+01  0.51100000000E-03 0. -1.
        -11    1    3    3    0    0 -0.13363527352E+02 -0.74211274453E+01 -0.82948060288E+01  0.17391400265E+02  0.51100000000E-03 0.  1.
        -12    1    3    3    0    0 -0.19991712366E+02 -0.39654233025E+01 -0.30425107052E+01  0.20607038037E+02  0.00000000000E+00 0.  1.
</event>
<event>
 7    1  0.1538805E-008  0.4614231E+02  0.7816164E-02  0.1320468E+00
        -11   -1    0    0    0    0  0.00000000000E+00  0.00000000000E+00  0.45593999997E+02  0.45594000000E+02  0.51100000000E-03 0.  1.
         11   -1    0    0    0    0 -0.00000000000E+00 -0.00000000000E+00 -0.45593999997E+02  0.45594000000E+02  0.51100000000E-03 0. -1.
    9900012    2    1    2    0    0 -0.99484031666E+01  0.27157274602E+02 -0.34534414403E+02  0.46142311332E+02  0.99999413774E+01 0.  0.
        -12    1    1    2    0    0  0.99484031666E+01 -0.27157274602E+02  0.34534414403E+02  0.45045688668E+02  0.00000000000E+00 0.  1.
         11    1    3    3    0    0 -0.92514269518E+01  0.13608997131E+02 -0.23211150010E+02  0.28452613037E+02  0.51100000000E-03 0. -1.
        -11    1    3    3    0    0 -0.65711740696E+00  0.98017581428E+01 -0.86214649290E+01  0.13070421713E+02  0.51100000000E-03 0.  1.
         12    1    3    3    0    0 -0.39858807799E-01  0.37465193287E+01 -0.27017994636E+01  0.46192765826E+01  0.00000000000E+00 0. -1.
</event>
<event>
 7    1  0.1538805E-008  0.4614232E+02  0.7816164E-02  0.1320468E+00
        -11   -1    0    0    0    0  0.00000000000E+00  0.00000000000E+00  0.45593999997E+02  0.45594000000E+02  0.51100000000E-03 0. -1.
         11   -1    0    0    0    0 -0.00000000000E+00 -0.00000000000E+00 -0.45593999997E+02  0.45594000000E+02  0.51100000000E-03 0.  1.
    9900012    2    1    2    0    0  0.23785715476E+01 -0.43477619038E+02  0.11539179565E+02  0.46142316246E+02  0.99999861854E+01 0.  0.
        -12    1    1    2    0    0 -0.23785715476E+01  0.43477619038E+02 -0.11539179565E+02  0.45045683754E+02  0.00000000000E+00 0.  1.
         11    1    3    3    0    0  0.45297093004E+01 -0.29935548697E+02  0.62811327573E+01  0.30920995636E+02  0.51100000000E-03 0. -1.
        -11    1    3    3    0    0 -0.21928986299E+00 -0.11344585207E+02  0.39289171442E+01  0.12007668040E+02  0.51100000000E-03 0.  1.
         12    1    3    3    0    0 -0.19318478898E+01 -0.21974851341E+01  0.13291296631E+01  0.32136525707E+01  0.00000000000E+00 0. -1.
</event>
<event>
 7    1  0.1538805E-008  0.4614232E+02  0.7816164E-02  0.1320468E+00
        -11   -1    0    0    0    0  0.00000000000E+00  0.00000000000E+00  0.45593999997E+02  0.45594000000E+02  0.51100000000E-03 0.  1.
         11   -1    0    0    0    0 -0.00000000000E+00 -0.00000000000E+00 -0.45593999997E+02  0.45594000000E+02  0.51100000000E-03 0. -1.
    9900012    2    1    2    0    0  0.23795528746E+01  0.16968069811E+02 -0.41659762611E+02  0.46142317789E+02  0.10000000257E+02 0.  0.
        -12    1    1    2    0    0 -0.23795528746E+01 -0.16968069811E+02  0.41659762611E+02  0.45045682211E+02  0.00000000000E+00 0.  1.
         11    1    3    3    0    0 -0.12312049192E+01  0.54163324000E+01 -0.21551481723E+02  0.22255760759E+02  0.51100000000E-03 0. -1.
        -11    1    3    3    0    0 -0.29280709739E+00  0.63605880531E+01 -0.91347685116E+01  0.11134936569E+02  0.51100000000E-03 0.  1.
         12    1    3    3    0    0  0.39035648912E+01  0.51911493583E+01 -0.10973512376E+02  0.12751620461E+02  0.00000000000E+00 0. -1.
</event>
<event>
 7    1  0.1538805E-008  0.4614232E+02  0.7816164E-02  0.1320468E+00
        -11   -1    0    0    0    0  0.00000000000E+00  0.00000000000E+00  0.45593999997E+02  0.45594000000E+02  0.51100000000E-03 0. -1.
         11   -1    0    0    0    0 -0.00000000000E+00 -0.00000000000E+00 -0.45593999997E+02  0.45594000000E+02  0.51100000000E-03 0.  1.
    9900012    2    1    2    0    0  0.21268770031E+01 -0.42024944886E+02  0.16077745245E+02  0.46142317736E+02  0.99999997681E+01 0.  0.
        -12    1    1    2    0    0 -0.21268770031E+01  0.42024944886E+02 -0.16077745245E+02  0.45045682264E+02  0.00000000000E+00 0.  1.
         11    1    3    3    0    0  0.19022776162E+01 -0.12094610182E+02  0.37563108095E+01  0.12806565767E+02  0.51100000000E-03 0. -1.
        -11    1    3    3    0    0  0.12727082798E+01 -0.49259477144E+01  0.52918819226E+01  0.73408965253E+01  0.51100000000E-03 0.  1.
        -12    1    3    3    0    0 -0.10481088929E+01 -0.25004386990E+02  0.70295525129E+01  0.25994855443E+02  0.00000000000E+00 0.  1.
</event>
<event>
 7    1  0.1538805E-008  0.4614232E+02  0.7816164E-02  0.1320468E+00
        -11   -1    0    0    0    0  0.00000000000E+00  0.00000000000E+00  0.45593999997E+02  0.45594000000E+02  0.51100000000E-03 0. -1.
         11   -1    0    0    0    0 -0.00000000000E+00 -0.00000000000E+00 -0.45593999997E+02  0.45594000000E+02  0.51100000000E-03 0.  1.
    9900012    2    1    2    0    0 -0.16094199547E+02 -0.41366275454E+02  0.76760259645E+01  0.46142318980E+02  0.10000011114E+02 0.  0.
        -12    1    1    2    0    0  0.16094199547E+02  0.41366275454E+02 -0.76760259645E+01  0.45045681020E+02  0.00000000000E+00 0.  1.
         11    1    3    3    0    0 -0.79381936389E+01 -0.28386514477E+02  0.35353189532E+01  0.29686825407E+02  0.51100000000E-03 0. -1.
        -11    1    3    3    0    0 -0.52765036691E+01 -0.76733994480E+01  0.46270013560E+01  0.10398638943E+02  0.51100000000E-03 0.  1.
        -12    1    3    3    0    0 -0.28795022388E+01 -0.53063615290E+01 -0.48629434472E+00  0.60568546301E+01  0.00000000000E+00 0.  1.
</event>
<event>
 7    1  0.1538805E-008  0.4614232E+02  0.7816164E-02  0.1320468E+00
        -11   -1    0    0    0    0  0.00000000000E+00  0.00000000000E+00  0.45593999997E+02  0.45594000000E+02  0.51100000000E-03 0.  1.
         11   -1    0    0    0    0 -0.00000000000E+00 -0.00000000000E+00 -0.45593999997E+02  0.45594000000E+02  0.51100000000E-03 0. -1.
    9900012    2    1    2    0    0 -0.13552690463E+02 -0.34662160573E+02 -0.25376616188E+02  0.46142318259E+02  0.10000004537E+02 0.  0.
        -12    1    1    2    0    0  0.13552690463E+02  0.34662160573E+02  0.25376616188E+02  0.45045681741E+02  0.00000000000E+00 0.  1.
         11    1    3    3    0    0 -0.83313456793E+01 -0.10266195772E+02 -0.10948283512E+02  0.17165984055E+02  0.51100000000E-03 0. -1.
        -11    1    3    3    0    0 -0.40838727801E+01 -0.14450647274E+02 -0.73682960399E+01  0.16726954603E+02  0.51100000000E-03 0.  1.
         12    1    3    3    0    0 -0.11374720031E+01 -0.99453175282E+01 -0.70600366361E+01  0.12249379601E+02  0.00000000000E+00 0. -1.
</event>
<event>
 7    1  0.1538805E-008  0.4614232E+02  0.7816164E-02  0.1320468E+00
        -11   -1    0    0    0    0  0.00000000000E+00  0.00000000000E+00  0.45593999997E+02  0.45594000000E+02  0.51100000000E-03 0. -1.
         11   -1    0    0    0    0 -0.00000000000E+00 -0.00000000000E+00 -0.45593999997E+02  0.45594000000E+02  0.51100000000E-03 0.  1.
    9900012    2    1    2    0    0 -0.28861901193E+02 -0.25461909331E+02 -0.23405027402E+02  0.46142317910E+02  0.10000001361E+02 0.  0.
        -12    1    1    2    0    0  0.28861901193E+02  0.25461909331E+02  0.23405027402E+02  0.45045682090E+02  0.00000000000E+00 0.  1.
         11    1    3    3    0    0 -0.17009132265E+02 -0.15279667600E+02 -0.18556458297E+02  0.29446917787E+02  0.51100000000E-03 0. -1.
        -11    1    3    3    0    0 -0.11578022380E+02 -0.10291882686E+02 -0.43075990882E+01  0.16078832719E+02  0.51100000000E-03 0.  1.
         12    1    3    3    0    0 -0.27474654863E+00  0.10964095540E+00 -0.54097001645E+00  0.61656740409E+00  0.00000000000E+00 0. -1.
</event>
<event>
 7    1  0.1538805E-008  0.4614232E+02  0.7816164E-02  0.1320468E+00
        -11   -1    0    0    0    0  0.00000000000E+00  0.00000000000E+00  0.45593999997E+02  0.45594000000E+02  0.51100000000E-03 0.  1.
         11   -1    0    0    0    0 -0.00000000000E+00 -0.00000000000E+00 -0.45593999997E+02  0.45594000000E+02  0.51100000000E-03 0. -1.
    9900012    2    1    2    0    0  0.21994851184E+02 -0.27727857679E+02 -0.27865858147E+02  0.46142316296E+02  0.99999866439E+01 0.  0.
        -12    1    1    2    0    0 -0.21994851184E+02  0.27727857679E+02  0.27865858147E+02  0.45045683704E+02  0.00000000000E+00 0.  1.
         11    1    3    3    0    0  0.23692350075E+01 -0.10863684492E+01 -0.18680717722E+01  0.32067371790E+01  0.51100000000E-03 0.  1.
        -11    1    3    3    0    0  0.14303932089E+01 -0.73122064116E+01 -0.39817608819E+01  0.84480061150E+01  0.51100000000E-03 0. -1.
        -12    1    3    3    0    0  0.18195222967E+02 -0.19329282818E+02 -0.22016025493E+02  0.34487573002E+02  0.00000000000E+00 0.  1.
</event>
<event>
 7    1  0.1538805E-008  0.4614232E+02  0.7816164E-02  0.1320468E+00
        -11   -1    0    0    0    0  0.00000000000E+00  0.00000000000E+00  0.45593999997E+02  0.45594000000E+02  0.51100000000E-03 0. -1.
         11   -1    0    0    0    0 -0.00000000000E+00 -0.00000000000E+00 -0.45593999997E+02  0.45594000000E+02  0.51100000000E-03 0.  1.
    9900012    2    1    2    0    0 -0.39006141359E+02 -0.21154031086E+02  0.77550887113E+01  0.46142317678E+02  0.99999992440E+01 0.  0.
        -12    1    1    2    0    0  0.39006141359E+02  0.21154031086E+02 -0.77550887113E+01  0.45045682322E+02  0.00000000000E+00 0.  1.
         11    1    3    3    0    0 -0.22690891886E+02 -0.13596275687E+02  0.40440897391E+01  0.26759857048E+02  0.51100000000E-03 0. -1.
        -11    1    3    3    0    0 -0.27060152061E+01 -0.38653649073E+01 -0.28178909008E+00  0.47268350420E+01  0.51100000000E-03 0.  1.
        -12    1    3    3    0    0 -0.13609234267E+02 -0.36923904920E+01  0.39927880622E+01  0.14655625589E+02  0.00000000000E+00 0.  1.
</event>
<event>
 7    1  0.1538805E-008  0.4614232E+02  0.7816164E-02  0.1320468E+00
        -11   -1    0    0    0    0  0.00000000000E+00  0.00000000000E+00  0.45593999997E+02  0.45594000000E+02  0.51100000000E-03 0.  1.
         11   -1    0    0    0    0 -0.00000000000E+00 -0.00000000000E+00 -0.45593999997E+02  0.45594000000E+02  0.51100000000E-03 0. -1.
    9900012    2    1    2    0    0  0.28563990209E+02  0.98921692198E+01 -0.33396959907E+02  0.46142317859E+02  0.10000000891E+02 0.  0.
        -12    1    1    2    0    0 -0.28563990209E+02 -0.98921692198E+01  0.33396959907E+02  0.45045682141E+02  0.00000000000E+00 0.  1.
         11    1    3    3    0    0  0.18794389146E+02  0.10586410589E+02 -0.21515846943E+02  0.30466913570E+02  0.51100000000E-03 0. -1.
        -11    1    3    3    0    0 -0.13845483131E+00 -0.27089085496E+00 -0.28315169024E+00  0.41560406209E+00  0.51100000000E-03 0.  1.
         12    1    3    3    0    0  0.99080558940E+01 -0.42335051396E+00 -0.11597961274E+02  0.15259800227E+02  0.00000000000E+00 0. -1.
</event>
<event>
 7    1  0.1538805E-008  0.4614232E+02  0.7816164E-02  0.1320468E+00
        -11   -1    0    0    0    0  0.00000000000E+00  0.00000000000E+00  0.45593999997E+02  0.45594000000E+02  0.51100000000E-03 0. -1.
         11   -1    0    0    0    0 -0.00000000000E+00 -0.00000000000E+00 -0.45593999997E+02  0.45594000000E+02  0.51100000000E-03 0.  1.
    9900012    2    1    2    0    0  0.37246520613E+02  0.24542718424E+02 -0.62821366060E+01  0.46142316902E+02  0.99999921621E+01 0.  0.
        -12    1    1    2    0    0 -0.37246520613E+02 -0.24542718424E+02  0.62821366060E+01  0.45045683098E+02  0.00000000000E+00 0.  1.
         11    1    3    3    0    0  0.11708159639E+02  0.34977061200E+01  0.53588484244E+00  0.12231194670E+02  0.51100000000E-03 0. -1.
        -11    1    3    3    0    0  0.16508004748E+02  0.14000750693E+02 -0.58221203876E+01  0.22415002271E+02  0.51100000000E-03 0.  1.
         12    1    3    3    0    0  0.90303562260E+01  0.70442616113E+01 -0.99590106082E+00  0.11496119960E+02  0.00000000000E+00 0. -1.
</event>
<event>
 7    1  0.1538805E-008  0.4614232E+02  0.7816164E-02  0.1320468E+00
        -11   -1    0    0    0    0  0.00000000000E+00  0.00000000000E+00  0.45593999997E+02  0.45594000000E+02  0.51100000000E-03 0.  1.
         11   -1    0    0    0    0 -0.00000000000E+00 -0.00000000000E+00 -0.45593999997E+02  0.45594000000E+02  0.51100000000E-03 0. -1.
    9900012    2    1    2    0    0 -0.84792844851E+01 -0.33216283357E+01 -0.44115553812E+02  0.46142316874E+02  0.99999919067E+01 0.  0.
        -12    1    1    2    0    0  0.84792844851E+01  0.33216283357E+01  0.44115553812E+02  0.45045683126E+02  0.00000000000E+00 0.  1.
         11    1    3    3    0    0 -0.38370442808E+01 -0.40425011223E+01 -0.28930188674E+02  0.29462188329E+02  0.51100000000E-03 0. -1.
        -11    1    3    3    0    0 -0.27156637948E+00  0.21084430897E+01 -0.67771340205E+01  0.71027337240E+01  0.51100000000E-03 0.  1.
        -12    1    3    3    0    0 -0.43706738248E+01 -0.13875703031E+01 -0.84082311171E+01  0.95773948205E+01  0.00000000000E+00 0.  1.
</event>
<event>
 7    1  0.1538805E-008  0.4614232E+02  0.7816164E-02  0.1320468E+00
        -11   -1    0    0    0    0  0.00000000000E+00  0.00000000000E+00  0.45593999997E+02  0.45594000000E+02  0.51100000000E-03 0.  1.
         11   -1    0    0    0    0 -0.00000000000E+00 -0.00000000000E+00 -0.45593999997E+02  0.45594000000E+02  0.51100000000E-03 0. -1.
    9900012    2    1    2    0    0  0.76421417030E+01  0.11929456084E+02 -0.42759785255E+02  0.46142317773E+02  0.10000000108E+02 0.  0.
        -12    1    1    2    0    0 -0.76421417030E+01 -0.11929456084E+02  0.42759785255E+02  0.45045682227E+02  0.00000000000E+00 0.  1.
         11    1    3    3    0    0  0.40453623171E+01  0.21130868593E+01 -0.16334686636E+02  0.16960308962E+02  0.51100000000E-03 0. -1.
        -11    1    3    3    0    0 -0.13407796986E+01  0.46596205703E+01 -0.14431876383E+02  0.15224611991E+02  0.51100000000E-03 0.  1.
        -12    1    3    3    0    0  0.49375590844E+01  0.51567486540E+01 -0.11993222236E+02  0.13957396820E+02  0.00000000000E+00 0.  1.
</event>
<event>
 7    1  0.1538805E-008  0.4614232E+02  0.7816164E-02  0.1320468E+00
        -11   -1    0    0    0    0  0.00000000000E+00  0.00000000000E+00  0.45593999997E+02  0.45594000000E+02  0.51100000000E-03 0. -1.
         11   -1    0    0    0    0 -0.00000000000E+00 -0.00000000000E+00 -0.45593999997E+02  0.45594000000E+02  0.51100000000E-03 0.  1.
    9900012    2    1    2    0    0 -0.20387142573E+01  0.32178614556E+02  0.31456221747E+02  0.46142317885E+02  0.10000001134E+02 0.  0.
        -12    1    1    2    0    0  0.20387142573E+01 -0.32178614556E+02 -0.31456221747E+02  0.45045682115E+02  0.00000000000E+00 0.  1.
         11    1    3    3    0    0  0.21544664608E+01  0.15770864451E+02  0.13112641258E+02  0.20622881764E+02  0.51100000000E-03 0. -1.
        -11    1    3    3    0    0 -0.52640354342E+01  0.11248653782E+02  0.11956787089E+02  0.17239693696E+02  0.51100000000E-03 0.  1.
        -12    1    3    3    0    0  0.10708547161E+01  0.51590963227E+01  0.63867934005E+01  0.82797424253E+01  0.00000000000E+00 0.  1.
</event>
<event>
 7    1  0.1538805E-008  0.4614232E+02  0.7816164E-02  0.1320468E+00
        -11   -1    0    0    0    0  0.00000000000E+00  0.00000000000E+00  0.45593999997E+02  0.45594000000E+02  0.51100000000E-03 0.  1.
         11   -1    0    0    0    0 -0.00000000000E+00 -0.00000000000E+00 -0.45593999997E+02  0.45594000000E+02  0.51100000000E-03 0. -1.
    9900012    2    1    2    0    0  0.18939173386E+02 -0.32172523848E+02 -0.25206148188E+02  0.46142317790E+02  0.10000000261E+02 0.  0.
        -12    1    1    2    0    0 -0.18939173386E+02  0.32172523848E+02  0.25206148188E+02  0.45045682210E+02  0.00000000000E+00 0.  1.
         11    1    3    3    0    0  0.89252054301E+01 -0.12237624216E+02 -0.11627074547E+02  0.19094700867E+02  0.51100000000E-03 0. -1.
        -11    1    3    3    0    0  0.51420010373E+01 -0.37559116993E+01 -0.24902484303E+01  0.68372790543E+01  0.51100000000E-03 0.  1.
        -12    1    3    3    0    0  0.48719669181E+01 -0.16178987933E+02 -0.11088825211E+02  0.20210337869E+02  0.00000000000E+00 0.  1.
</event>
<event>
 7    1  0.1538805E-008  0.4614232E+02  0.7816164E-02  0.1320468E+00
        -11   -1    0    0    0    0  0.00000000000E+00  0.00000000000E+00  0.45593999997E+02  0.45594000000E+02  0.51100000000E-03 0.  1.
         11   -1    0    0    0    0 -0.00000000000E+00 -0.00000000000E+00 -0.45593999997E+02  0.45594000000E+02  0.51100000000E-03 0. -1.
    9900012    2    1    2    0    0 -0.30011418803E+00 -0.82529757220E+01 -0.44282183227E+02  0.46142318429E+02  0.10000006093E+02 0.  0.
        -12    1    1    2    0    0  0.30011418803E+00  0.82529757220E+01  0.44282183227E+02  0.45045681571E+02  0.00000000000E+00 0.  1.
         11    1    3    3    0    0  0.19173850616E-01 -0.14013159551E+01 -0.10523645137E+02  0.10616551289E+02  0.51100000000E-03 0. -1.
        -11    1    3    3    0    0 -0.18708479148E+01 -0.51745458745E+01 -0.82589249433E+01  0.99240031443E+01  0.51100000000E-03 0.  1.
        -12    1    3    3    0    0  0.15515598761E+01 -0.16771138924E+01 -0.25499613147E+02  0.25601763996E+02  0.00000000000E+00 0.  1.
</event>
<event>
 7    1  0.1538805E-008  0.4614232E+02  0.7816164E-02  0.1320468E+00
        -11   -1    0    0    0    0  0.00000000000E+00  0.00000000000E+00  0.45593999997E+02  0.45594000000E+02  0.51100000000E-03 0.  1.
         11   -1    0    0    0    0 -0.00000000000E+00 -0.00000000000E+00 -0.45593999997E+02  0.45594000000E+02  0.51100000000E-03 0. -1.
    9900012    2    1    2    0    0 -0.32095041070E+02  0.17996075407E+02 -0.25983901015E+02  0.46142317596E+02  0.99999984907E+01 0.  0.
        -12    1    1    2    0    0  0.32095041070E+02 -0.17996075407E+02  0.25983901015E+02  0.45045682404E+02  0.00000000000E+00 0.  1.
         11    1    3    3    0    0 -0.52129509559E+01  0.53959086387E+01 -0.32503183936E+01  0.81765064439E+01  0.51100000000E-03 0. -1.
        -11    1    3    3    0    0 -0.15983020009E+02  0.39970893567E+01 -0.13378400015E+02  0.21222988460E+02  0.51100000000E-03 0.  1.
        -12    1    3    3    0    0 -0.10899070105E+02  0.86030774118E+01 -0.93551826060E+01  0.16742822692E+02  0.00000000000E+00 0.  1.
</event>
<event>
 7    1  0.1538805E-008  0.4614232E+02  0.7816164E-02  0.1320468E+00
        -11   -1    0    0    0    0  0.00000000000E+00  0.00000000000E+00  0.45593999997E+02  0.45594000000E+02  0.51100000000E-03 0.  1.
         11   -1    0    0    0    0 -0.00000000000E+00 -0.00000000000E+00 -0.45593999997E+02  0.45594000000E+02  0.51100000000E-03 0. -1.
    9900012    2    1    2    0    0 -0.36275898689E+02 -0.33850440574E+01 -0.26489887839E+02  0.46142317558E+02  0.99999981460E+01 0.  0.
        -12    1    1    2    0    0  0.36275898689E+02  0.33850440574E+01  0.26489887839E+02  0.45045682442E+02  0.00000000000E+00 0.  1.
         11    1    3    3    0    0 -0.29787918500E+01 -0.10938289319E+01 -0.34451182338E+01  0.46838555191E+01  0.51100000000E-03 0. -1.
        -11    1    3    3    0    0 -0.51974937865E+01 -0.20904798787E+00 -0.79299486729E+01  0.94837613286E+01  0.51100000000E-03 0.  1.
        -12    1    3    3    0    0 -0.28099613052E+02 -0.20821671376E+01 -0.15114820933E+02  0.31974700710E+02  0.00000000000E+00 0.  1.
</event>
<event>
 7    1  0.1538805E-008  0.4614232E+02  0.7816164E-02  0.1320468E+00
        -11   -1    0    0    0    0  0.00000000000E+00  0.00000000000E+00  0.45593999997E+02  0.45594000000E+02  0.51100000000E-03 0.  1.
         11   -1    0    0    0    0 -0.00000000000E+00 -0.00000000000E+00 -0.45593999997E+02  0.45594000000E+02  0.51100000000E-03 0. -1.
    9900012    2    1    2    0    0  0.42479454145E+02 -0.14358037675E+02 -0.42960613733E+01  0.46142318590E+02  0.10000007562E+02 0.  0.
        -12    1    1    2    0    0 -0.42479454145E+02  0.14358037675E+02  0.42960613733E+01  0.45045681410E+02  0.00000000000E+00 0.  1.
         11    1    3    3    0    0  0.24910034608E+02 -0.84497738940E+01 -0.51172075622E+01  0.26797281887E+02  0.51100000000E-03 0. -1.
        -11    1    3    3    0    0  0.16600616840E+02 -0.43530843674E+01  0.18201677910E+01  0.17258123711E+02  0.51100000000E-03 0.  1.
        -12    1    3    3    0    0  0.96880269645E+00 -0.15551794140E+01 -0.99902160213E+00  0.20869129919E+01  0.00000000000E+00 0.  1.
</event>
<event>
 7    1  0.1538805E-008  0.4614232E+02  0.7816164E-02  0.1320468E+00
        -11   -1    0    0    0    0  0.00000000000E+00  0.00000000000E+00  0.45593999997E+02  0.45594000000E+02  0.51100000000E-03 0. -1.
         11   -1    0    0    0    0 -0.00000000000E+00 -0.00000000000E+00 -0.45593999997E+02  0.45594000000E+02  0.51100000000E-03 0.  1.
    9900012    2    1    2    0    0  0.42028590547E+02  0.15878109316E+02  0.32552422626E+01  0.46142318953E+02  0.10000010871E+02 0.  0.
        -12    1    1    2    0    0 -0.42028590547E+02 -0.15878109316E+02 -0.32552422626E+01  0.45045681047E+02  0.00000000000E+00 0.  1.
         11    1    3    3    0    0  0.25885257575E+02  0.12530143166E+02 -0.78459525952E+00  0.28769195982E+02  0.51100000000E-03 0. -1.
        -11    1    3    3    0    0  0.61418612880E+01  0.82048626647E-01  0.28930164907E+01  0.67896050500E+01  0.51100000000E-03 0.  1.
        -12    1    3    3    0    0  0.10001471684E+02  0.32659175232E+01  0.11468210314E+01  0.10583517921E+02  0.00000000000E+00 0.  1.
</event>
<event>
 7    1  0.1538805E-008  0.4614232E+02  0.7816164E-02  0.1320468E+00
        -11   -1    0    0    0    0  0.00000000000E+00  0.00000000000E+00  0.45593999997E+02  0.45594000000E+02  0.51100000000E-03 0.  1.
         11   -1    0    0    0    0 -0.00000000000E+00 -0.00000000000E+00 -0.45593999997E+02  0.45594000000E+02  0.51100000000E-03 0. -1.
    9900012    2    1    2    0    0 -0.55947255828E+01 -0.31829786668E+02 -0.31379566353E+02  0.46142318097E+02  0.10000003060E+02 0.  0.
        -12    1    1    2    0    0  0.55947255828E+01  0.31829786668E+02  0.31379566353E+02  0.45045681903E+02  0.00000000000E+00 0.  1.
         11    1    3    3    0    0 -0.15535182342E+01 -0.11795427029E+02 -0.14816954423E+02  0.19002306606E+02  0.51100000000E-03 0. -1.
        -11    1    3    3    0    0 -0.34452791133E+01 -0.88801899476E+01 -0.40036354426E+01  0.10332319134E+02  0.51100000000E-03 0.  1.
        -12    1    3    3    0    0 -0.59592823533E+00 -0.11154169691E+02 -0.12558976487E+02  0.16807692357E+02  0.00000000000E+00 0.  1.
</event>
<event>
 7    1  0.1538805E-008  0.4614232E+02  0.7816164E-02  0.1320468E+00
        -11   -1    0    0    0    0  0.00000000000E+00  0.00000000000E+00  0.45593999997E+02  0.45594000000E+02  0.51100000000E-03 0.  1.
         11   -1    0    0    0    0 -0.00000000000E+00 -0.00000000000E+00 -0.45593999997E+02  0.45594000000E+02  0.51100000000E-03 0. -1.
    9900012    2    1    2    0    0  0.16412829992E+02 -0.28448034276E+02 -0.30829237661E+02  0.46142317218E+02  0.99999950480E+01 0.  0.
        -12    1    1    2    0    0 -0.16412829992E+02  0.28448034276E+02  0.30829237661E+02  0.45045682782E+02  0.00000000000E+00 0.  1.
         11    1    3    3    0    0  0.75977539548E+01 -0.12598570489E+02 -0.76643493045E+01  0.16588914794E+02  0.51100000000E-03 0. -1.
        -11    1    3    3    0    0  0.32610815918E+01 -0.43297007969E+01 -0.86527783816E+01  0.10210364152E+02  0.51100000000E-03 0.  1.
         12    1    3    3    0    0  0.55539944457E+01 -0.11519762990E+02 -0.14512109975E+02  0.19343038271E+02  0.00000000000E+00 0. -1.
</event>
<event>
 7    1  0.1538805E-008  0.4614232E+02  0.7816164E-02  0.1320468E+00
        -11   -1    0    0    0    0  0.00000000000E+00  0.00000000000E+00  0.45593999997E+02  0.45594000000E+02  0.51100000000E-03 0. -1.
         11   -1    0    0    0    0 -0.00000000000E+00 -0.00000000000E+00 -0.45593999997E+02  0.45594000000E+02  0.51100000000E-03 0.  1.
    9900012    2    1    2    0    0  0.17452153422E+02  0.34614749007E+02  0.22942427278E+02  0.46142317884E+02  0.10000001118E+02 0.  0.
        -12    1    1    2    0    0 -0.17452153422E+02 -0.34614749007E+02 -0.22942427278E+02  0.45045682116E+02  0.00000000000E+00 0.  1.
         11    1    3    3    0    0  0.18376897900E+02  0.29534211648E+02  0.20243015838E+02  0.40246238638E+02  0.51100000000E-03 0. -1.
        -11    1    3    3    0    0 -0.66051724329E+00  0.47991403399E+01  0.25976218201E+01  0.54968782424E+01  0.51100000000E-03 0.  1.
         12    1    3    3    0    0 -0.26422723392E+00  0.28139701982E+00  0.10178961971E+00  0.39920100274E+00  0.00000000000E+00 0. -1.
</event>
<event>
 7    1  0.1538805E-008  0.4614232E+02  0.7816164E-02  0.1320468E+00
        -11   -1    0    0    0    0  0.00000000000E+00  0.00000000000E+00  0.45593999997E+02  0.45594000000E+02  0.51100000000E-03 0. -1.
         11   -1    0    0    0    0 -0.00000000000E+00 -0.00000000000E+00 -0.45593999997E+02  0.45594000000E+02  0.51100000000E-03 0.  1.
    9900012    2    1    2    0    0  0.32978616829E+02 -0.27824297847E+02 -0.12935713971E+02  0.46142318580E+02  0.10000007469E+02 0.  0.
        -12    1    1    2    0    0 -0.32978616829E+02  0.27824297847E+02  0.12935713971E+02  0.45045681420E+02  0.00000000000E+00 0.  1.
         11    1    3    3    0    0  0.57427365662E+01 -0.98506365765E+01 -0.19060291397E+01  0.11560580071E+02  0.51100000000E-03 0. -1.
        -11    1    3    3    0    0  0.25824372692E+02 -0.17588817334E+02 -0.10053048415E+02  0.32822682749E+02  0.51100000000E-03 0.  1.
        -12    1    3    3    0    0  0.14115075712E+01 -0.38484393656E+00 -0.97663641668E+00  0.17590557607E+01  0.00000000000E+00 0.  1.
</event>
<event>
 7    1  0.1538805E-008  0.4614232E+02  0.7816164E-02  0.1320468E+00
        -11   -1    0    0    0    0  0.00000000000E+00  0.00000000000E+00  0.45593999997E+02  0.45594000000E+02  0.51100000000E-03 0. -1.
         11   -1    0    0    0    0 -0.00000000000E+00 -0.00000000000E+00 -0.45593999997E+02  0.45594000000E+02  0.51100000000E-03 0.  1.
    9900012    2    1    2    0    0 -0.42266711723E+02  0.11712042267E+02 -0.10269692715E+02  0.46142318271E+02  0.10000004654E+02 0.  0.
        -12    1    1    2    0    0  0.42266711723E+02 -0.11712042267E+02  0.10269692715E+02  0.45045681729E+02  0.00000000000E+00 0.  1.
         11    1    3    3    0    0 -0.12668622668E+02  0.18395579108E+01 -0.41603267160E+01  0.13460545764E+02  0.51100000000E-03 0. -1.
        -11    1    3    3    0    0 -0.25859823018E+02  0.74606685994E+01 -0.76386321625E+01  0.27977503892E+02  0.51100000000E-03 0.  1.
        -12    1    3    3    0    0 -0.37382660371E+01  0.24118157564E+01  0.15292661638E+01  0.47042686155E+01  0.00000000000E+00 0.  1.
</event>
<event>
 7    1  0.1538805E-008  0.4614232E+02  0.7816164E-02  0.1320468E+00
        -11   -1    0    0    0    0  0.00000000000E+00  0.00000000000E+00  0.45593999997E+02  0.45594000000E+02  0.51100000000E-03 0.  1.
         11   -1    0    0    0    0 -0.00000000000E+00 -0.00000000000E+00 -0.45593999997E+02  0.45594000000E+02  0.51100000000E-03 0. -1.
    9900012    2    1    2    0    0  0.14448218503E+02  0.37651634069E+02 -0.20067808832E+02  0.46142317440E+02  0.99999970707E+01 0.  0.
        -12    1    1    2    0    0 -0.14448218503E+02 -0.37651634069E+02  0.20067808832E+02  0.45045682560E+02  0.00000000000E+00 0.  1.
         11    1    3    3    0    0  0.45409398886E+01  0.16352676184E+02 -0.57760866787E+01  0.17927446306E+02  0.51100000000E-03 0. -1.
        -11    1    3    3    0    0  0.24005858029E+01  0.81334481584E+01 -0.84534039723E+01  0.11973964679E+02  0.51100000000E-03 0.  1.
        -12    1    3    3    0    0  0.75066928110E+01  0.13165509727E+02 -0.58383181809E+01  0.16240906456E+02  0.00000000000E+00 0.  1.
</event>
<event>
 7    1  0.1538805E-008  0.4614232E+02  0.7816164E-02  0.1320468E+00
        -11   -1    0    0    0    0  0.00000000000E+00  0.00000000000E+00  0.45593999997E+02  0.45594000000E+02  0.51100000000E-03 0. -1.
         11   -1    0    0    0    0 -0.00000000000E+00 -0.00000000000E+00 -0.45593999997E+02  0.45594000000E+02  0.51100000000E-03 0.  1.
    9900012    2    1    2    0    0  0.23968229311E+02  0.32237098177E+02 -0.20381536514E+02  0.46142317124E+02  0.99999941870E+01 0.  0.
        -12    1    1    2    0    0 -0.23968229311E+02 -0.32237098177E+02  0.20381536514E+02  0.45045682876E+02  0.00000000000E+00 0.  1.
         11    1    3    3    0    0  0.18945878500E+01  0.18961047107E+01  0.30053029200E+00  0.26972198488E+01  0.51100000000E-03 0.  1.
        -11    1    3    3    0    0  0.13420547913E+02  0.14819839327E+02 -0.14227320776E+02  0.24538854918E+02  0.51100000000E-03 0. -1.
         12    1    3    3    0    0  0.86530935478E+01  0.15521154139E+02 -0.64547460299E+01  0.18906242357E+02  0.00000000000E+00 0. -1.
</event>
<event>
 7    1  0.1538805E-008  0.4614232E+02  0.7816164E-02  0.1320468E+00
        -11   -1    0    0    0    0  0.00000000000E+00  0.00000000000E+00  0.45593999997E+02  0.45594000000E+02  0.51100000000E-03 0.  1.
         11   -1    0    0    0    0 -0.00000000000E+00 -0.00000000000E+00 -0.45593999997E+02  0.45594000000E+02  0.51100000000E-03 0. -1.
    9900012    2    1    2    0    0  0.69060584583E+01  0.44511333780E+02 -0.40124972654E+00  0.46142317858E+02  0.10000000883E+02 0.  0.
        -12    1    1    2    0    0 -0.69060584583E+01 -0.44511333780E+02  0.40124972654E+00  0.45045682142E+02  0.00000000000E+00 0.  1.
         11    1    3    3    0    0 -0.49855261336E+00  0.20712224147E+02 -0.73191380001E+00  0.20731147626E+02  0.51100000000E-03 0.  1.
        -11    1    3    3    0    0  0.70377678540E+01  0.17526475054E+02  0.17560736830E+01  0.18968165415E+02  0.51100000000E-03 0. -1.
        -12    1    3    3    0    0  0.36684321762E+00  0.62726345795E+01 -0.14254096096E+01  0.64430048168E+01  0.00000000000E+00 0.  1.
</event>
<event>
 7    1  0.1538805E-008  0.4614232E+02  0.7816164E-02  0.1320468E+00
        -11   -1    0    0    0    0  0.00000000000E+00  0.00000000000E+00  0.45593999997E+02  0.45594000000E+02  0.51100000000E-03 0.  1.
         11   -1    0    0    0    0 -0.00000000000E+00 -0.00000000000E+00 -0.45593999997E+02  0.45594000000E+02  0.51100000000E-03 0. -1.
    9900012    2    1    2    0    0  0.12843506279E+02  0.41055254141E+02 -0.13365022609E+02  0.46142319014E+02  0.10000011429E+02 0.  0.
        -12    1    1    2    0    0 -0.12843506279E+02 -0.41055254141E+02  0.13365022609E+02  0.45045680986E+02  0.00000000000E+00 0.  1.
         11    1    3    3    0    0  0.97143059755E+01  0.23225987774E+02 -0.90567659161E+01  0.26755172542E+02  0.51100000000E-03 0. -1.
        -11    1    3    3    0    0  0.28091767600E+01  0.35133802583E+01 -0.18224676559E+01  0.48535248559E+01  0.51100000000E-03 0.  1.
         12    1    3    3    0    0  0.32002354330E+00  0.14315886109E+02 -0.24857890375E+01  0.14533621616E+02  0.00000000000E+00 0. -1.
</event>
<event>
 7    1  0.1538805E-008  0.4614232E+02  0.7816164E-02  0.1320468E+00
        -11   -1    0    0    0    0  0.00000000000E+00  0.00000000000E+00  0.45593999997E+02  0.45594000000E+02  0.51100000000E-03 0. -1.
         11   -1    0    0    0    0 -0.00000000000E+00 -0.00000000000E+00 -0.45593999997E+02  0.45594000000E+02  0.51100000000E-03 0.  1.
    9900012    2    1    2    0    0 -0.30219939091E+02  0.18302481668E+02  0.27944373084E+02  0.46142317177E+02  0.99999946776E+01 0.  0.
        -12    1    1    2    0    0  0.30219939091E+02 -0.18302481668E+02 -0.27944373084E+02  0.45045682823E+02  0.00000000000E+00 0.  1.
         11    1    3    3    0    0 -0.16744209571E+02  0.13540242475E+02  0.12172766811E+02  0.24736268363E+02  0.51100000000E-03 0. -1.
        -11    1    3    3    0    0 -0.12733923983E+02  0.39266844479E+01  0.14895565431E+02  0.19986233775E+02  0.51100000000E-03 0.  1.
        -12    1    3    3    0    0 -0.74180553759E+00  0.83555474535E+00  0.87604084224E+00  0.14198150391E+01  0.00000000000E+00 0.  1.
</event>
<event>
 7    1  0.1538805E-008  0.4614232E+02  0.7816164E-02  0.1320468E+00
        -11   -1    0    0    0    0  0.00000000000E+00  0.00000000000E+00  0.45593999997E+02  0.45594000000E+02  0.51100000000E-03 0.  1.
         11   -1    0    0    0    0 -0.00000000000E+00 -0.00000000000E+00 -0.45593999997E+02  0.45594000000E+02  0.51100000000E-03 0. -1.
    9900012    2    1    2    0    0  0.18255969911E+02  0.27594961366E+02 -0.30567154431E+02  0.46142320294E+02  0.10000023094E+02 0.  0.
        -12    1    1    2    0    0 -0.18255969911E+02 -0.27594961366E+02  0.30567154431E+02  0.45045679706E+02  0.00000000000E+00 0.  1.
         11    1    3    3    0    0  0.13055196013E+02  0.12754508230E+02 -0.15666568976E+02  0.24053211987E+02  0.51100000000E-03 0. -1.
        -11    1    3    3    0    0  0.32668703439E+01  0.11538687362E+02 -0.87487565938E+01  0.14844342022E+02  0.51100000000E-03 0.  1.
         12    1    3    3    0    0  0.19339035541E+01  0.33017657748E+01 -0.61518288610E+01  0.72447662849E+01  0.00000000000E+00 0. -1.
</event>
<event>
 7    1  0.1538805E-008  0.4614232E+02  0.7816164E-02  0.1320468E+00
        -11   -1    0    0    0    0  0.00000000000E+00  0.00000000000E+00  0.45593999997E+02  0.45594000000E+02  0.51100000000E-03 0.  1.
         11   -1    0    0    0    0 -0.00000000000E+00 -0.00000000000E+00 -0.45593999997E+02  0.45594000000E+02  0.51100000000E-03 0. -1.
    9900012    2    1    2    0    0  0.94187436760E+01 -0.37090342264E+02 -0.23763567908E+02  0.46142318948E+02  0.10000010821E+02 0.  0.
        -12    1    1    2    0    0 -0.94187436760E+01  0.37090342264E+02  0.23763567908E+02  0.45045681052E+02  0.00000000000E+00 0.  1.
         11    1    3    3    0    0  0.13135505008E+01 -0.41906664321E+01 -0.49466670757E+01  0.66148783422E+01  0.51100000000E-03 0. -1.
        -11    1    3    3    0    0  0.50384306477E+01 -0.71244167360E+01 -0.59056219441E+01  0.10536577624E+02  0.51100000000E-03 0.  1.
        -12    1    3    3    0    0  0.30667625275E+01 -0.25775259096E+02 -0.12911278888E+02  0.28990862982E+02  0.00000000000E+00 0.  1.
</event>
<event>
 7    1  0.1538805E-008  0.4614232E+02  0.7816164E-02  0.1320468E+00
        -11   -1    0    0    0    0  0.00000000000E+00  0.00000000000E+00  0.45593999997E+02  0.45594000000E+02  0.51100000000E-03 0.  1.
         11   -1    0    0    0    0 -0.00000000000E+00 -0.00000000000E+00 -0.45593999997E+02  0.45594000000E+02  0.51100000000E-03 0. -1.
    9900012    2    1    2    0    0  0.15807428860E+01  0.22897034132E+02 -0.38760038537E+02  0.46142317549E+02  0.99999980682E+01 0.  0.
        -12    1    1    2    0    0 -0.15807428860E+01 -0.22897034132E+02  0.38760038537E+02  0.45045682451E+02  0.00000000000E+00 0.  1.
         11    1    3    3    0    0 -0.11432310495E+01  0.21147162972E+02 -0.36101365557E+02  0.41854725830E+02  0.51100000000E-03 0. -1.
        -11    1    3    3    0    0  0.15692904275E+01  0.50818544490E+00 -0.15365489059E+01  0.22543086953E+01  0.51100000000E-03 0.  1.
         12    1    3    3    0    0  0.11546835080E+01  0.12416857142E+01 -0.11221240740E+01  0.20332830236E+01  0.00000000000E+00 0. -1.
</event>
<event>
 7    1  0.1538805E-008  0.4614232E+02  0.7816164E-02  0.1320468E+00
        -11   -1    0    0    0    0  0.00000000000E+00  0.00000000000E+00  0.45593999997E+02  0.45594000000E+02  0.51100000000E-03 0. -1.
         11   -1    0    0    0    0 -0.00000000000E+00 -0.00000000000E+00 -0.45593999997E+02  0.45594000000E+02  0.51100000000E-03 0.  1.
    9900012    2    1    2    0    0  0.18484548445E+02 -0.39966059017E+02  0.94946847053E+01  0.46142318273E+02  0.10000004667E+02 0.  0.
        -12    1    1    2    0    0 -0.18484548445E+02  0.39966059017E+02 -0.94946847053E+01  0.45045681727E+02  0.00000000000E+00 0.  1.
         11    1    3    3    0    0  0.15606616464E+01 -0.32062153651E+00  0.13441806991E+01  0.20845347100E+01  0.51100000000E-03 0. -1.
        -11    1    3    3    0    0  0.96099676321E+01 -0.20714114501E+02  0.23807306336E+01  0.22958525564E+02  0.51100000000E-03 0.  1.
         12    1    3    3    0    0  0.73139191666E+01 -0.18931322979E+02  0.57697733726E+01  0.21099257999E+02  0.00000000000E+00 0. -1.
</event>
<event>
 7    1  0.1538805E-008  0.4614232E+02  0.7816164E-02  0.1320468E+00
        -11   -1    0    0    0    0  0.00000000000E+00  0.00000000000E+00  0.45593999997E+02  0.45594000000E+02  0.51100000000E-03 0. -1.
         11   -1    0    0    0    0 -0.00000000000E+00 -0.00000000000E+00 -0.45593999997E+02  0.45594000000E+02  0.51100000000E-03 0.  1.
    9900012    2    1    2    0    0 -0.15853603967E+02 -0.28887252448E+02  0.30713246106E+02  0.46142316532E+02  0.99999887917E+01 0.  0.
        -12    1    1    2    0    0  0.15853603967E+02  0.28887252448E+02 -0.30713246106E+02  0.45045683468E+02  0.00000000000E+00 0.  1.
         11    1    3    3    0    0 -0.14774487792E+02 -0.20109196492E+02  0.21963753699E+02  0.33242619479E+02  0.51100000000E-03 0. -1.
        -11    1    3    3    0    0 -0.76068606146E+00 -0.65196707111E+01  0.82885954297E+01  0.10572869238E+02  0.51100000000E-03 0.  1.
         12    1    3    3    0    0 -0.31843011405E+00 -0.22583852457E+01  0.46089697690E+00  0.23268278146E+01  0.00000000000E+00 0. -1.
</event>
<event>
 7    1  0.1538805E-008  0.4614232E+02  0.7816164E-02  0.1320468E+00
        -11   -1    0    0    0    0  0.00000000000E+00  0.00000000000E+00  0.45593999997E+02  0.45594000000E+02  0.51100000000E-03 0. -1.
         11   -1    0    0    0    0 -0.00000000000E+00 -0.00000000000E+00 -0.45593999997E+02  0.45594000000E+02  0.51100000000E-03 0.  1.
    9900012    2    1    2    0    0  0.36263309110E+02  0.81530253167E+01  0.25448263488E+02  0.46142317366E+02  0.99999963961E+01 0.  0.
        -12    1    1    2    0    0 -0.36263309110E+02 -0.81530253167E+01 -0.25448263488E+02  0.45045682634E+02  0.00000000000E+00 0.  1.
         11    1    3    3    0    0  0.22625803530E+02  0.19232269603E+01  0.16877606329E+02  0.28292744352E+02  0.51100000000E-03 0. -1.
        -11    1    3    3    0    0  0.79760974715E+01  0.30041401370E+01  0.23501111301E+01  0.88411544168E+01  0.51100000000E-03 0.  1.
        -12    1    3    3    0    0  0.56614081085E+01  0.32256582194E+01  0.62205460290E+01  0.90084185970E+01  0.00000000000E+00 0.  1.
</event>
<event>
 7    1  0.1538805E-008  0.4614232E+02  0.7816164E-02  0.1320468E+00
        -11   -1    0    0    0    0  0.00000000000E+00  0.00000000000E+00  0.45593999997E+02  0.45594000000E+02  0.51100000000E-03 0.  1.
         11   -1    0    0    0    0 -0.00000000000E+00 -0.00000000000E+00 -0.45593999997E+02  0.45594000000E+02  0.51100000000E-03 0. -1.
    9900012    2    1    2    0    0 -0.33427746086E+02  0.50042450228E+01 -0.29776782526E+02  0.46142318140E+02  0.10000003458E+02 0.  0.
        -12    1    1    2    0    0  0.33427746086E+02 -0.50042450228E+01  0.29776782526E+02  0.45045681860E+02  0.00000000000E+00 0.  1.
         11    1    3    3    0    0 -0.90840180643E+01  0.56737584062E+01 -0.83091142989E+01  0.13555526524E+02  0.51100000000E-03 0. -1.
        -11    1    3    3    0    0 -0.23049029505E+02 -0.20113135532E+00 -0.19538698353E+02  0.30216865299E+02  0.51100000000E-03 0.  1.
        -12    1    3    3    0    0 -0.12946985163E+01 -0.46838202804E+00 -0.19289698744E+01  0.23699263171E+01  0.00000000000E+00 0.  1.
</event>
<event>
 7    1  0.1538805E-008  0.4614233E+02  0.7816164E-02  0.1320468E+00
        -11   -1    0    0    0    0  0.00000000000E+00  0.00000000000E+00  0.45593999997E+02  0.45594000000E+02  0.51100000000E-03 0.  1.
         11   -1    0    0    0    0 -0.00000000000E+00 -0.00000000000E+00 -0.45593999997E+02  0.45594000000E+02  0.51100000000E-03 0. -1.
    9900012    2    1    2    0    0 -0.20485383805E+02  0.91002089364E+01 -0.39072341261E+02  0.46142327578E+02  0.10000089516E+02 0.  0.
        -12    1    1    2    0    0  0.20485383805E+02 -0.91002089364E+01  0.39072341261E+02  0.45045672422E+02  0.00000000000E+00 0.  1.
         11    1    3    3    0    0 -0.31564991419E+01 -0.16101120349E+01 -0.82116747611E+01  0.89435759202E+01  0.51100000000E-03 0.  1.
        -11    1    3    3    0    0 -0.11445943422E+02  0.78801374945E+01 -0.17657979564E+02  0.22470212066E+02  0.51100000000E-03 0. -1.
         12    1    3    3    0    0 -0.58829412408E+01  0.28301834768E+01 -0.13202686936E+02  0.14728539591E+02  0.00000000000E+00 0. -1.
</event>
<event>
 7    1  0.1538805E-008  0.4614232E+02  0.7816164E-02  0.1320468E+00
        -11   -1    0    0    0    0  0.00000000000E+00  0.00000000000E+00  0.45593999997E+02  0.45594000000E+02  0.51100000000E-03 0. -1.
         11   -1    0    0    0    0 -0.00000000000E+00 -0.00000000000E+00 -0.45593999997E+02  0.45594000000E+02  0.51100000000E-03 0.  1.
    9900012    2    1    2    0    0 -0.26017253443E+02 -0.31232055342E+02  0.19410670687E+02  0.46142324357E+02  0.10000060149E+02 0.  0.
        -12    1    1    2    0    0  0.26017253443E+02  0.31232055342E+02 -0.19410670687E+02  0.45045675643E+02  0.00000000000E+00 0.  1.
         11    1    3    3    0    0 -0.22970630461E+02 -0.28106628020E+02  0.15095646282E+02  0.39312986905E+02  0.51100000000E-03 0. -1.
        -11    1    3    3    0    0 -0.35802348933E+01 -0.21744776315E+01  0.36192980783E+01  0.55358607011E+01  0.51100000000E-03 0.  1.
         12    1    3    3    0    0  0.53361191123E+00 -0.95094969022E+00  0.69572632597E+00  0.12934767512E+01  0.00000000000E+00 0. -1.
</event>
<event>
 7    1  0.1538805E-008  0.4614232E+02  0.7816164E-02  0.1320468E+00
        -11   -1    0    0    0    0  0.00000000000E+00  0.00000000000E+00  0.45593999997E+02  0.45594000000E+02  0.51100000000E-03 0.  1.
         11   -1    0    0    0    0 -0.00000000000E+00 -0.00000000000E+00 -0.45593999997E+02  0.45594000000E+02  0.51100000000E-03 0. -1.
    9900012    2    1    2    0    0 -0.15483643998E+02 -0.29013548993E+02 -0.30782855148E+02  0.46142318435E+02  0.10000006142E+02 0.  0.
        -12    1    1    2    0    0  0.15483643998E+02  0.29013548993E+02  0.30782855148E+02  0.45045681565E+02  0.00000000000E+00 0.  1.
         11    1    3    3    0    0 -0.14642478586E+02 -0.22401430065E+02 -0.24220791568E+02  0.36095332005E+02  0.51100000000E-03 0. -1.
        -11    1    3    3    0    0 -0.10639875553E+01 -0.55200912787E+01 -0.68831403822E+01  0.88871310908E+01  0.51100000000E-03 0.  1.
         12    1    3    3    0    0  0.22282214392E+00 -0.10920276487E+01  0.32107680213E+00  0.11598553385E+01  0.00000000000E+00 0. -1.
</event>
<event>
 7    1  0.1538805E-008  0.4614232E+02  0.7816164E-02  0.1320468E+00
        -11   -1    0    0    0    0  0.00000000000E+00  0.00000000000E+00  0.45593999997E+02  0.45594000000E+02  0.51100000000E-03 0.  1.
         11   -1    0    0    0    0 -0.00000000000E+00 -0.00000000000E+00 -0.45593999997E+02  0.45594000000E+02  0.51100000000E-03 0. -1.
    9900012    2    1    2    0    0 -0.34453528911E+02  0.20562078582E+02 -0.20476051319E+02  0.46142318657E+02  0.10000008172E+02 0.  0.
        -12    1    1    2    0    0  0.34453528911E+02 -0.20562078582E+02  0.20476051319E+02  0.45045681343E+02  0.00000000000E+00 0.  1.
         11    1    3    3    0    0 -0.76470967189E+01  0.56492227718E+01 -0.67741293399E+01  0.11673929704E+02  0.51100000000E-03 0.  1.
        -11    1    3    3    0    0 -0.22919015971E+02  0.95764316543E+01 -0.92513552138E+01  0.26506167393E+02  0.51100000000E-03 0. -1.
        -12    1    3    3    0    0 -0.38874162204E+01  0.53364241562E+01 -0.44505667648E+01  0.79622215602E+01  0.00000000000E+00 0.  1.
</event>
<event>
 7    1  0.1538805E-008  0.4614232E+02  0.7816164E-02  0.1320468E+00
        -11   -1    0    0    0    0  0.00000000000E+00  0.00000000000E+00  0.45593999997E+02  0.45594000000E+02  0.51100000000E-03 0.  1.
         11   -1    0    0    0    0 -0.00000000000E+00 -0.00000000000E+00 -0.45593999997E+02  0.45594000000E+02  0.51100000000E-03 0. -1.
    9900012    2    1    2    0    0  0.11739760865E+02  0.81897387719E+01 -0.42710881229E+02  0.46142321165E+02  0.10000031039E+02 0.  0.
        -12    1    1    2    0    0 -0.11739760865E+02 -0.81897387719E+01  0.42710881229E+02  0.45045678835E+02  0.00000000000E+00 0.  1.
         11    1    3    3    0    0  0.51058123897E+01  0.43071376223E+01 -0.28245110333E+02  0.29024248701E+02  0.51100000000E-03 0. -1.
        -11    1    3    3    0    0  0.81988325761E+00  0.14760346843E+01 -0.76815736830E+01  0.78649514591E+01  0.51100000000E-03 0.  1.
        -12    1    3    3    0    0  0.58140652176E+01  0.24065664653E+01 -0.67841972135E+01  0.92531210053E+01  0.00000000000E+00 0.  1.
</event>
<event>
 7    1  0.1538805E-008  0.4614232E+02  0.7816164E-02  0.1320468E+00
        -11   -1    0    0    0    0  0.00000000000E+00  0.00000000000E+00  0.45593999997E+02  0.45594000000E+02  0.51100000000E-03 0.  1.
         11   -1    0    0    0    0 -0.00000000000E+00 -0.00000000000E+00 -0.45593999997E+02  0.45594000000E+02  0.51100000000E-03 0. -1.
    9900012    2    1    2    0    0 -0.43033733192E+01  0.44839639177E+02 -0.34529814694E-01  0.46142318123E+02  0.10000003303E+02 0.  0.
        -12    1    1    2    0    0  0.43033733192E+01 -0.44839639177E+02  0.34529814694E-01  0.45045681877E+02  0.00000000000E+00 0.  1.
         11    1    3    3    0    0 -0.36391202460E+01  0.18776786402E+02 -0.25319011547E+01  0.19293040908E+02  0.51100000000E-03 0. -1.
        -11    1    3    3    0    0 -0.18945143476E+01  0.22953823377E+02  0.36360333983E+01  0.23317116703E+02  0.51100000000E-03 0.  1.
        -12    1    3    3    0    0  0.12302612744E+01  0.31090293977E+01 -0.11386620583E+01  0.35321605120E+01  0.00000000000E+00 0.  1.
</event>
<event>
 7    1  0.1538805E-008  0.4614232E+02  0.7816164E-02  0.1320468E+00
        -11   -1    0    0    0    0  0.00000000000E+00  0.00000000000E+00  0.45593999997E+02  0.45594000000E+02  0.51100000000E-03 0.  1.
         11   -1    0    0    0    0 -0.00000000000E+00 -0.00000000000E+00 -0.45593999997E+02  0.45594000000E+02  0.51100000000E-03 0. -1.
    9900012    2    1    2    0    0 -0.39580374648E+02 -0.98774964046E+01 -0.19103466845E+02  0.46142318321E+02  0.10000005101E+02 0.  0.
        -12    1    1    2    0    0  0.39580374648E+02  0.98774964046E+01  0.19103466845E+02  0.45045681679E+02  0.00000000000E+00 0.  1.
         11    1    3    3    0    0 -0.14896648482E+02 -0.59813829857E+01 -0.59833939692E+01  0.17131493866E+02  0.51100000000E-03 0.  1.
        -11    1    3    3    0    0 -0.11496592025E+02 -0.49996630890E+01 -0.50814565407E+01  0.13527359684E+02  0.51100000000E-03 0. -1.
         12    1    3    3    0    0 -0.13187134141E+02  0.11035496702E+01 -0.80386163346E+01  0.15483464771E+02  0.00000000000E+00 0. -1.
</event>
<event>
 7    1  0.1538805E-008  0.4614232E+02  0.7816164E-02  0.1320468E+00
        -11   -1    0    0    0    0  0.00000000000E+00  0.00000000000E+00  0.45593999997E+02  0.45594000000E+02  0.51100000000E-03 0.  1.
         11   -1    0    0    0    0 -0.00000000000E+00 -0.00000000000E+00 -0.45593999997E+02  0.45594000000E+02  0.51100000000E-03 0. -1.
    9900012    2    1    2    0    0 -0.11380709985E+02  0.36646368675E+02 -0.23593146747E+02  0.46142317962E+02  0.10000001832E+02 0.  0.
        -12    1    1    2    0    0  0.11380709985E+02 -0.36646368675E+02  0.23593146747E+02  0.45045682038E+02  0.00000000000E+00 0.  1.
         11    1    3    3    0    0 -0.75353116255E+01  0.30714310838E+02 -0.18125329764E+02  0.36451027295E+02  0.51100000000E-03 0. -1.
        -11    1    3    3    0    0 -0.45994591178E+01  0.49591928954E+01 -0.47675464285E+01  0.82751506064E+01  0.51100000000E-03 0.  1.
        -12    1    3    3    0    0  0.75406075813E+00  0.97286494227E+00 -0.70027055442E+00  0.14161400610E+01  0.00000000000E+00 0.  1.
</event>
<event>
 7    1  0.1538805E-008  0.4614232E+02  0.7816164E-02  0.1320468E+00
        -11   -1    0    0    0    0  0.00000000000E+00  0.00000000000E+00  0.45593999997E+02  0.45594000000E+02  0.51100000000E-03 0.  1.
         11   -1    0    0    0    0 -0.00000000000E+00 -0.00000000000E+00 -0.45593999997E+02  0.45594000000E+02  0.51100000000E-03 0. -1.
    9900012    2    1    2    0    0 -0.37435666321E+02  0.11858590769E+02 -0.22069391358E+02  0.46142319599E+02  0.10000016755E+02 0.  0.
        -12    1    1    2    0    0  0.37435666321E+02 -0.11858590769E+02  0.22069391358E+02  0.45045680401E+02  0.00000000000E+00 0.  1.
         11    1    3    3    0    0 -0.17892713878E+02  0.43345094029E+01 -0.10586859804E+02  0.21237202793E+02  0.51100000000E-03 0. -1.
        -11    1    3    3    0    0 -0.14616779464E+02  0.72638061221E+01 -0.11509458454E+02  0.19971999285E+02  0.51100000000E-03 0.  1.
         12    1    3    3    0    0 -0.49261729783E+01  0.26027524383E+00  0.26926899317E-01  0.49331175207E+01  0.00000000000E+00 0. -1.
</event>
<event>
 7    1  0.1538805E-008  0.4614232E+02  0.7816164E-02  0.1320468E+00
        -11   -1    0    0    0    0  0.00000000000E+00  0.00000000000E+00  0.45593999997E+02  0.45594000000E+02  0.51100000000E-03 0.  1.
         11   -1    0    0    0    0 -0.00000000000E+00 -0.00000000000E+00 -0.45593999997E+02  0.45594000000E+02  0.51100000000E-03 0. -1.
    9900012    2    1    2    0    0 -0.29477324816E+02 -0.10558685912E+02 -0.32383868794E+02  0.46142317803E+02  0.10000000385E+02 0.  0.
        -12    1    1    2    0    0  0.29477324816E+02  0.10558685912E+02  0.32383868794E+02  0.45045682197E+02  0.00000000000E+00 0.  1.
         11    1    3    3    0    0 -0.33307335539E+01  0.16304990759E+01 -0.34724697379E+01  0.50803897080E+01  0.51100000000E-03 0.  1.
        -11    1    3    3    0    0 -0.10940439340E+02 -0.48369969564E+01 -0.14962558308E+02  0.19156406340E+02  0.51100000000E-03 0. -1.
         12    1    3    3    0    0 -0.15206151922E+02 -0.73521880314E+01 -0.13948840749E+02  0.21905521755E+02  0.00000000000E+00 0. -1.
</event>
<event>
 7    1  0.1538805E-008  0.4614232E+02  0.7816164E-02  0.1320468E+00
        -11   -1    0    0    0    0  0.00000000000E+00  0.00000000000E+00  0.45593999997E+02  0.45594000000E+02  0.51100000000E-03 0.  1.
         11   -1    0    0    0    0 -0.00000000000E+00 -0.00000000000E+00 -0.45593999997E+02  0.45594000000E+02  0.51100000000E-03 0. -1.
    9900012    2    1    2    0    0  0.15302875042E+02  0.37459270010E+02  0.19792386312E+02  0.46142318185E+02  0.10000003866E+02 0.  0.
        -12    1    1    2    0    0 -0.15302875042E+02 -0.37459270010E+02 -0.19792386312E+02  0.45045681815E+02  0.00000000000E+00 0.  1.
         11    1    3    3    0    0  0.41575929304E+01  0.19231148960E+02  0.67947345409E+01  0.20815645247E+02  0.51100000000E-03 0. -1.
        -11    1    3    3    0    0  0.68964352626E+01  0.92125667770E+01  0.49966302139E+01  0.12545856675E+02  0.51100000000E-03 0.  1.
        -12    1    3    3    0    0  0.42488468487E+01  0.90155542731E+01  0.80010215570E+01  0.12780816263E+02  0.00000000000E+00 0.  1.
</event>
<event>
 7    1  0.1538805E-008  0.4614232E+02  0.7816164E-02  0.1320468E+00
        -11   -1    0    0    0    0  0.00000000000E+00  0.00000000000E+00  0.45593999997E+02  0.45594000000E+02  0.51100000000E-03 0.  1.
         11   -1    0    0    0    0 -0.00000000000E+00 -0.00000000000E+00 -0.45593999997E+02  0.45594000000E+02  0.51100000000E-03 0. -1.
    9900012    2    1    2    0    0  0.23726820613E+02 -0.10213783537E+02 -0.36902981866E+02  0.46142318063E+02  0.10000002757E+02 0.  0.
        -12    1    1    2    0    0 -0.23726820613E+02  0.10213783537E+02  0.36902981866E+02  0.45045681937E+02  0.00000000000E+00 0.  1.
         11    1    3    3    0    0  0.14557317089E+02 -0.86701844574E+01 -0.18816426905E+02  0.25320851113E+02  0.51100000000E-03 0. -1.
        -11    1    3    3    0    0  0.85591431042E+01 -0.43143786954E-01 -0.13797751514E+02  0.16236955970E+02  0.51100000000E-03 0.  1.
        -12    1    3    3    0    0  0.61036042031E+00 -0.15004552925E+01 -0.42888034466E+01  0.45845109806E+01  0.00000000000E+00 0.  1.
</event>
<event>
 7    1  0.1538805E-008  0.4614232E+02  0.7816164E-02  0.1320468E+00
        -11   -1    0    0    0    0  0.00000000000E+00  0.00000000000E+00  0.45593999997E+02  0.45594000000E+02  0.51100000000E-03 0. -1.
         11   -1    0    0    0    0 -0.00000000000E+00 -0.00000000000E+00 -0.45593999997E+02  0.45594000000E+02  0.51100000000E-03 0.  1.
    9900012    2    1    2    0    0  0.34758553588E+01 -0.24845831551E+02  0.37412786265E+02  0.46142317720E+02  0.99999996260E+01 0.  0.
        -12    1    1    2    0    0 -0.34758553588E+01  0.24845831551E+02 -0.37412786265E+02  0.45045682280E+02  0.00000000000E+00 0.  1.
         11    1    3    3    0    0 -0.59758927691E+00 -0.31310808500E+01  0.25241618538E+01  0.40659775649E+01  0.51100000000E-03 0. -1.
        -11    1    3    3    0    0  0.37991361817E+01 -0.18439583299E+02  0.22901217492E+02  0.29646541633E+02  0.51100000000E-03 0.  1.
        -12    1    3    3    0    0  0.27430845408E+00 -0.32751674030E+01  0.11987406919E+02  0.12429798522E+02  0.00000000000E+00 0.  1.
</event>
<event>
 7    1  0.1538805E-008  0.4614232E+02  0.7816164E-02  0.1320468E+00
        -11   -1    0    0    0    0  0.00000000000E+00  0.00000000000E+00  0.45593999997E+02  0.45594000000E+02  0.51100000000E-03 0.  1.
         11   -1    0    0    0    0 -0.00000000000E+00 -0.00000000000E+00 -0.45593999997E+02  0.45594000000E+02  0.51100000000E-03 0. -1.
    9900012    2    1    2    0    0  0.17081154767E+02 -0.74813843371E+01 -0.41004584588E+02  0.46142324103E+02  0.10000057834E+02 0.  0.
        -12    1    1    2    0    0 -0.17081154767E+02  0.74813843371E+01  0.41004584588E+02  0.45045675897E+02  0.00000000000E+00 0.  1.
         11    1    3    3    0    0  0.34016340842E+01 -0.13206246713E+01 -0.54357850314E+01  0.65469781681E+01  0.51100000000E-03 0. -1.
        -11    1    3    3    0    0  0.29872022017E+01  0.20620957375E+01 -0.10774556658E+02  0.11369550883E+02  0.51100000000E-03 0.  1.
        -12    1    3    3    0    0  0.10692318481E+02 -0.82228554032E+01 -0.24794242898E+02  0.28225795053E+02  0.00000000000E+00 0.  1.
</event>
<event>
 7    1  0.1538805E-008  0.4614232E+02  0.7816164E-02  0.1320468E+00
        -11   -1    0    0    0    0  0.00000000000E+00  0.00000000000E+00  0.45593999997E+02  0.45594000000E+02  0.51100000000E-03 0.  1.
         11   -1    0    0    0    0 -0.00000000000E+00 -0.00000000000E+00 -0.45593999997E+02  0.45594000000E+02  0.51100000000E-03 0. -1.
    9900012    2    1    2    0    0  0.24947651362E+00 -0.10322518457E+02 -0.43846286646E+02  0.46142317871E+02  0.10000001004E+02 0.  0.
        -12    1    1    2    0    0 -0.24947651362E+00  0.10322518457E+02  0.43846286646E+02  0.45045682129E+02  0.00000000000E+00 0.  1.
         11    1    3    3    0    0  0.56586508287E+00 -0.21288700421E+01 -0.25556136555E+02  0.25650894855E+02  0.51100000000E-03 0. -1.
        -11    1    3    3    0    0 -0.97087002870E+00 -0.29853822328E+01 -0.30675397066E+01  0.43891793995E+01  0.51100000000E-03 0.  1.
         12    1    3    3    0    0  0.65448145945E+00 -0.52082661817E+01 -0.15222610384E+02  0.16102243617E+02  0.00000000000E+00 0. -1.
</event>
<event>
 7    1  0.1538805E-008  0.4614232E+02  0.7816164E-02  0.1320468E+00
        -11   -1    0    0    0    0  0.00000000000E+00  0.00000000000E+00  0.45593999997E+02  0.45594000000E+02  0.51100000000E-03 0.  1.
         11   -1    0    0    0    0 -0.00000000000E+00 -0.00000000000E+00 -0.45593999997E+02  0.45594000000E+02  0.51100000000E-03 0. -1.
    9900012    2    1    2    0    0 -0.10737887008E+02  0.22359024848E+02 -0.37601665313E+02  0.46142318256E+02  0.10000004509E+02 0.  0.
        -12    1    1    2    0    0  0.10737887008E+02 -0.22359024848E+02  0.37601665313E+02  0.45045681744E+02  0.00000000000E+00 0.  1.
         11    1    3    3    0    0 -0.11147674976E+01  0.48437766291E+00 -0.37301806001E+01  0.39232098930E+01  0.51100000000E-03 0. -1.
        -11    1    3    3    0    0 -0.46305491056E+01  0.16711338980E+02 -0.28033484758E+02  0.32963420688E+02  0.51100000000E-03 0.  1.
        -12    1    3    3    0    0 -0.49925704045E+01  0.51633082042E+01 -0.58379999552E+01  0.92556876747E+01  0.00000000000E+00 0.  1.
</event>
<event>
 7    1  0.1538805E-008  0.4614233E+02  0.7816164E-02  0.1320468E+00
        -11   -1    0    0    0    0  0.00000000000E+00  0.00000000000E+00  0.45593999997E+02  0.45594000000E+02  0.51100000000E-03 0. -1.
         11   -1    0    0    0    0 -0.00000000000E+00 -0.00000000000E+00 -0.45593999997E+02  0.45594000000E+02  0.51100000000E-03 0.  1.
    9900012    2    1    2    0    0 -0.12719499766E+02 -0.65274677386E+01  0.42716731795E+02  0.46142326682E+02  0.10000081347E+02 0.  0.
        -12    1    1    2    0    0  0.12719499766E+02  0.65274677386E+01 -0.42716731795E+02  0.45045673318E+02  0.00000000000E+00 0.  1.
         11    1    3    3    0    0 -0.67674626086E+01 -0.70715692371E+01  0.34730520111E+02  0.36083440372E+02  0.51100000000E-03 0. -1.
        -11    1    3    3    0    0 -0.36518380316E+01  0.85320383928E+00  0.55092208838E+01  0.66644874377E+01  0.51100000000E-03 0.  1.
         12    1    3    3    0    0 -0.23001991263E+01 -0.30910234078E+00  0.24769908008E+01  0.33943988724E+01  0.00000000000E+00 0. -1.
</event>
<event>
 7    1  0.1538805E-008  0.4614232E+02  0.7816164E-02  0.1320468E+00
        -11   -1    0    0    0    0  0.00000000000E+00  0.00000000000E+00  0.45593999997E+02  0.45594000000E+02  0.51100000000E-03 0.  1.
         11   -1    0    0    0    0 -0.00000000000E+00 -0.00000000000E+00 -0.45593999997E+02  0.45594000000E+02  0.51100000000E-03 0. -1.
    9900012    2    1    2    0    0 -0.43195995702E+02  0.78910319990E+01  0.10047443218E+02  0.46142317123E+02  0.99999941768E+01 0.  0.
        -12    1    1    2    0    0  0.43195995702E+02 -0.78910319990E+01 -0.10047443218E+02  0.45045682877E+02  0.00000000000E+00 0.  1.
         11    1    3    3    0    0 -0.43582371045E+01 -0.63781276824E+00  0.14251938350E+01  0.46294938724E+01  0.51100000000E-03 0. -1.
        -11    1    3    3    0    0 -0.15707545216E+02  0.14925573680E+01  0.70595637428E+01  0.17285605130E+02  0.51100000000E-03 0.  1.
        -12    1    3    3    0    0 -0.23130213381E+02  0.70362873993E+01  0.15626856402E+01  0.24227218120E+02  0.00000000000E+00 0.  1.
</event>
<event>
 7    1  0.1538805E-008  0.4614232E+02  0.7816164E-02  0.1320468E+00
        -11   -1    0    0    0    0  0.00000000000E+00  0.00000000000E+00  0.45593999997E+02  0.45594000000E+02  0.51100000000E-03 0. -1.
         11   -1    0    0    0    0 -0.00000000000E+00 -0.00000000000E+00 -0.45593999997E+02  0.45594000000E+02  0.51100000000E-03 0.  1.
    9900012    2    1    2    0    0 -0.19793499724E+02  0.25750701929E+02  0.31212692531E+02  0.46142318118E+02  0.10000003255E+02 0.  0.
        -12    1    1    2    0    0  0.19793499724E+02 -0.25750701929E+02 -0.31212692531E+02  0.45045681882E+02  0.00000000000E+00 0.  1.
         11    1    3    3    0    0 -0.97502887297E+01  0.11436630234E+02  0.18920749421E+02  0.24163182744E+02  0.51100000000E-03 0. -1.
        -11    1    3    3    0    0 -0.97181010078E+01  0.10830056467E+02  0.86466691695E+01  0.16926207439E+02  0.51100000000E-03 0.  1.
         12    1    3    3    0    0 -0.32510998631E+00  0.34840152279E+01  0.36452739413E+01  0.50529279352E+01  0.00000000000E+00 0. -1.
</event>
<event>
 7    1  0.1538805E-008  0.4614232E+02  0.7816164E-02  0.1320468E+00
        -11   -1    0    0    0    0  0.00000000000E+00  0.00000000000E+00  0.45593999997E+02  0.45594000000E+02  0.51100000000E-03 0. -1.
         11   -1    0    0    0    0 -0.00000000000E+00 -0.00000000000E+00 -0.45593999997E+02  0.45594000000E+02  0.51100000000E-03 0.  1.
    9900012    2    1    2    0    0 -0.28924952143E+02  0.57687097576E+01  0.34046770448E+02  0.46142318224E+02  0.10000004218E+02 0.  0.
        -12    1    1    2    0    0  0.28924952143E+02 -0.57687097576E+01 -0.34046770448E+02  0.45045681776E+02  0.00000000000E+00 0.  1.
         11    1    3    3    0    0  0.20148246742E+00  0.19046954059E+00  0.36529646695E+00  0.45860178854E+00  0.51100000000E-03 0.  1.
        -11    1    3    3    0    0 -0.21633411877E+02  0.89029961151E+00  0.20525941903E+02  0.29834735361E+02  0.51100000000E-03 0. -1.
        -12    1    3    3    0    0 -0.74930227334E+01  0.46879406055E+01  0.13155532079E+02  0.15848981074E+02  0.00000000000E+00 0.  1.
</event>
<event>
 7    1  0.1538805E-008  0.4614232E+02  0.7816164E-02  0.1320468E+00
        -11   -1    0    0    0    0  0.00000000000E+00  0.00000000000E+00  0.45593999997E+02  0.45594000000E+02  0.51100000000E-03 0.  1.
         11   -1    0    0    0    0 -0.00000000000E+00 -0.00000000000E+00 -0.45593999997E+02  0.45594000000E+02  0.51100000000E-03 0. -1.
    9900012    2    1    2    0    0 -0.44424168559E+02  0.70551527097E+01 -0.24148620176E+01  0.46142317738E+02  0.99999997849E+01 0.  0.
        -12    1    1    2    0    0  0.44424168559E+02 -0.70551527097E+01  0.24148620176E+01  0.45045682262E+02  0.00000000000E+00 0.  1.
         11    1    3    3    0    0 -0.23083127347E+02  0.56451357162E+01 -0.18356642287E+01  0.23834176906E+02  0.51100000000E-03 0. -1.
        -11    1    3    3    0    0 -0.10507604580E+02 -0.24017090299E+01  0.36651415770E+00  0.10784817715E+02  0.51100000000E-03 0.  1.
        -12    1    3    3    0    0 -0.10833436632E+02  0.38117260234E+01 -0.94571194667E+00  0.11523323116E+02  0.00000000000E+00 0.  1.
</event>
<event>
 7    1  0.1538805E-008  0.4614232E+02  0.7816164E-02  0.1320468E+00
        -11   -1    0    0    0    0  0.00000000000E+00  0.00000000000E+00  0.45593999997E+02  0.45594000000E+02  0.51100000000E-03 0. -1.
         11   -1    0    0    0    0 -0.00000000000E+00 -0.00000000000E+00 -0.45593999997E+02  0.45594000000E+02  0.51100000000E-03 0.  1.
    9900012    2    1    2    0    0 -0.34005295267E+02 -0.29261638674E+02  0.40632047134E+01  0.46142320556E+02  0.10000025483E+02 0.  0.
        -12    1    1    2    0    0  0.34005295267E+02  0.29261638674E+02 -0.40632047134E+01  0.45045679444E+02  0.00000000000E+00 0.  1.
         11    1    3    3    0    0 -0.23512866852E+01 -0.18154606597E+01 -0.14811393512E+01  0.33193705009E+01  0.51100000000E-03 0. -1.
        -11    1    3    3    0    0 -0.11363150185E+02 -0.12328976527E+02 -0.62555192135E+00  0.16778443307E+02  0.51100000000E-03 0.  1.
         12    1    3    3    0    0 -0.20290858396E+02 -0.15117201487E+02  0.61698959860E+01  0.26044506748E+02  0.00000000000E+00 0. -1.
</event>
<event>
 7    1  0.1538805E-008  0.4614232E+02  0.7816164E-02  0.1320468E+00
        -11   -1    0    0    0    0  0.00000000000E+00  0.00000000000E+00  0.45593999997E+02  0.45594000000E+02  0.51100000000E-03 0.  1.
         11   -1    0    0    0    0 -0.00000000000E+00 -0.00000000000E+00 -0.45593999997E+02  0.45594000000E+02  0.51100000000E-03 0. -1.
    9900012    2    1    2    0    0  0.33240874383E+02 -0.13426377968E+02 -0.27274349360E+02  0.46142317764E+02  0.10000000024E+02 0.  0.
        -12    1    1    2    0    0 -0.33240874383E+02  0.13426377968E+02  0.27274349360E+02  0.45045682236E+02  0.00000000000E+00 0.  1.
         11    1    3    3    0    0  0.78335681995E+01 -0.68248970088E+01 -0.10001734084E+02  0.14421466460E+02  0.51100000000E-03 0. -1.
        -11    1    3    3    0    0  0.10081722068E+02 -0.28640187139E+01 -0.44260154025E+01  0.11376877237E+02  0.51100000000E-03 0.  1.
         12    1    3    3    0    0  0.15325584116E+02 -0.37374622456E+01 -0.12846599874E+02  0.20343974067E+02  0.00000000000E+00 0. -1.
</event>
<event>
 7    1  0.1538805E-008  0.4614232E+02  0.7816164E-02  0.1320468E+00
        -11   -1    0    0    0    0  0.00000000000E+00  0.00000000000E+00  0.45593999997E+02  0.45594000000E+02  0.51100000000E-03 0.  1.
         11   -1    0    0    0    0 -0.00000000000E+00 -0.00000000000E+00 -0.45593999997E+02  0.45594000000E+02  0.51100000000E-03 0. -1.
    9900012    2    1    2    0    0 -0.10936843641E+02 -0.38989459772E+01 -0.43523523718E+02  0.46142318238E+02  0.10000004351E+02 0.  0.
        -12    1    1    2    0    0  0.10936843641E+02  0.38989459772E+01  0.43523523718E+02  0.45045681762E+02  0.00000000000E+00 0.  1.
         11    1    3    3    0    0 -0.10596846272E+02 -0.31075026250E+01 -0.23212107481E+02  0.25705090108E+02  0.51100000000E-03 0. -1.
        -11    1    3    3    0    0 -0.65453791341E+00 -0.13835806491E+01 -0.11689470122E+02  0.11789250497E+02  0.51100000000E-03 0.  1.
         12    1    3    3    0    0  0.31454054529E+00  0.59213729687E+00 -0.86219461151E+01  0.86479776332E+01  0.00000000000E+00 0. -1.
</event>
<event>
 7    1  0.1538805E-008  0.4614233E+02  0.7816164E-02  0.1320468E+00
        -11   -1    0    0    0    0  0.00000000000E+00  0.00000000000E+00  0.45593999997E+02  0.45594000000E+02  0.51100000000E-03 0.  1.
         11   -1    0    0    0    0 -0.00000000000E+00 -0.00000000000E+00 -0.45593999997E+02  0.45594000000E+02  0.51100000000E-03 0. -1.
    9900012    2    1    2    0    0 -0.43418077497E+01 -0.38052550326E+02 -0.23712124471E+02  0.46142326204E+02  0.10000076985E+02 0.  0.
        -12    1    1    2    0    0  0.43418077497E+01  0.38052550326E+02  0.23712124471E+02  0.45045673796E+02  0.00000000000E+00 0.  1.
         11    1    3    3    0    0 -0.16067562789E+01 -0.20630605461E+01 -0.13303495346E+01  0.29338907106E+01  0.51100000000E-03 0. -1.
        -11    1    3    3    0    0 -0.25869752288E-01 -0.17329046607E+02 -0.63420226643E+01  0.18453123781E+02  0.51100000000E-03 0.  1.
         12    1    3    3    0    0 -0.27091817185E+01 -0.18660443173E+02 -0.16039752272E+02  0.24755311712E+02  0.00000000000E+00 0. -1.
</event>
<event>
 7    1  0.1538805E-008  0.4614232E+02  0.7816164E-02  0.1320468E+00
        -11   -1    0    0    0    0  0.00000000000E+00  0.00000000000E+00  0.45593999997E+02  0.45594000000E+02  0.51100000000E-03 0.  1.
         11   -1    0    0    0    0 -0.00000000000E+00 -0.00000000000E+00 -0.45593999997E+02  0.45594000000E+02  0.51100000000E-03 0. -1.
    9900012    2    1    2    0    0 -0.43131486921E+02 -0.99061662195E+01 -0.84057236398E+01  0.46142317820E+02  0.10000000536E+02 0.  0.
        -12    1    1    2    0    0  0.43131486921E+02  0.99061662195E+01  0.84057236398E+01  0.45045682180E+02  0.00000000000E+00 0.  1.
         11    1    3    3    0    0 -0.19878086106E+02 -0.50427294152E+01 -0.20009917153E+01  0.20605130315E+02  0.51100000000E-03 0.  1.
        -11    1    3    3    0    0 -0.20441368379E+02 -0.17462067442E+01 -0.55438086373E+01  0.21251649199E+02  0.51100000000E-03 0. -1.
        -12    1    3    3    0    0 -0.28120324357E+01 -0.31172300601E+01 -0.86092328715E+00  0.42855383061E+01  0.00000000000E+00 0.  1.
</event>
<event>
 7    1  0.1538805E-008  0.4614232E+02  0.7816164E-02  0.1320468E+00
        -11   -1    0    0    0    0  0.00000000000E+00  0.00000000000E+00  0.45593999997E+02  0.45594000000E+02  0.51100000000E-03 0.  1.
         11   -1    0    0    0    0 -0.00000000000E+00 -0.00000000000E+00 -0.45593999997E+02  0.45594000000E+02  0.51100000000E-03 0. -1.
    9900012    2    1    2    0    0  0.41613100432E+02 -0.12529351543E+02  0.11852366112E+02  0.46142319185E+02  0.10000012987E+02 0.  0.
        -12    1    1    2    0    0 -0.41613100432E+02  0.12529351543E+02 -0.11852366112E+02  0.45045680815E+02  0.00000000000E+00 0.  1.
         11    1    3    3    0    0  0.30675269658E+02 -0.11514926589E+02  0.82406845418E+01  0.33785715693E+02  0.51100000000E-03 0. -1.
        -11    1    3    3    0    0  0.52092397941E+01 -0.11847869009E+00  0.39649844759E+01  0.65476193068E+01  0.51100000000E-03 0.  1.
        -12    1    3    3    0    0  0.57285909800E+01 -0.89594626312E+00 -0.35330290594E+00  0.58089841853E+01  0.00000000000E+00 0.  1.
</event>
<event>
 7    1  0.1538805E-008  0.4614232E+02  0.7816164E-02  0.1320468E+00
        -11   -1    0    0    0    0  0.00000000000E+00  0.00000000000E+00  0.45593999997E+02  0.45594000000E+02  0.51100000000E-03 0.  1.
         11   -1    0    0    0    0 -0.00000000000E+00 -0.00000000000E+00 -0.45593999997E+02  0.45594000000E+02  0.51100000000E-03 0. -1.
    9900012    2    1    2    0    0 -0.43138713916E+02 -0.74487319584E+01  0.10615138260E+02  0.46142318671E+02  0.10000008300E+02 0.  0.
        -12    1    1    2    0    0  0.43138713916E+02  0.74487319584E+01 -0.10615138260E+02  0.45045681329E+02  0.00000000000E+00 0.  1.
         11    1    3    3    0    0 -0.96056577471E+01 -0.38789796993E+01  0.52292689496E+01  0.11604326705E+02  0.51100000000E-03 0.  1.
        -11    1    3    3    0    0 -0.22393595411E+02 -0.72845109944E-02  0.41845191705E+01  0.22781206497E+02  0.51100000000E-03 0. -1.
        -12    1    3    3    0    0 -0.11139460757E+02 -0.35624677482E+01  0.12013501401E+01  0.11756785470E+02  0.00000000000E+00 0.  1.
</event>
<event>
 7    1  0.1538805E-008  0.4614232E+02  0.7816164E-02  0.1320468E+00
        -11   -1    0    0    0    0  0.00000000000E+00  0.00000000000E+00  0.45593999997E+02  0.45594000000E+02  0.51100000000E-03 0.  1.
         11   -1    0    0    0    0 -0.00000000000E+00 -0.00000000000E+00 -0.45593999997E+02  0.45594000000E+02  0.51100000000E-03 0. -1.
    9900012    2    1    2    0    0 -0.36443820423E+02 -0.24948321759E+02 -0.88624368647E+01  0.46142316602E+02  0.99999894280E+01 0.  0.
        -12    1    1    2    0    0  0.36443820423E+02  0.24948321759E+02  0.88624368647E+01  0.45045683398E+02  0.00000000000E+00 0.  1.
         11    1    3    3    0    0 -0.47344532091E+01 -0.66577306109E+01 -0.42214635411E+01  0.91957152395E+01  0.51100000000E-03 0. -1.
        -11    1    3    3    0    0 -0.12260474883E+02 -0.79123662366E+01 -0.24054803335E+01  0.14788885005E+02  0.51100000000E-03 0.  1.
         12    1    3    3    0    0 -0.19448892332E+02 -0.10378224912E+02 -0.22354929901E+01  0.22157716357E+02  0.00000000000E+00 0. -1.
</event>
<event>
 7    1  0.1538805E-008  0.4614232E+02  0.7816164E-02  0.1320468E+00
        -11   -1    0    0    0    0  0.00000000000E+00  0.00000000000E+00  0.45593999997E+02  0.45594000000E+02  0.51100000000E-03 0.  1.
         11   -1    0    0    0    0 -0.00000000000E+00 -0.00000000000E+00 -0.45593999997E+02  0.45594000000E+02  0.51100000000E-03 0. -1.
    9900012    2    1    2    0    0  0.40103432214E+02  0.17202599839E+01 -0.20441847031E+02  0.46142315636E+02  0.99999806205E+01 0.  0.
        -12    1    1    2    0    0 -0.40103432214E+02 -0.17202599839E+01  0.20441847031E+02  0.45045684364E+02  0.00000000000E+00 0.  1.
         11    1    3    3    0    0  0.12957381085E+02  0.25642359277E+00 -0.61391560538E+01  0.14340457278E+02  0.51100000000E-03 0. -1.
        -11    1    3    3    0    0  0.11226651230E+02  0.43446916731E+01 -0.79232420939E+01  0.14411516544E+02  0.51100000000E-03 0.  1.
        -12    1    3    3    0    0  0.15919399900E+02 -0.28808552819E+01 -0.63794488837E+01  0.17390341813E+02  0.00000000000E+00 0.  1.
</event>
<event>
 7    1  0.1538805E-008  0.4614232E+02  0.7816164E-02  0.1320468E+00
        -11   -1    0    0    0    0  0.00000000000E+00  0.00000000000E+00  0.45593999997E+02  0.45594000000E+02  0.51100000000E-03 0. -1.
         11   -1    0    0    0    0 -0.00000000000E+00 -0.00000000000E+00 -0.45593999997E+02  0.45594000000E+02  0.51100000000E-03 0.  1.
    9900012    2    1    2    0    0  0.37384186737E+02 -0.25114731605E+02 -0.88676457558E+00  0.46142317488E+02  0.99999975090E+01 0.  0.
        -12    1    1    2    0    0 -0.37384186737E+02  0.25114731605E+02  0.88676457558E+00  0.45045682512E+02  0.00000000000E+00 0.  1.
         11    1    3    3    0    0  0.48202323242E+01 -0.64651046058E+01  0.11305742635E+01  0.81431207562E+01  0.51100000000E-03 0. -1.
        -11    1    3    3    0    0  0.91237153021E+01 -0.30657037758E+01  0.10618044664E+01  0.96833955584E+01  0.51100000000E-03 0.  1.
         12    1    3    3    0    0  0.23440239111E+02 -0.15583923223E+02 -0.30791433055E+01  0.28315801173E+02  0.00000000000E+00 0. -1.
</event>
<event>
 7    1  0.1538805E-008  0.4614232E+02  0.7816164E-02  0.1320468E+00
        -11   -1    0    0    0    0  0.00000000000E+00  0.00000000000E+00  0.45593999997E+02  0.45594000000E+02  0.51100000000E-03 0.  1.
         11   -1    0    0    0    0 -0.00000000000E+00 -0.00000000000E+00 -0.45593999997E+02  0.45594000000E+02  0.51100000000E-03 0. -1.
    9900012    2    1    2    0    0 -0.34715602203E+02 -0.13644801264E+02 -0.25253905614E+02  0.46142318891E+02  0.10000010301E+02 0.  0.
        -12    1    1    2    0    0  0.34715602203E+02  0.13644801264E+02  0.25253905614E+02  0.45045681109E+02  0.00000000000E+00 0.  1.
         11    1    3    3    0    0 -0.30566150504E+02 -0.10437518334E+02 -0.20624084686E+02  0.38322111306E+02  0.51100000000E-03 0. -1.
        -11    1    3    3    0    0 -0.18691612942E+01 -0.27959390239E+01 -0.99077123664E+00  0.35060899694E+01  0.51100000000E-03 0.  1.
         12    1    3    3    0    0 -0.22802904052E+01 -0.41134390579E+00 -0.36390496911E+01  0.43141176149E+01  0.00000000000E+00 0. -1.
</event>
<event>
 7    1  0.1538805E-008  0.4614232E+02  0.7816164E-02  0.1320468E+00
        -11   -1    0    0    0    0  0.00000000000E+00  0.00000000000E+00  0.45593999997E+02  0.45594000000E+02  0.51100000000E-03 0. -1.
         11   -1    0    0    0    0 -0.00000000000E+00 -0.00000000000E+00 -0.45593999997E+02  0.45594000000E+02  0.51100000000E-03 0.  1.
    9900012    2    1    2    0    0  0.23366175536E+02  0.37892553475E+02  0.68767111775E+01  0.46142324018E+02  0.10000057057E+02 0.  0.
        -12    1    1    2    0    0 -0.23366175536E+02 -0.37892553475E+02 -0.68767111775E+01  0.45045675982E+02  0.00000000000E+00 0.  1.
         11    1    3    3    0    0  0.10181922889E+02  0.13243257547E+02 -0.93202110394E+00  0.16730932065E+02  0.51100000000E-03 0. -1.
        -11    1    3    3    0    0  0.76349131773E+00  0.17531824725E+01  0.19119667130E+01  0.27041051656E+01  0.51100000000E-03 0.  1.
         12    1    3    3    0    0  0.12420761329E+02  0.22896113456E+02  0.58967655685E+01  0.26707286787E+02  0.00000000000E+00 0. -1.
</event>
<event>
 7    1  0.1538805E-008  0.4614232E+02  0.7816164E-02  0.1320468E+00
        -11   -1    0    0    0    0  0.00000000000E+00  0.00000000000E+00  0.45593999997E+02  0.45594000000E+02  0.51100000000E-03 0.  1.
         11   -1    0    0    0    0 -0.00000000000E+00 -0.00000000000E+00 -0.45593999997E+02  0.45594000000E+02  0.51100000000E-03 0. -1.
    9900012    2    1    2    0    0 -0.37748083475E+02 -0.47202025625E+01 -0.24122919948E+02  0.46142318907E+02  0.10000010451E+02 0.  0.
        -12    1    1    2    0    0  0.37748083475E+02  0.47202025625E+01  0.24122919948E+02  0.45045681093E+02  0.00000000000E+00 0.  1.
         11    1    3    3    0    0 -0.86163302409E+01 -0.32750212494E+01 -0.73088053297E+01  0.11763738632E+02  0.51100000000E-03 0. -1.
        -11    1    3    3    0    0 -0.12977253138E+01  0.18142948749E+00  0.66675313353E+00  0.14702270747E+01  0.51100000000E-03 0.  1.
         12    1    3    3    0    0 -0.27834027921E+02 -0.16266108006E+01 -0.17480867752E+02  0.32908353200E+02  0.00000000000E+00 0. -1.
</event>
<event>
 7    1  0.1538805E-008  0.4614232E+02  0.7816164E-02  0.1320468E+00
        -11   -1    0    0    0    0  0.00000000000E+00  0.00000000000E+00  0.45593999997E+02  0.45594000000E+02  0.51100000000E-03 0.  1.
         11   -1    0    0    0    0 -0.00000000000E+00 -0.00000000000E+00 -0.45593999997E+02  0.45594000000E+02  0.51100000000E-03 0. -1.
    9900012    2    1    2    0    0  0.32947928400E+02  0.29701927089E+02  0.78321869132E+01  0.46142316406E+02  0.99999876386E+01 0.  0.
        -12    1    1    2    0    0 -0.32947928400E+02 -0.29701927089E+02 -0.78321869132E+01  0.45045683594E+02  0.00000000000E+00 0.  1.
         11    1    3    3    0    0  0.60248534989E+01  0.28817386186E+01 -0.73894178703E+00  0.67193238034E+01  0.51100000000E-03 0.  1.
        -11    1    3    3    0    0  0.85089663275E+01  0.70962364882E+01  0.51679217545E+01  0.12225649094E+02  0.51100000000E-03 0. -1.
         12    1    3    3    0    0  0.18414108573E+02  0.19723951983E+02  0.34032069457E+01  0.27197343508E+02  0.00000000000E+00 0. -1.
</event>
<event>
 7    1  0.1538805E-008  0.4614232E+02  0.7816164E-02  0.1320468E+00
        -11   -1    0    0    0    0  0.00000000000E+00  0.00000000000E+00  0.45593999997E+02  0.45594000000E+02  0.51100000000E-03 0.  1.
         11   -1    0    0    0    0 -0.00000000000E+00 -0.00000000000E+00 -0.45593999997E+02  0.45594000000E+02  0.51100000000E-03 0. -1.
    9900012    2    1    2    0    0  0.77602385203E+01 -0.37251157254E+02  0.24108991236E+02  0.46142317886E+02  0.10000001142E+02 0.  0.
        -12    1    1    2    0    0 -0.77602385203E+01  0.37251157254E+02 -0.24108991236E+02  0.45045682114E+02  0.00000000000E+00 0.  1.
         11    1    3    3    0    0  0.31909235765E+01 -0.13057274859E+02  0.73867004129E+01  0.15337462739E+02  0.51100000000E-03 0. -1.
        -11    1    3    3    0    0  0.43353393291E+01 -0.14854296976E+02  0.14490368500E+02  0.21199435966E+02  0.51100000000E-03 0.  1.
        -12    1    3    3    0    0  0.23397561471E+00 -0.93395854197E+01  0.22319223226E+01  0.96054191816E+01  0.00000000000E+00 0.  1.
</event>
<event>
 7    1  0.1538805E-008  0.4614232E+02  0.7816164E-02  0.1320468E+00
        -11   -1    0    0    0    0  0.00000000000E+00  0.00000000000E+00  0.45593999997E+02  0.45594000000E+02  0.51100000000E-03 0.  1.
         11   -1    0    0    0    0 -0.00000000000E+00 -0.00000000000E+00 -0.45593999997E+02  0.45594000000E+02  0.51100000000E-03 0. -1.
    9900012    2    1    2    0    0 -0.40230656862E+02 -0.87691477240E+01 -0.18267723962E+02  0.46142318274E+02  0.10000004681E+02 0.  0.
        -12    1    1    2    0    0  0.40230656862E+02  0.87691477240E+01  0.18267723962E+02  0.45045681726E+02  0.00000000000E+00 0.  1.
         11    1    3    3    0    0 -0.12986058831E+02 -0.63841482145E+01 -0.38735084875E+01  0.14979957966E+02  0.51100000000E-03 0. -1.
        -11    1    3    3    0    0 -0.19675932746E+02 -0.33235092354E+01 -0.11299301415E+02  0.22931686719E+02  0.51100000000E-03 0.  1.
         12    1    3    3    0    0 -0.75686652844E+01  0.93850972591E+00 -0.30949140604E+01  0.82306735893E+01  0.00000000000E+00 0. -1.
</event>
<event>
 7    1  0.1538805E-008  0.4614231E+02  0.7816164E-02  0.1320468E+00
        -11   -1    0    0    0    0  0.00000000000E+00  0.00000000000E+00  0.45593999997E+02  0.45594000000E+02  0.51100000000E-03 0.  1.
         11   -1    0    0    0    0 -0.00000000000E+00 -0.00000000000E+00 -0.45593999997E+02  0.45594000000E+02  0.51100000000E-03 0. -1.
    9900012    2    1    2    0    0 -0.88111633027E+01  0.40326589649E+01 -0.43991077604E+02  0.46142313793E+02  0.99999638187E+01 0.  0.
        -12    1    1    2    0    0  0.88111633027E+01 -0.40326589649E+01  0.43991077604E+02  0.45045686207E+02  0.00000000000E+00 0.  1.
         11    1    3    3    0    0 -0.85988654718E+01  0.48109135977E+01 -0.38983939101E+02  0.40209860546E+02  0.51100000000E-03 0. -1.
        -11    1    3    3    0    0  0.33744866698E+00 -0.18985627355E+01 -0.28699939435E+01  0.34576404614E+01  0.51100000000E-03 0.  1.
         12    1    3    3    0    0 -0.54974649783E+00  0.11203081028E+01 -0.21371445594E+01  0.24748127858E+01  0.00000000000E+00 0. -1.
</event>
<event>
 7    1  0.1538805E-008  0.4614232E+02  0.7816164E-02  0.1320468E+00
        -11   -1    0    0    0    0  0.00000000000E+00  0.00000000000E+00  0.45593999997E+02  0.45594000000E+02  0.51100000000E-03 0. -1.
         11   -1    0    0    0    0 -0.00000000000E+00 -0.00000000000E+00 -0.45593999997E+02  0.45594000000E+02  0.51100000000E-03 0.  1.
    9900012    2    1    2    0    0  0.10765038191E+02  0.26224226711E+02  0.35007386344E+02  0.46142320824E+02  0.10000027926E+02 0.  0.
        -12    1    1    2    0    0 -0.10765038191E+02 -0.26224226711E+02 -0.35007386344E+02  0.45045679176E+02  0.00000000000E+00 0.  1.
         11    1    3    3    0    0  0.36398766426E+01  0.92059956019E+01  0.12280605878E+02  0.15773786419E+02  0.51100000000E-03 0. -1.
        -11    1    3    3    0    0  0.14544863012E+01  0.76544588188E+01  0.42053462867E+01  0.88538809491E+01  0.51100000000E-03 0.  1.
        -12    1    3    3    0    0  0.56706752468E+01  0.93637722906E+01  0.18521434179E+02  0.21514653455E+02  0.00000000000E+00 0.  1.
</event>
<event>
 7    1  0.1538805E-008  0.4614232E+02  0.7816164E-02  0.1320468E+00
        -11   -1    0    0    0    0  0.00000000000E+00  0.00000000000E+00  0.45593999997E+02  0.45594000000E+02  0.51100000000E-03 0.  1.
         11   -1    0    0    0    0 -0.00000000000E+00 -0.00000000000E+00 -0.45593999997E+02  0.45594000000E+02  0.51100000000E-03 0. -1.
    9900012    2    1    2    0    0 -0.44127812192E+02  0.46008992362E+01  0.77898264229E+01  0.46142317873E+02  0.10000001017E+02 0.  0.
        -12    1    1    2    0    0  0.44127812192E+02 -0.46008992362E+01 -0.77898264229E+01  0.45045682127E+02  0.00000000000E+00 0.  1.
         11    1    3    3    0    0 -0.35710616676E+02  0.18782653059E+01  0.89548499000E+01  0.36864147364E+02  0.51100000000E-03 0. -1.
        -11    1    3    3    0    0 -0.30037376755E+01  0.19243959638E+01 -0.13207517886E+01  0.38039618028E+01  0.51100000000E-03 0.  1.
         12    1    3    3    0    0 -0.54134578406E+01  0.79823796644E+00  0.15572831156E+00  0.54742087054E+01  0.00000000000E+00 0. -1.
</event>
<event>
 7    1  0.1538805E-008  0.4614231E+02  0.7816164E-02  0.1320468E+00
        -11   -1    0    0    0    0  0.00000000000E+00  0.00000000000E+00  0.45593999997E+02  0.45594000000E+02  0.51100000000E-03 0.  1.
         11   -1    0    0    0    0 -0.00000000000E+00 -0.00000000000E+00 -0.45593999997E+02  0.45594000000E+02  0.51100000000E-03 0. -1.
    9900012    2    1    2    0    0  0.17657732589E+02  0.83683749702E+01 -0.40586802763E+02  0.46142314542E+02  0.99999706483E+01 0.  0.
        -12    1    1    2    0    0 -0.17657732589E+02 -0.83683749702E+01  0.40586802763E+02  0.45045685458E+02  0.00000000000E+00 0.  1.
         11    1    3    3    0    0  0.10535455272E+02  0.15863438722E+01 -0.17019724970E+02  0.20079425863E+02  0.51100000000E-03 0. -1.
        -11    1    3    3    0    0  0.43209898180E+01  0.51401929687E+01 -0.20591225740E+02  0.21658511364E+02  0.51100000000E-03 0.  1.
         12    1    3    3    0    0  0.28012874996E+01  0.16418381293E+01 -0.29758520529E+01  0.44043773157E+01  0.00000000000E+00 0. -1.
</event>
<event>
 7    1  0.1538805E-008  0.4614232E+02  0.7816164E-02  0.1320468E+00
        -11   -1    0    0    0    0  0.00000000000E+00  0.00000000000E+00  0.45593999997E+02  0.45594000000E+02  0.51100000000E-03 0. -1.
         11   -1    0    0    0    0 -0.00000000000E+00 -0.00000000000E+00 -0.45593999997E+02  0.45594000000E+02  0.51100000000E-03 0.  1.
    9900012    2    1    2    0    0 -0.17534971791E+02 -0.37052159758E+02  0.18675535658E+02  0.46142318625E+02  0.10000007874E+02 0.  0.
        -12    1    1    2    0    0  0.17534971791E+02  0.37052159758E+02 -0.18675535658E+02  0.45045681375E+02  0.00000000000E+00 0.  1.
         11    1    3    3    0    0 -0.10796023694E+02 -0.21197075809E+02  0.10641198996E+02  0.26059648248E+02  0.51100000000E-03 0. -1.
        -11    1    3    3    0    0 -0.53264601510E+01 -0.65670536580E+01  0.13741008455E+01  0.85665351737E+01  0.51100000000E-03 0.  1.
         12    1    3    3    0    0 -0.14124879457E+01 -0.92880302911E+01  0.66602358164E+01  0.11516135203E+02  0.00000000000E+00 0. -1.
</event>
<event>
 7    1  0.1538805E-008  0.4614232E+02  0.7816164E-02  0.1320468E+00
        -11   -1    0    0    0    0  0.00000000000E+00  0.00000000000E+00  0.45593999997E+02  0.45594000000E+02  0.51100000000E-03 0. -1.
         11   -1    0    0    0    0 -0.00000000000E+00 -0.00000000000E+00 -0.45593999997E+02  0.45594000000E+02  0.51100000000E-03 0.  1.
    9900012    2    1    2    0    0 -0.42223135425E+02 -0.11382183340E+02  0.10805840381E+02  0.46142318197E+02  0.10000003976E+02 0.  0.
        -12    1    1    2    0    0  0.42223135425E+02  0.11382183340E+02 -0.10805840381E+02  0.45045681803E+02  0.00000000000E+00 0.  1.
         11    1    3    3    0    0 -0.62738497455E+01 -0.98199011732E+00 -0.13113432546E+01  0.64842205864E+01  0.51100000000E-03 0.  1.
        -11    1    3    3    0    0 -0.28885067809E+02 -0.92372110052E+01  0.78579804006E+01  0.31327640603E+02  0.51100000000E-03 0. -1.
         12    1    3    3    0    0 -0.70642178704E+01 -0.11629822176E+01  0.42592032351E+01  0.83304570077E+01  0.00000000000E+00 0. -1.
</event>
<event>
 7    1  0.1538805E-008  0.4614232E+02  0.7816164E-02  0.1320468E+00
        -11   -1    0    0    0    0  0.00000000000E+00  0.00000000000E+00  0.45593999997E+02  0.45594000000E+02  0.51100000000E-03 0.  1.
         11   -1    0    0    0    0 -0.00000000000E+00 -0.00000000000E+00 -0.45593999997E+02  0.45594000000E+02  0.51100000000E-03 0. -1.
    9900012    2    1    2    0    0  0.39657725813E+01 -0.32142757509E+02 -0.31308613690E+02  0.46142317591E+02  0.99999984511E+01 0.  0.
        -12    1    1    2    0    0 -0.39657725813E+01  0.32142757509E+02  0.31308613690E+02  0.45045682409E+02  0.00000000000E+00 0.  1.
         11    1    3    3    0    0 -0.32884574740E+00 -0.10995221523E+02 -0.69653194924E+01  0.13019935167E+02  0.51100000000E-03 0. -1.
        -11    1    3    3    0    0  0.55751331217E+01 -0.19844846014E+02 -0.21947921151E+02  0.30109986146E+02  0.51100000000E-03 0.  1.
        -12    1    3    3    0    0 -0.12805147930E+01 -0.13026899727E+01 -0.23953730470E+01  0.30123962778E+01  0.00000000000E+00 0.  1.
</event>
<event>
 7    1  0.1538805E-008  0.4614232E+02  0.7816164E-02  0.1320468E+00
        -11   -1    0    0    0    0  0.00000000000E+00  0.00000000000E+00  0.45593999997E+02  0.45594000000E+02  0.51100000000E-03 0.  1.
         11   -1    0    0    0    0 -0.00000000000E+00 -0.00000000000E+00 -0.45593999997E+02  0.45594000000E+02  0.51100000000E-03 0. -1.
    9900012    2    1    2    0    0  0.36649707449E+02 -0.25690630497E+02 -0.50895851654E+01  0.46142318425E+02  0.10000006049E+02 0.  0.
        -12    1    1    2    0    0 -0.36649707449E+02  0.25690630497E+02  0.50895851654E+01  0.45045681575E+02  0.00000000000E+00 0.  1.
         11    1    3    3    0    0  0.93657010916E+00 -0.11845395600E+00 -0.16195148036E+01  0.18745728498E+01  0.51100000000E-03 0.  1.
        -11    1    3    3    0    0  0.17930328955E+02 -0.11045374019E+02 -0.99367312184E-01  0.21059602508E+02  0.51100000000E-03 0. -1.
        -12    1    3    3    0    0  0.17782808384E+02 -0.14526802522E+02 -0.33707030496E+01  0.23208143067E+02  0.00000000000E+00 0.  1.
</event>
<event>
 7    1  0.1538805E-008  0.4614232E+02  0.7816164E-02  0.1320468E+00
        -11   -1    0    0    0    0  0.00000000000E+00  0.00000000000E+00  0.45593999997E+02  0.45594000000E+02  0.51100000000E-03 0. -1.
         11   -1    0    0    0    0 -0.00000000000E+00 -0.00000000000E+00 -0.45593999997E+02  0.45594000000E+02  0.51100000000E-03 0.  1.
    9900012    2    1    2    0    0 -0.39033563918E+02 -0.86614860889E+01  0.20747847247E+02  0.46142316313E+02  0.99999867941E+01 0.  0.
        -12    1    1    2    0    0  0.39033563918E+02  0.86614860889E+01 -0.20747847247E+02  0.45045683687E+02  0.00000000000E+00 0.  1.
         11    1    3    3    0    0 -0.59878217722E+01 -0.36582157257E+01  0.27916935737E+01  0.75518279338E+01  0.51100000000E-03 0. -1.
        -11    1    3    3    0    0 -0.66452305456E+01  0.13966101799E+01  0.19690572351E+01  0.70701340621E+01  0.51100000000E-03 0.  1.
         12    1    3    3    0    0 -0.26400511601E+02 -0.63998805431E+01  0.15987096438E+02  0.31520354317E+02  0.00000000000E+00 0. -1.
</event>
<event>
 7    1  0.1538805E-008  0.4614232E+02  0.7816164E-02  0.1320468E+00
        -11   -1    0    0    0    0  0.00000000000E+00  0.00000000000E+00  0.45593999997E+02  0.45594000000E+02  0.51100000000E-03 0.  1.
         11   -1    0    0    0    0 -0.00000000000E+00 -0.00000000000E+00 -0.45593999997E+02  0.45594000000E+02  0.51100000000E-03 0. -1.
    9900012    2    1    2    0    0 -0.18915467428E+01 -0.23239255697E+00 -0.45005350296E+02  0.46142317513E+02  0.99999977406E+01 0.  0.
        -12    1    1    2    0    0  0.18915467428E+01  0.23239255697E+00  0.45005350296E+02  0.45045682487E+02  0.00000000000E+00 0.  1.
         11    1    3    3    0    0  0.88106224612E+00  0.90699536096E+00 -0.20584637614E+02  0.20623438540E+02  0.51100000000E-03 0. -1.
        -11    1    3    3    0    0 -0.20299783886E+01 -0.39532532659E+01 -0.16188998357E+02  0.16787873353E+02  0.51100000000E-03 0.  1.
        -12    1    3    3    0    0 -0.74263060030E+00  0.28138653480E+01 -0.82317143255E+01  0.87310056203E+01  0.00000000000E+00 0.  1.
</event>
<event>
 7    1  0.1538805E-008  0.4614232E+02  0.7816164E-02  0.1320468E+00
        -11   -1    0    0    0    0  0.00000000000E+00  0.00000000000E+00  0.45593999997E+02  0.45594000000E+02  0.51100000000E-03 0.  1.
         11   -1    0    0    0    0 -0.00000000000E+00 -0.00000000000E+00 -0.45593999997E+02  0.45594000000E+02  0.51100000000E-03 0. -1.
    9900012    2    1    2    0    0 -0.22687622438E+02 -0.27527573362E+02 -0.27506688501E+02  0.46142318527E+02  0.10000006985E+02 0.  0.
        -12    1    1    2    0    0  0.22687622438E+02  0.27527573362E+02  0.27506688501E+02  0.45045681473E+02  0.00000000000E+00 0.  1.
         11    1    3    3    0    0 -0.90029446516E+01 -0.87965745971E+01 -0.71415283264E+01  0.14471840385E+02  0.51100000000E-03 0. -1.
        -11    1    3    3    0    0  0.58128362585E-01  0.32224289497E+00 -0.15161803279E+01  0.15511358541E+01  0.51100000000E-03 0.  1.
        -12    1    3    3    0    0 -0.13742806149E+02 -0.19053241660E+02 -0.18848979847E+02  0.30119342288E+02  0.00000000000E+00 0.  1.
</event>
<event>
 7    1  0.1538805E-008  0.4614232E+02  0.7816164E-02  0.1320468E+00
        -11   -1    0    0    0    0  0.00000000000E+00  0.00000000000E+00  0.45593999997E+02  0.45594000000E+02  0.51100000000E-03 0. -1.
         11   -1    0    0    0    0 -0.00000000000E+00 -0.00000000000E+00 -0.45593999997E+02  0.45594000000E+02  0.51100000000E-03 0.  1.
    9900012    2    1    2    0    0  0.79322527000E+01 -0.43634154995E+02  0.78900797425E+01  0.46142317928E+02  0.10000001518E+02 0.  0.
        -12    1    1    2    0    0 -0.79322527000E+01  0.43634154995E+02 -0.78900797425E+01  0.45045682072E+02  0.00000000000E+00 0.  1.
         11    1    3    3    0    0  0.27070761758E+01 -0.13278860641E+02  0.38163353734E+01  0.14079091493E+02  0.51100000000E-03 0. -1.
        -11    1    3    3    0    0 -0.16773850459E+01 -0.92941492217E+01 -0.40011350924E+00  0.94527732136E+01  0.51100000000E-03 0.  1.
        -12    1    3    3    0    0  0.69025615701E+01 -0.21061145133E+02  0.44738578784E+01  0.22610453221E+02  0.00000000000E+00 0.  1.
</event>
<event>
 7    1  0.1538805E-008  0.4614232E+02  0.7816164E-02  0.1320468E+00
        -11   -1    0    0    0    0  0.00000000000E+00  0.00000000000E+00  0.45593999997E+02  0.45594000000E+02  0.51100000000E-03 0. -1.
         11   -1    0    0    0    0 -0.00000000000E+00 -0.00000000000E+00 -0.45593999997E+02  0.45594000000E+02  0.51100000000E-03 0.  1.
    9900012    2    1    2    0    0 -0.28325466464E+02  0.34071359259E+02  0.81193587716E+01  0.46142316977E+02  0.99999928530E+01 0.  0.
        -12    1    1    2    0    0  0.28325466464E+02 -0.34071359259E+02 -0.81193587716E+01  0.45045683023E+02  0.00000000000E+00 0.  1.
         11    1    3    3    0    0 -0.16790888394E+02  0.23703732485E+02  0.55739075065E+01  0.29578189801E+02  0.51100000000E-03 0. -1.
        -11    1    3    3    0    0  0.52318905397E+00  0.48385236311E+00  0.42465841036E+00  0.82956309108E+00  0.51100000000E-03 0.  1.
         12    1    3    3    0    0 -0.12057767124E+02  0.98837744108E+01  0.21207928547E+01  0.15734564085E+02  0.00000000000E+00 0. -1.
</event>
<event>
 7    1  0.1538805E-008  0.4614232E+02  0.7816164E-02  0.1320468E+00
        -11   -1    0    0    0    0  0.00000000000E+00  0.00000000000E+00  0.45593999997E+02  0.45594000000E+02  0.51100000000E-03 0. -1.
         11   -1    0    0    0    0 -0.00000000000E+00 -0.00000000000E+00 -0.45593999997E+02  0.45594000000E+02  0.51100000000E-03 0.  1.
    9900012    2    1    2    0    0 -0.38581335652E+02  0.14332197640E+02  0.18307979397E+02  0.46142318082E+02  0.10000002922E+02 0.  0.
        -12    1    1    2    0    0  0.38581335652E+02 -0.14332197640E+02 -0.18307979397E+02  0.45045681918E+02  0.00000000000E+00 0.  1.
         11    1    3    3    0    0 -0.39375936816E+00  0.12311420552E+01 -0.45020499029E+00  0.13687373724E+01  0.51100000000E-03 0. -1.
        -11    1    3    3    0    0 -0.57955074770E+01  0.34730951093E+00  0.20298559724E+01  0.61505159412E+01  0.51100000000E-03 0.  1.
         12    1    3    3    0    0 -0.32392068807E+02  0.12753746074E+02  0.16728328415E+02  0.38623064768E+02  0.00000000000E+00 0. -1.
</event>
<event>
 7    1  0.1538805E-008  0.4614232E+02  0.7816164E-02  0.1320468E+00
        -11   -1    0    0    0    0  0.00000000000E+00  0.00000000000E+00  0.45593999997E+02  0.45594000000E+02  0.51100000000E-03 0.  1.
         11   -1    0    0    0    0 -0.00000000000E+00 -0.00000000000E+00 -0.45593999997E+02  0.45594000000E+02  0.51100000000E-03 0. -1.
    9900012    2    1    2    0    0 -0.21014313876E+02  0.24021516843E+02 -0.31788024196E+02  0.46142321613E+02  0.10000035122E+02 0.  0.
        -12    1    1    2    0    0  0.21014313876E+02 -0.24021516843E+02  0.31788024196E+02  0.45045678387E+02  0.00000000000E+00 0.  1.
         11    1    3    3    0    0 -0.27179396257E+01  0.28966604879E+01 -0.39989316532E+01  0.56364255002E+01  0.51100000000E-03 0.  1.
        -11    1    3    3    0    0 -0.14238545230E+02  0.20858719016E+02 -0.22422671823E+02  0.33772748499E+02  0.51100000000E-03 0. -1.
        -12    1    3    3    0    0 -0.40578290208E+01  0.26613733871E+00 -0.53664207195E+01  0.67331476134E+01  0.00000000000E+00 0.  1.
</event>
<event>
 7    1  0.1538805E-008  0.4614232E+02  0.7816164E-02  0.1320468E+00
        -11   -1    0    0    0    0  0.00000000000E+00  0.00000000000E+00  0.45593999997E+02  0.45594000000E+02  0.51100000000E-03 0.  1.
         11   -1    0    0    0    0 -0.00000000000E+00 -0.00000000000E+00 -0.45593999997E+02  0.45594000000E+02  0.51100000000E-03 0. -1.
    9900012    2    1    2    0    0  0.12806415459E+02 -0.13107045968E+02 -0.41149901540E+02  0.46142319545E+02  0.10000016269E+02 0.  0.
        -12    1    1    2    0    0 -0.12806415459E+02  0.13107045968E+02  0.41149901540E+02  0.45045680455E+02  0.00000000000E+00 0.  1.
         11    1    3    3    0    0  0.36453649616E+00 -0.50691989231E-01 -0.75066297133E+01  0.75156467751E+01  0.51100000000E-03 0. -1.
        -11    1    3    3    0    0  0.31769392203E+01 -0.28967402434E+00 -0.51349089377E+01  0.60451752588E+01  0.51100000000E-03 0.  1.
         12    1    3    3    0    0  0.92649397421E+01 -0.12766679955E+02 -0.28508362889E+02  0.32581497511E+02  0.00000000000E+00 0. -1.
</event>
<event>
 7    1  0.1538805E-008  0.4614232E+02  0.7816164E-02  0.1320468E+00
        -11   -1    0    0    0    0  0.00000000000E+00  0.00000000000E+00  0.45593999997E+02  0.45594000000E+02  0.51100000000E-03 0. -1.
         11   -1    0    0    0    0 -0.00000000000E+00 -0.00000000000E+00 -0.45593999997E+02  0.45594000000E+02  0.51100000000E-03 0.  1.
    9900012    2    1    2    0    0 -0.41602676493E+02 -0.12132041594E+02  0.12294077654E+02  0.46142317965E+02  0.10000001859E+02 0.  0.
        -12    1    1    2    0    0  0.41602676493E+02  0.12132041594E+02 -0.12294077654E+02  0.45045682035E+02  0.00000000000E+00 0.  1.
         11    1    3    3    0    0 -0.28323902900E+02 -0.53653381597E+01  0.95484300983E+01  0.30367792917E+02  0.51100000000E-03 0. -1.
        -11    1    3    3    0    0 -0.17500308411E+01  0.18280996026E+00  0.13952788729E+01  0.22456248174E+01  0.51100000000E-03 0.  1.
         12    1    3    3    0    0 -0.11528742752E+02 -0.69495133944E+01  0.13503686824E+01  0.13528900231E+02  0.00000000000E+00 0. -1.
</event>
<event>
 7    1  0.1538805E-008  0.4614232E+02  0.7816164E-02  0.1320468E+00
        -11   -1    0    0    0    0  0.00000000000E+00  0.00000000000E+00  0.45593999997E+02  0.45594000000E+02  0.51100000000E-03 0.  1.
         11   -1    0    0    0    0 -0.00000000000E+00 -0.00000000000E+00 -0.45593999997E+02  0.45594000000E+02  0.51100000000E-03 0. -1.
    9900012    2    1    2    0    0 -0.42117093463E+02 -0.78353375109E+00 -0.15957756614E+02  0.46142317821E+02  0.10000000542E+02 0.  0.
        -12    1    1    2    0    0  0.42117093463E+02  0.78353375109E+00  0.15957756614E+02  0.45045682179E+02  0.00000000000E+00 0.  1.
         11    1    3    3    0    0 -0.61269982539E+01 -0.22980727508E+01 -0.46595686838E+01  0.80332326340E+01  0.51100000000E-03 0. -1.
        -11    1    3    3    0    0 -0.10176541365E+02  0.24439659579E+01 -0.19937683367E+01  0.10654110765E+02  0.51100000000E-03 0.  1.
         12    1    3    3    0    0 -0.25813553843E+02 -0.92942695816E+00 -0.93044195932E+01  0.27454974421E+02  0.00000000000E+00 0. -1.
</event>
<event>
 7    1  0.1538805E-008  0.4614232E+02  0.7816164E-02  0.1320468E+00
        -11   -1    0    0    0    0  0.00000000000E+00  0.00000000000E+00  0.45593999997E+02  0.45594000000E+02  0.51100000000E-03 0.  1.
         11   -1    0    0    0    0 -0.00000000000E+00 -0.00000000000E+00 -0.45593999997E+02  0.45594000000E+02  0.51100000000E-03 0. -1.
    9900012    2    1    2    0    0  0.16239609745E+02  0.17794858511E+02 -0.38062208863E+02  0.46142315882E+02  0.99999828683E+01 0.  0.
        -12    1    1    2    0    0 -0.16239609745E+02 -0.17794858511E+02  0.38062208863E+02  0.45045684118E+02  0.00000000000E+00 0.  1.
         11    1    3    3    0    0  0.60149499415E+01  0.58181711540E+01 -0.94650343765E+01  0.12633986480E+02  0.51100000000E-03 0. -1.
        -11    1    3    3    0    0  0.82952028385E+01  0.44658388980E+01 -0.12619393937E+02  0.15748117691E+02  0.51100000000E-03 0.  1.
         12    1    3    3    0    0  0.19294569650E+01  0.75108484585E+01 -0.15977780549E+02  0.17760211711E+02  0.00000000000E+00 0. -1.
</event>
<event>
 7    1  0.1538805E-008  0.4614232E+02  0.7816164E-02  0.1320468E+00
        -11   -1    0    0    0    0  0.00000000000E+00  0.00000000000E+00  0.45593999997E+02  0.45594000000E+02  0.51100000000E-03 0.  1.
         11   -1    0    0    0    0 -0.00000000000E+00 -0.00000000000E+00 -0.45593999997E+02  0.45594000000E+02  0.51100000000E-03 0. -1.
    9900012    2    1    2    0    0 -0.16472051434E+00  0.14509224841E+02 -0.42644679712E+02  0.46142318230E+02  0.10000004279E+02 0.  0.
        -12    1    1    2    0    0  0.16472051434E+00 -0.14509224841E+02  0.42644679712E+02  0.45045681770E+02  0.00000000000E+00 0.  1.
         11    1    3    3    0    0  0.21137100461E+00  0.55048004299E+01 -0.94180126116E+01  0.10910841731E+02  0.51100000000E-03 0.  1.
        -11    1    3    3    0    0  0.33195727378E+01  0.49113787310E+01 -0.20961365590E+02  0.21783481169E+02  0.51100000000E-03 0. -1.
        -12    1    3    3    0    0 -0.36956642567E+01  0.40930456799E+01 -0.12265301511E+02  0.13447995330E+02  0.00000000000E+00 0.  1.
</event>
<event>
 7    1  0.1538805E-008  0.4614232E+02  0.7816164E-02  0.1320468E+00
        -11   -1    0    0    0    0  0.00000000000E+00  0.00000000000E+00  0.45593999997E+02  0.45594000000E+02  0.51100000000E-03 0.  1.
         11   -1    0    0    0    0 -0.00000000000E+00 -0.00000000000E+00 -0.45593999997E+02  0.45594000000E+02  0.51100000000E-03 0. -1.
    9900012    2    1    2    0    0  0.10282719970E+02  0.24054884343E+02 -0.36670720056E+02  0.46142317630E+02  0.99999988021E+01 0.  0.
        -12    1    1    2    0    0 -0.10282719970E+02 -0.24054884343E+02  0.36670720056E+02  0.45045682370E+02  0.00000000000E+00 0.  1.
         11    1    3    3    0    0  0.44491666607E+01  0.96670971530E+01 -0.13322553219E+02  0.17051049113E+02  0.51100000000E-03 0.  1.
        -11    1    3    3    0    0  0.51048292482E+01  0.11987262714E+02 -0.23162812916E+02  0.26575734260E+02  0.51100000000E-03 0. -1.
        -12    1    3    3    0    0  0.72872406123E+00  0.24005244759E+01 -0.18535392164E+00  0.25155342560E+01  0.00000000000E+00 0.  1.
</event>
<event>
 7    1  0.1538805E-008  0.4614232E+02  0.7816164E-02  0.1320468E+00
        -11   -1    0    0    0    0  0.00000000000E+00  0.00000000000E+00  0.45593999997E+02  0.45594000000E+02  0.51100000000E-03 0.  1.
         11   -1    0    0    0    0 -0.00000000000E+00 -0.00000000000E+00 -0.45593999997E+02  0.45594000000E+02  0.51100000000E-03 0. -1.
    9900012    2    1    2    0    0 -0.30187328476E+02 -0.32090470641E+02  0.93829815363E+01  0.46142318198E+02  0.10000003987E+02 0.  0.
        -12    1    1    2    0    0  0.30187328476E+02  0.32090470641E+02 -0.93829815363E+01  0.45045681802E+02  0.00000000000E+00 0.  1.
         11    1    3    3    0    0 -0.83574057008E+01 -0.13606224251E+02  0.24083465088E+01  0.16148551067E+02  0.51100000000E-03 0. -1.
        -11    1    3    3    0    0 -0.42467881000E+01 -0.28626112389E+01 -0.88018573195E+00  0.51965834406E+01  0.51100000000E-03 0.  1.
         12    1    3    3    0    0 -0.17583134675E+02 -0.15621635151E+02  0.78548207595E+01  0.24797183690E+02  0.00000000000E+00 0. -1.
</event>
<event>
 7    1  0.1538805E-008  0.4614230E+02  0.7816164E-02  0.1320468E+00
        -11   -1    0    0    0    0  0.00000000000E+00  0.00000000000E+00  0.45593999997E+02  0.45594000000E+02  0.51100000000E-03 0.  1.
         11   -1    0    0    0    0 -0.00000000000E+00 -0.00000000000E+00 -0.45593999997E+02  0.45594000000E+02  0.51100000000E-03 0. -1.
    9900012    2    1    2    0    0  0.15474646108E+01  0.25205498360E+02 -0.37301514194E+02  0.46142303696E+02  0.99998717442E+01 0.  0.
        -12    1    1    2    0    0 -0.15474646108E+01 -0.25205498360E+02  0.37301514194E+02  0.45045696304E+02  0.00000000000E+00 0.  1.
         11    1    3    3    0    0  0.31601336531E+01  0.85643905967E+01 -0.11548695194E+02  0.14720991541E+02  0.51100000000E-03 0. -1.
        -11    1    3    3    0    0 -0.41014697443E+01  0.77589063359E+01 -0.12323054028E+02  0.15128791836E+02  0.51100000000E-03 0.  1.
        -12    1    3    3    0    0  0.24888007019E+01  0.88822014277E+01 -0.13429764972E+02  0.16292520319E+02  0.00000000000E+00 0.  1.
</event>
<event>
 7    1  0.1538805E-008  0.4614232E+02  0.7816164E-02  0.1320468E+00
        -11   -1    0    0    0    0  0.00000000000E+00  0.00000000000E+00  0.45593999997E+02  0.45594000000E+02  0.51100000000E-03 0.  1.
         11   -1    0    0    0    0 -0.00000000000E+00 -0.00000000000E+00 -0.45593999997E+02  0.45594000000E+02  0.51100000000E-03 0. -1.
    9900012    2    1    2    0    0  0.31601456537E+02 -0.26588876684E+02 -0.17985915054E+02  0.46142316978E+02  0.99999928590E+01 0.  0.
        -12    1    1    2    0    0 -0.31601456537E+02  0.26588876684E+02  0.17985915054E+02  0.45045683022E+02  0.00000000000E+00 0.  1.
         11    1    3    3    0    0  0.23879678457E+02 -0.18880996455E+02 -0.13913931032E+02  0.33471309317E+02  0.51100000000E-03 0. -1.
        -11    1    3    3    0    0  0.22848272644E-01  0.60334292259E+00 -0.52349539295E+00  0.79911977410E+00  0.51100000000E-03 0.  1.
        -12    1    3    3    0    0  0.76989298075E+01 -0.83112231514E+01 -0.35484886284E+01  0.11871887887E+02  0.00000000000E+00 0.  1.
</event>
<event>
 7    1  0.1538805E-008  0.4614232E+02  0.7816164E-02  0.1320468E+00
        -11   -1    0    0    0    0  0.00000000000E+00  0.00000000000E+00  0.45593999997E+02  0.45594000000E+02  0.51100000000E-03 0. -1.
         11   -1    0    0    0    0 -0.00000000000E+00 -0.00000000000E+00 -0.45593999997E+02  0.45594000000E+02  0.51100000000E-03 0.  1.
    9900012    2    1    2    0    0  0.40418257938E+02  0.18855812339E+02 -0.63195111296E+01  0.46142318135E+02  0.10000003414E+02 0.  0.
        -12    1    1    2    0    0 -0.40418257938E+02 -0.18855812339E+02  0.63195111296E+01  0.45045681865E+02  0.00000000000E+00 0.  1.
         11    1    3    3    0    0  0.88090989208E+01  0.81123717402E+01  0.49033645717E+00  0.11985459071E+02  0.51100000000E-03 0. -1.
        -11    1    3    3    0    0  0.29066090312E+02  0.91597385543E+01 -0.62162373241E+01  0.31102733371E+02  0.51100000000E-03 0.  1.
        -12    1    3    3    0    0  0.25430687052E+01  0.15837020443E+01 -0.59361026264E+00  0.30541256930E+01  0.00000000000E+00 0.  1.
</event>
<event>
 7    1  0.1538805E-008  0.4614232E+02  0.7816164E-02  0.1320468E+00
        -11   -1    0    0    0    0  0.00000000000E+00  0.00000000000E+00  0.45593999997E+02  0.45594000000E+02  0.51100000000E-03 0. -1.
         11   -1    0    0    0    0 -0.00000000000E+00 -0.00000000000E+00 -0.45593999997E+02  0.45594000000E+02  0.51100000000E-03 0.  1.
    9900012    2    1    2    0    0 -0.21952273122E+01 -0.94635141819E+01  0.43985637554E+02  0.46142318357E+02  0.10000005433E+02 0.  0.
        -12    1    1    2    0    0  0.21952273122E+01  0.94635141819E+01 -0.43985637554E+02  0.45045681643E+02  0.00000000000E+00 0.  1.
         11    1    3    3    0    0  0.19297798074E+00 -0.31297471283E+01  0.50268216123E+01  0.59246513291E+01  0.51100000000E-03 0. -1.
        -11    1    3    3    0    0 -0.12516263737E+01  0.15611207542E+01  0.72531440719E+01  0.75240790651E+01  0.51100000000E-03 0.  1.
        -12    1    3    3    0    0 -0.11365789192E+01 -0.78948878078E+01  0.31705671870E+02  0.32693587963E+02  0.00000000000E+00 0.  1.
</event>
<event>
 7    1  0.1538805E-008  0.4614232E+02  0.7816164E-02  0.1320468E+00
        -11   -1    0    0    0    0  0.00000000000E+00  0.00000000000E+00  0.45593999997E+02  0.45594000000E+02  0.51100000000E-03 0. -1.
         11   -1    0    0    0    0 -0.00000000000E+00 -0.00000000000E+00 -0.45593999997E+02  0.45594000000E+02  0.51100000000E-03 0.  1.
    9900012    2    1    2    0    0  0.22885786430E+02  0.25237075611E+02  0.29469379209E+02  0.46142317444E+02  0.99999971124E+01 0.  0.
        -12    1    1    2    0    0 -0.22885786430E+02 -0.25237075611E+02 -0.29469379209E+02  0.45045682556E+02  0.00000000000E+00 0.  1.
         11    1    3    3    0    0  0.81734442888E+01  0.85216338589E+01  0.57577916871E+01  0.13136803285E+02  0.51100000000E-03 0. -1.
        -11    1    3    3    0    0  0.63927863799E+01  0.47811224547E+01  0.11569300233E+02  0.14056157290E+02  0.51100000000E-03 0.  1.
        -12    1    3    3    0    0  0.83195557616E+01  0.11934319297E+02  0.12142287289E+02  0.18949356870E+02  0.00000000000E+00 0.  1.
</event>
<event>
 7    1  0.1538805E-008  0.4614232E+02  0.7816164E-02  0.1320468E+00
        -11   -1    0    0    0    0  0.00000000000E+00  0.00000000000E+00  0.45593999997E+02  0.45594000000E+02  0.51100000000E-03 0. -1.
         11   -1    0    0    0    0 -0.00000000000E+00 -0.00000000000E+00 -0.45593999997E+02  0.45594000000E+02  0.51100000000E-03 0.  1.
    9900012    2    1    2    0    0  0.94362707411E+01 -0.42091340696E+02 -0.12976495359E+02  0.46142316534E+02  0.99999888137E+01 0.  0.
        -12    1    1    2    0    0 -0.94362707411E+01  0.42091340696E+02  0.12976495359E+02  0.45045683466E+02  0.00000000000E+00 0.  1.
         11    1    3    3    0    0  0.81835304577E+01 -0.23381087969E+02 -0.81297223538E+01  0.26071782279E+02  0.51100000000E-03 0. -1.
        -11    1    3    3    0    0 -0.19340932278E+01 -0.43221404516E+01 -0.13656828478E+01  0.49281542792E+01  0.51100000000E-03 0.  1.
        -12    1    3    3    0    0  0.31868335112E+01 -0.14388112275E+02 -0.34810901574E+01  0.15142379976E+02  0.00000000000E+00 0.  1.
</event>
<event>
 7    1  0.1538805E-008  0.4614232E+02  0.7816164E-02  0.1320468E+00
        -11   -1    0    0    0    0  0.00000000000E+00  0.00000000000E+00  0.45593999997E+02  0.45594000000E+02  0.51100000000E-03 0.  1.
         11   -1    0    0    0    0 -0.00000000000E+00 -0.00000000000E+00 -0.45593999997E+02  0.45594000000E+02  0.51100000000E-03 0. -1.
    9900012    2    1    2    0    0 -0.37870259626E+02 -0.75237872351E+01 -0.23202350515E+02  0.46142323093E+02  0.10000048625E+02 0.  0.
        -12    1    1    2    0    0  0.37870259626E+02  0.75237872351E+01  0.23202350515E+02  0.45045676907E+02  0.00000000000E+00 0.  1.
         11    1    3    3    0    0 -0.18873858057E+02 -0.42180780577E+01 -0.10521096292E+02  0.22016088842E+02  0.51100000000E-03 0. -1.
        -11    1    3    3    0    0 -0.12118896122E+02 -0.42666624750E+01 -0.50408195250E+01  0.13801518527E+02  0.51100000000E-03 0.  1.
        -12    1    3    3    0    0 -0.68775054473E+01  0.96095329769E+00 -0.76404346984E+01  0.10324715725E+02  0.00000000000E+00 0.  1.
</event>
<event>
 7    1  0.1538805E-008  0.4614232E+02  0.7816164E-02  0.1320468E+00
        -11   -1    0    0    0    0  0.00000000000E+00  0.00000000000E+00  0.45593999997E+02  0.45594000000E+02  0.51100000000E-03 0.  1.
         11   -1    0    0    0    0 -0.00000000000E+00 -0.00000000000E+00 -0.45593999997E+02  0.45594000000E+02  0.51100000000E-03 0. -1.
    9900012    2    1    2    0    0 -0.17636476944E+02 -0.36701604882E+02 -0.19262927242E+02  0.46142317790E+02  0.10000000261E+02 0.  0.
        -12    1    1    2    0    0  0.17636476944E+02  0.36701604882E+02  0.19262927242E+02  0.45045682210E+02  0.00000000000E+00 0.  1.
         11    1    3    3    0    0 -0.88759243178E+01 -0.13480096205E+02 -0.82254593610E+01  0.18114999535E+02  0.51100000000E-03 0. -1.
        -11    1    3    3    0    0 -0.54500131315E+01 -0.55653598127E+01 -0.29965934678E+01  0.83459838037E+01  0.51100000000E-03 0.  1.
        -12    1    3    3    0    0 -0.33105394941E+01 -0.17656148864E+02 -0.80408744129E+01  0.19681334451E+02  0.00000000000E+00 0.  1.
</event>
<event>
 7    1  0.1538805E-008  0.4614232E+02  0.7816164E-02  0.1320468E+00
        -11   -1    0    0    0    0  0.00000000000E+00  0.00000000000E+00  0.45593999997E+02  0.45594000000E+02  0.51100000000E-03 0.  1.
         11   -1    0    0    0    0 -0.00000000000E+00 -0.00000000000E+00 -0.45593999997E+02  0.45594000000E+02  0.51100000000E-03 0. -1.
    9900012    2    1    2    0    0  0.13162774733E+02  0.39172994134E+02 -0.17925713444E+02  0.46142319734E+02  0.10000017994E+02 0.  0.
        -12    1    1    2    0    0 -0.13162774733E+02 -0.39172994134E+02  0.17925713444E+02  0.45045680266E+02  0.00000000000E+00 0.  1.
         11    1    3    3    0    0  0.56253075268E+01  0.17323893427E+02 -0.42510059468E+01  0.18703807636E+02  0.51100000000E-03 0. -1.
        -11    1    3    3    0    0  0.73728023971E+01  0.13483758228E+02 -0.79676204784E+01  0.17310486056E+02  0.51100000000E-03 0.  1.
        -12    1    3    3    0    0  0.16466480957E+00  0.83653424789E+01 -0.57070870190E+01  0.10128026043E+02  0.00000000000E+00 0.  1.
</event>
<event>
 7    1  0.1538805E-008  0.4614232E+02  0.7816164E-02  0.1320468E+00
        -11   -1    0    0    0    0  0.00000000000E+00  0.00000000000E+00  0.45593999997E+02  0.45594000000E+02  0.51100000000E-03 0. -1.
         11   -1    0    0    0    0 -0.00000000000E+00 -0.00000000000E+00 -0.45593999997E+02  0.45594000000E+02  0.51100000000E-03 0.  1.
    9900012    2    1    2    0    0  0.22097025006E+01  0.41839584341E+02  0.16543272620E+02  0.46142317944E+02  0.10000001665E+02 0.  0.
        -12    1    1    2    0    0 -0.22097025006E+01 -0.41839584341E+02 -0.16543272620E+02  0.45045682056E+02  0.00000000000E+00 0.  1.
         11    1    3    3    0    0 -0.14862019105E+00  0.33111617408E+01  0.66829482349E+00  0.33811977563E+01  0.51100000000E-03 0. -1.
        -11    1    3    3    0    0 -0.26385293593E+01  0.62383760094E+01  0.46351631997E+01  0.82075520445E+01  0.51100000000E-03 0.  1.
        -12    1    3    3    0    0  0.49968520510E+01  0.32290046590E+02  0.11239814597E+02  0.34553568143E+02  0.00000000000E+00 0.  1.
</event>
<event>
 7    1  0.1538805E-008  0.4614232E+02  0.7816164E-02  0.1320468E+00
        -11   -1    0    0    0    0  0.00000000000E+00  0.00000000000E+00  0.45593999997E+02  0.45594000000E+02  0.51100000000E-03 0.  1.
         11   -1    0    0    0    0 -0.00000000000E+00 -0.00000000000E+00 -0.45593999997E+02  0.45594000000E+02  0.51100000000E-03 0. -1.
    9900012    2    1    2    0    0  0.64184448560E-01 -0.13169822396E+02 -0.43077431966E+02  0.46142317784E+02  0.10000000205E+02 0.  0.
        -12    1    1    2    0    0 -0.64184448560E-01  0.13169822396E+02  0.43077431966E+02  0.45045682216E+02  0.00000000000E+00 0.  1.
         11    1    3    3    0    0  0.40455535699E+01 -0.32125328589E+01 -0.12682605036E+02  0.13694354378E+02  0.51100000000E-03 0. -1.
        -11    1    3    3    0    0 -0.23727026160E+00 -0.13688467117E+01 -0.87901137733E+01  0.88992212528E+01  0.51100000000E-03 0.  1.
         12    1    3    3    0    0 -0.37440988598E+01 -0.85884428254E+01 -0.21604713156E+02  0.23548742153E+02  0.00000000000E+00 0. -1.
</event>
<event>
 7    1  0.1538805E-008  0.4614232E+02  0.7816164E-02  0.1320468E+00
        -11   -1    0    0    0    0  0.00000000000E+00  0.00000000000E+00  0.45593999997E+02  0.45594000000E+02  0.51100000000E-03 0.  1.
         11   -1    0    0    0    0 -0.00000000000E+00 -0.00000000000E+00 -0.45593999997E+02  0.45594000000E+02  0.51100000000E-03 0. -1.
    9900012    2    1    2    0    0 -0.41483644110E+02  0.23775043410E+01 -0.17394489887E+02  0.46142317255E+02  0.99999953839E+01 0.  0.
        -12    1    1    2    0    0  0.41483644110E+02 -0.23775043410E+01  0.17394489887E+02  0.45045682745E+02  0.00000000000E+00 0.  1.
         11    1    3    3    0    0 -0.24222972887E+02  0.26194133854E+01 -0.12332050891E+02  0.27307384009E+02  0.51100000000E-03 0. -1.
        -11    1    3    3    0    0 -0.16320369906E+02  0.72792054782E+00 -0.33891617992E+01  0.16684446654E+02  0.51100000000E-03 0.  1.
        -12    1    3    3    0    0 -0.94030131701E+00 -0.96982959216E+00 -0.16732771967E+01  0.21504865918E+01  0.00000000000E+00 0.  1.
</event>
<event>
 7    1  0.1538805E-008  0.4614232E+02  0.7816164E-02  0.1320468E+00
        -11   -1    0    0    0    0  0.00000000000E+00  0.00000000000E+00  0.45593999997E+02  0.45594000000E+02  0.51100000000E-03 0.  1.
         11   -1    0    0    0    0 -0.00000000000E+00 -0.00000000000E+00 -0.45593999997E+02  0.45594000000E+02  0.51100000000E-03 0. -1.
    9900012    2    1    2    0    0  0.26329984722E+01 -0.24573046462E+02 -0.37660936645E+02  0.46142318272E+02  0.10000004658E+02 0.  0.
        -12    1    1    2    0    0 -0.26329984722E+01  0.24573046462E+02  0.37660936645E+02  0.45045681728E+02  0.00000000000E+00 0.  1.
         11    1    3    3    0    0  0.93701032190E-01 -0.55336005319E+01 -0.31194408030E+01  0.63529855906E+01  0.51100000000E-03 0.  1.
        -11    1    3    3    0    0 -0.89970521835E+00 -0.10495648534E+02 -0.17928934394E+02  0.20794585747E+02  0.51100000000E-03 0. -1.
         12    1    3    3    0    0  0.34390026584E+01 -0.85437973961E+01 -0.16612561448E+02  0.18994746934E+02  0.00000000000E+00 0. -1.
</event>
<event>
 7    1  0.1538805E-008  0.4614232E+02  0.7816164E-02  0.1320468E+00
        -11   -1    0    0    0    0  0.00000000000E+00  0.00000000000E+00  0.45593999997E+02  0.45594000000E+02  0.51100000000E-03 0.  1.
         11   -1    0    0    0    0 -0.00000000000E+00 -0.00000000000E+00 -0.45593999997E+02  0.45594000000E+02  0.51100000000E-03 0. -1.
    9900012    2    1    2    0    0  0.66079297746E+01 -0.91652592783E+01 -0.43605577971E+02  0.46142321587E+02  0.10000034884E+02 0.  0.
        -12    1    1    2    0    0 -0.66079297746E+01  0.91652592783E+01  0.43605577971E+02  0.45045678413E+02  0.00000000000E+00 0.  1.
         11    1    3    3    0    0  0.65027800218E+01 -0.61163297007E+01 -0.16712414003E+02  0.18947306381E+02  0.51100000000E-03 0. -1.
        -11    1    3    3    0    0 -0.69130741724E+00 -0.14264175323E+01 -0.54506029742E+01  0.56764113632E+01  0.51100000000E-03 0.  1.
         12    1    3    3    0    0  0.79645717003E+00 -0.16225120453E+01 -0.21442560994E+02  0.21518603843E+02  0.00000000000E+00 0. -1.
</event>
<event>
 7    1  0.1538805E-008  0.4614232E+02  0.7816164E-02  0.1320468E+00
        -11   -1    0    0    0    0  0.00000000000E+00  0.00000000000E+00  0.45593999997E+02  0.45594000000E+02  0.51100000000E-03 0. -1.
         11   -1    0    0    0    0 -0.00000000000E+00 -0.00000000000E+00 -0.45593999997E+02  0.45594000000E+02  0.51100000000E-03 0.  1.
    9900012    2    1    2    0    0  0.41412581511E+02 -0.32898099195E+01  0.17415186719E+02  0.46142317797E+02  0.10000000326E+02 0.  0.
        -12    1    1    2    0    0 -0.41412581511E+02  0.32898099195E+01 -0.17415186719E+02  0.45045682203E+02  0.00000000000E+00 0.  1.
         11    1    3    3    0    0  0.11064699163E+02 -0.38969883009E+01  0.63734501456E+01  0.13350466374E+02  0.51100000000E-03 0. -1.
        -11    1    3    3    0    0  0.24616378683E+01  0.80515811821E+00 -0.45208604663E+00  0.26291296363E+01  0.51100000000E-03 0.  1.
         12    1    3    3    0    0  0.27886244479E+02 -0.19797973686E+00  0.11493822620E+02  0.30162721786E+02  0.00000000000E+00 0. -1.
</event>
<event>
 7    1  0.1538805E-008  0.4614232E+02  0.7816164E-02  0.1320468E+00
        -11   -1    0    0    0    0  0.00000000000E+00  0.00000000000E+00  0.45593999997E+02  0.45594000000E+02  0.51100000000E-03 0. -1.
         11   -1    0    0    0    0 -0.00000000000E+00 -0.00000000000E+00 -0.45593999997E+02  0.45594000000E+02  0.51100000000E-03 0.  1.
    9900012    2    1    2    0    0  0.11516176905E+01  0.44960840320E+02 -0.25119799861E+01  0.46142318420E+02  0.10000006007E+02 0.  0.
        -12    1    1    2    0    0 -0.11516176905E+01 -0.44960840320E+02  0.25119799861E+01  0.45045681580E+02  0.00000000000E+00 0.  1.
         11    1    3    3    0    0  0.46644182959E+01  0.26730748292E+02 -0.19637128428E+01  0.27205622041E+02  0.51100000000E-03 0. -1.
        -11    1    3    3    0    0 -0.92938980186E+00  0.59215672523E+00 -0.68019811233E-01  0.11041023263E+01  0.51100000000E-03 0.  1.
         12    1    3    3    0    0 -0.25834108035E+01  0.17637935303E+02 -0.48024733205E+00  0.17832594052E+02  0.00000000000E+00 0. -1.
</event>
<event>
 7    1  0.1538805E-008  0.4614232E+02  0.7816164E-02  0.1320468E+00
        -11   -1    0    0    0    0  0.00000000000E+00  0.00000000000E+00  0.45593999997E+02  0.45594000000E+02  0.51100000000E-03 0. -1.
         11   -1    0    0    0    0 -0.00000000000E+00 -0.00000000000E+00 -0.45593999997E+02  0.45594000000E+02  0.51100000000E-03 0.  1.
    9900012    2    1    2    0    0  0.96016616548E+01  0.35856939701E+02  0.25518649047E+02  0.46142317849E+02  0.10000000805E+02 0.  0.
        -12    1    1    2    0    0 -0.96016616548E+01 -0.35856939701E+02 -0.25518649047E+02  0.45045682151E+02  0.00000000000E+00 0.  1.
         11    1    3    3    0    0  0.44304717031E+01  0.21547616041E+02  0.11059944989E+02  0.24622169279E+02  0.51100000000E-03 0. -1.
        -11    1    3    3    0    0  0.29751595596E+01  0.12893619261E+02  0.11146802267E+02  0.17301681800E+02  0.51100000000E-03 0.  1.
        -12    1    3    3    0    0  0.21960303921E+01  0.14157043983E+01  0.33119017904E+01  0.42184667707E+01  0.00000000000E+00 0.  1.
</event>
<event>
 7    1  0.1538805E-008  0.4614232E+02  0.7816164E-02  0.1320468E+00
        -11   -1    0    0    0    0  0.00000000000E+00  0.00000000000E+00  0.45593999997E+02  0.45594000000E+02  0.51100000000E-03 0. -1.
         11   -1    0    0    0    0 -0.00000000000E+00 -0.00000000000E+00 -0.45593999997E+02  0.45594000000E+02  0.51100000000E-03 0.  1.
    9900012    2    1    2    0    0 -0.33043014997E+02  0.23036665560E+02  0.20163933015E+02  0.46142323239E+02  0.10000049953E+02 0.  0.
        -12    1    1    2    0    0  0.33043014997E+02 -0.23036665560E+02 -0.20163933015E+02  0.45045676761E+02  0.00000000000E+00 0.  1.
         11    1    3    3    0    0 -0.24538080659E+02  0.15428439018E+02  0.16020842138E+02  0.33118295790E+02  0.51100000000E-03 0. -1.
        -11    1    3    3    0    0 -0.39545825217E+01  0.19276453628E+01 -0.44248165715E+00  0.44215754934E+01  0.51100000000E-03 0.  1.
        -12    1    3    3    0    0 -0.45503518160E+01  0.56805811794E+01  0.45855725341E+01  0.86024519558E+01  0.00000000000E+00 0.  1.
</event>
<event>
 7    1  0.1538805E-008  0.4614232E+02  0.7816164E-02  0.1320468E+00
        -11   -1    0    0    0    0  0.00000000000E+00  0.00000000000E+00  0.45593999997E+02  0.45594000000E+02  0.51100000000E-03 0.  1.
         11   -1    0    0    0    0 -0.00000000000E+00 -0.00000000000E+00 -0.45593999997E+02  0.45594000000E+02  0.51100000000E-03 0. -1.
    9900012    2    1    2    0    0 -0.28895712012E+02 -0.32615676658E+02 -0.11417919611E+02  0.46142318467E+02  0.10000006439E+02 0.  0.
        -12    1    1    2    0    0  0.28895712012E+02  0.32615676658E+02  0.11417919611E+02  0.45045681533E+02  0.00000000000E+00 0.  1.
         11    1    3    3    0    0 -0.21123806104E+00 -0.11195921916E+00  0.35030360340E+00  0.42410996318E+00  0.51100000000E-03 0. -1.
        -11    1    3    3    0    0 -0.10081734388E+02 -0.58475006750E+01 -0.25457742562E+01  0.11929610188E+02  0.51100000000E-03 0.  1.
         12    1    3    3    0    0 -0.18602739563E+02 -0.26656216763E+02 -0.92224489583E+01  0.33788598316E+02  0.00000000000E+00 0. -1.
</event>
<event>
 7    1  0.1538805E-008  0.4614232E+02  0.7816164E-02  0.1320468E+00
        -11   -1    0    0    0    0  0.00000000000E+00  0.00000000000E+00  0.45593999997E+02  0.45594000000E+02  0.51100000000E-03 0.  1.
         11   -1    0    0    0    0 -0.00000000000E+00 -0.00000000000E+00 -0.45593999997E+02  0.45594000000E+02  0.51100000000E-03 0. -1.
    9900012    2    1    2    0    0 -0.19921001104E+02 -0.12049465499E+02 -0.38562644456E+02  0.46142318173E+02  0.10000003760E+02 0.  0.
        -12    1    1    2    0    0  0.19921001104E+02  0.12049465499E+02  0.38562644456E+02  0.45045681827E+02  0.00000000000E+00 0.  1.
         11    1    3    3    0    0 -0.40320446728E+01 -0.45851590454E+01 -0.50274429304E+01  0.79092509377E+01  0.51100000000E-03 0. -1.
        -11    1    3    3    0    0 -0.53642963694E+01 -0.61513141025E+00 -0.14054315412E+02  0.15055824260E+02  0.51100000000E-03 0.  1.
         12    1    3    3    0    0 -0.10524660062E+02 -0.68491750433E+01 -0.19480886113E+02  0.23177242976E+02  0.00000000000E+00 0. -1.
</event>
<event>
 7    1  0.1538805E-008  0.4614232E+02  0.7816164E-02  0.1320468E+00
        -11   -1    0    0    0    0  0.00000000000E+00  0.00000000000E+00  0.45593999997E+02  0.45594000000E+02  0.51100000000E-03 0. -1.
         11   -1    0    0    0    0 -0.00000000000E+00 -0.00000000000E+00 -0.45593999997E+02  0.45594000000E+02  0.51100000000E-03 0.  1.
    9900012    2    1    2    0    0 -0.32074327880E+02 -0.18279736073E+02  0.25810894122E+02  0.46142317463E+02  0.99999972814E+01 0.  0.
        -12    1    1    2    0    0  0.32074327880E+02  0.18279736073E+02 -0.25810894122E+02  0.45045682537E+02  0.00000000000E+00 0.  1.
         11    1    3    3    0    0 -0.95844185863E+01 -0.71789403193E+01  0.37661503922E+01  0.12553173017E+02  0.51100000000E-03 0. -1.
        -11    1    3    3    0    0 -0.19695168391E+02 -0.10930622179E+02  0.19991336488E+02  0.30116966879E+02  0.51100000000E-03 0.  1.
         12    1    3    3    0    0 -0.27947409023E+01 -0.17017357505E+00  0.20534072427E+01  0.34721775676E+01  0.00000000000E+00 0. -1.
</event>
<event>
 7    1  0.1538805E-008  0.4614232E+02  0.7816164E-02  0.1320468E+00
        -11   -1    0    0    0    0  0.00000000000E+00  0.00000000000E+00  0.45593999997E+02  0.45594000000E+02  0.51100000000E-03 0.  1.
         11   -1    0    0    0    0 -0.00000000000E+00 -0.00000000000E+00 -0.45593999997E+02  0.45594000000E+02  0.51100000000E-03 0. -1.
    9900012    2    1    2    0    0 -0.19897062014E+01  0.26919757393E+02 -0.36062185547E+02  0.46142317684E+02  0.99999993006E+01 0.  0.
        -12    1    1    2    0    0  0.19897062014E+01 -0.26919757393E+02  0.36062185547E+02  0.45045682316E+02  0.00000000000E+00 0.  1.
         11    1    3    3    0    0  0.27719646357E+01  0.12853562111E+02 -0.16879606562E+02  0.21396704532E+02  0.51100000000E-03 0. -1.
        -11    1    3    3    0    0 -0.37711097204E+01  0.47608357720E+01 -0.56680495150E+01  0.83074431287E+01  0.51100000000E-03 0.  1.
         12    1    3    3    0    0 -0.99056111677E+00  0.93053595100E+01 -0.13514529470E+02  0.16438170024E+02  0.00000000000E+00 0. -1.
</event>
<event>
 7    1  0.1538805E-008  0.4614232E+02  0.7816164E-02  0.1320468E+00
        -11   -1    0    0    0    0  0.00000000000E+00  0.00000000000E+00  0.45593999997E+02  0.45594000000E+02  0.51100000000E-03 0.  1.
         11   -1    0    0    0    0 -0.00000000000E+00 -0.00000000000E+00 -0.45593999997E+02  0.45594000000E+02  0.51100000000E-03 0. -1.
    9900012    2    1    2    0    0  0.35009738704E+02 -0.22434062828E+02 -0.17324678097E+02  0.46142318185E+02  0.10000003862E+02 0.  0.
        -12    1    1    2    0    0 -0.35009738704E+02  0.22434062828E+02  0.17324678097E+02  0.45045681815E+02  0.00000000000E+00 0.  1.
         11    1    3    3    0    0  0.18166201150E+02 -0.13965874553E+02 -0.10345816514E+02  0.25141448563E+02  0.51100000000E-03 0. -1.
        -11    1    3    3    0    0  0.16170262908E+02 -0.60475509527E+01 -0.56940796477E+01  0.18178911363E+02  0.51100000000E-03 0.  1.
        -12    1    3    3    0    0  0.67327464569E+00 -0.24206373219E+01 -0.12847819355E+01  0.28219582588E+01  0.00000000000E+00 0.  1.
</event>
<event>
 7    1  0.1538805E-008  0.4614232E+02  0.7816164E-02  0.1320468E+00
        -11   -1    0    0    0    0  0.00000000000E+00  0.00000000000E+00  0.45593999997E+02  0.45594000000E+02  0.51100000000E-03 0.  1.
         11   -1    0    0    0    0 -0.00000000000E+00 -0.00000000000E+00 -0.45593999997E+02  0.45594000000E+02  0.51100000000E-03 0. -1.
    9900012    2    1    2    0    0  0.13064121521E+01  0.70923625238E+01 -0.44464651391E+02  0.46142317164E+02  0.99999945516E+01 0.  0.
        -12    1    1    2    0    0 -0.13064121521E+01 -0.70923625238E+01  0.44464651391E+02  0.45045682836E+02  0.00000000000E+00 0.  1.
         11    1    3    3    0    0  0.18636921797E+01  0.69957660966E+01 -0.27461558948E+02  0.28399847041E+02  0.51100000000E-03 0. -1.
        -11    1    3    3    0    0  0.16603564155E+01 -0.15700755762E+01 -0.82167936031E+01  0.85286351850E+01  0.51100000000E-03 0.  1.
        -12    1    3    3    0    0 -0.22176364432E+01  0.16666720034E+01 -0.87862988393E+01  0.92138349374E+01  0.00000000000E+00 0.  1.
</event>
<event>
 7    1  0.1538805E-008  0.4614231E+02  0.7816164E-02  0.1320468E+00
        -11   -1    0    0    0    0  0.00000000000E+00  0.00000000000E+00  0.45593999997E+02  0.45594000000E+02  0.51100000000E-03 0.  1.
         11   -1    0    0    0    0 -0.00000000000E+00 -0.00000000000E+00 -0.45593999997E+02  0.45594000000E+02  0.51100000000E-03 0. -1.
    9900012    2    1    2    0    0 -0.11080789423E+02  0.27524501041E+02 -0.33892948492E+02  0.46142311979E+02  0.99999472755E+01 0.  0.
        -12    1    1    2    0    0  0.11080789423E+02 -0.27524501041E+02  0.33892948492E+02  0.45045688021E+02  0.00000000000E+00 0.  1.
         11    1    3    3    0    0 -0.78418270116E+00  0.31061329418E+01 -0.44929842889E+01  0.55181439310E+01  0.51100000000E-03 0. -1.
        -11    1    3    3    0    0 -0.93519919491E+00 -0.72654427486E+00 -0.95343481946E+00  0.15203625665E+01  0.51100000000E-03 0.  1.
        -12    1    3    3    0    0 -0.93614075273E+01  0.25144912374E+02 -0.28446529383E+02  0.39103805482E+02  0.00000000000E+00 0.  1.
</event>
<event>
 7    1  0.1538805E-008  0.4614232E+02  0.7816164E-02  0.1320468E+00
        -11   -1    0    0    0    0  0.00000000000E+00  0.00000000000E+00  0.45593999997E+02  0.45594000000E+02  0.51100000000E-03 0. -1.
         11   -1    0    0    0    0 -0.00000000000E+00 -0.00000000000E+00 -0.45593999997E+02  0.45594000000E+02  0.51100000000E-03 0.  1.
    9900012    2    1    2    0    0  0.25778776132E+02  0.17973457291E+02  0.32272637903E+02  0.46142316266E+02  0.99999863689E+01 0.  0.
        -12    1    1    2    0    0 -0.25778776132E+02 -0.17973457291E+02 -0.32272637903E+02  0.45045683734E+02  0.00000000000E+00 0.  1.
         11    1    3    3    0    0  0.23315723209E+01  0.88027594531E+00  0.50180550309E+01  0.56028556810E+01  0.51100000000E-03 0. -1.
        -11    1    3    3    0    0  0.22637305108E+02  0.16675510779E+02  0.23403452088E+02  0.36581987538E+02  0.51100000000E-03 0.  1.
        -12    1    3    3    0    0  0.80989870258E+00  0.41767056675E+00  0.38511307834E+01  0.39574730475E+01  0.00000000000E+00 0.  1.
</event>
<event>
 7    1  0.1538805E-008  0.4614232E+02  0.7816164E-02  0.1320468E+00
        -11   -1    0    0    0    0  0.00000000000E+00  0.00000000000E+00  0.45593999997E+02  0.45594000000E+02  0.51100000000E-03 0. -1.
         11   -1    0    0    0    0 -0.00000000000E+00 -0.00000000000E+00 -0.45593999997E+02  0.45594000000E+02  0.51100000000E-03 0.  1.
    9900012    2    1    2    0    0 -0.10814329564E+02 -0.19042198670E+02  0.39364430978E+02  0.46142317850E+02  0.10000000812E+02 0.  0.
        -12    1    1    2    0    0  0.10814329564E+02  0.19042198670E+02 -0.39364430978E+02  0.45045682150E+02  0.00000000000E+00 0.  1.
         11    1    3    3    0    0 -0.72729758023E+01 -0.10365172814E+02  0.19250302349E+02  0.23041421946E+02  0.51100000000E-03 0. -1.
        -11    1    3    3    0    0 -0.19294355118E+01 -0.76271951797E+01  0.19584492325E+02  0.21105666717E+02  0.51100000000E-03 0.  1.
        -12    1    3    3    0    0 -0.16119182500E+01 -0.10498306768E+01  0.52963630417E+00  0.19952291872E+01  0.00000000000E+00 0.  1.
</event>
<event>
 7    1  0.1538805E-008  0.4614232E+02  0.7816164E-02  0.1320468E+00
        -11   -1    0    0    0    0  0.00000000000E+00  0.00000000000E+00  0.45593999997E+02  0.45594000000E+02  0.51100000000E-03 0. -1.
         11   -1    0    0    0    0 -0.00000000000E+00 -0.00000000000E+00 -0.45593999997E+02  0.45594000000E+02  0.51100000000E-03 0.  1.
    9900012    2    1    2    0    0 -0.32836741407E+01 -0.27810460777E+02  0.35283270974E+02  0.46142318130E+02  0.10000003364E+02 0.  0.
        -12    1    1    2    0    0  0.32836741407E+01  0.27810460777E+02 -0.35283270974E+02  0.45045681870E+02  0.00000000000E+00 0.  1.
         11    1    3    3    0    0 -0.14556728535E+01 -0.79639130849E+01  0.17751166261E+02  0.19510171679E+02  0.51100000000E-03 0. -1.
        -11    1    3    3    0    0  0.50078103192E+00 -0.33334427510E+01  0.29523114517E+01  0.44809335395E+01  0.51100000000E-03 0.  1.
         12    1    3    3    0    0 -0.23287823191E+01 -0.16513104941E+02  0.14579793262E+02  0.22151212911E+02  0.00000000000E+00 0. -1.
</event>
<event>
 7    1  0.1538805E-008  0.4614232E+02  0.7816164E-02  0.1320468E+00
        -11   -1    0    0    0    0  0.00000000000E+00  0.00000000000E+00  0.45593999997E+02  0.45594000000E+02  0.51100000000E-03 0.  1.
         11   -1    0    0    0    0 -0.00000000000E+00 -0.00000000000E+00 -0.45593999997E+02  0.45594000000E+02  0.51100000000E-03 0. -1.
    9900012    2    1    2    0    0  0.10605471223E+02 -0.26921608804E+02 -0.34523390329E+02  0.46142317406E+02  0.99999967655E+01 0.  0.
        -12    1    1    2    0    0 -0.10605471223E+02  0.26921608804E+02  0.34523390329E+02  0.45045682594E+02  0.00000000000E+00 0.  1.
         11    1    3    3    0    0  0.73509629999E+01 -0.21892570772E+02 -0.20827052455E+02  0.31098029299E+02  0.51100000000E-03 0. -1.
        -11    1    3    3    0    0  0.24982706389E+01 -0.40812832080E+01 -0.89893812653E+01  0.10183673434E+02  0.51100000000E-03 0.  1.
         12    1    3    3    0    0  0.75623758428E+00 -0.94775482454E+00 -0.47069566090E+01  0.48606146741E+01  0.00000000000E+00 0. -1.
</event>
<event>
 7    1  0.1538805E-008  0.4614232E+02  0.7816164E-02  0.1320468E+00
        -11   -1    0    0    0    0  0.00000000000E+00  0.00000000000E+00  0.45593999997E+02  0.45594000000E+02  0.51100000000E-03 0. -1.
         11   -1    0    0    0    0 -0.00000000000E+00 -0.00000000000E+00 -0.45593999997E+02  0.45594000000E+02  0.51100000000E-03 0.  1.
    9900012    2    1    2    0    0 -0.33682678188E+02 -0.21569444171E+02 -0.20720745506E+02  0.46142322892E+02  0.10000046789E+02 0.  0.
        -12    1    1    2    0    0  0.33682678188E+02  0.21569444171E+02  0.20720745506E+02  0.45045677108E+02  0.00000000000E+00 0.  1.
         11    1    3    3    0    0 -0.28999080362E+02 -0.18827776564E+02 -0.16967827428E+02  0.38514140261E+02  0.51100000000E-03 0. -1.
        -11    1    3    3    0    0 -0.92994800867E+00  0.46794546682E+00  0.45856501642E+00  0.11375668746E+01  0.51100000000E-03 0.  1.
         12    1    3    3    0    0 -0.37536498173E+01 -0.32096130739E+01 -0.42114830953E+01  0.64906157564E+01  0.00000000000E+00 0. -1.
</event>
<event>
 7    1  0.1538805E-008  0.4614232E+02  0.7816164E-02  0.1320468E+00
        -11   -1    0    0    0    0  0.00000000000E+00  0.00000000000E+00  0.45593999997E+02  0.45594000000E+02  0.51100000000E-03 0. -1.
         11   -1    0    0    0    0 -0.00000000000E+00 -0.00000000000E+00 -0.45593999997E+02  0.45594000000E+02  0.51100000000E-03 0.  1.
    9900012    2    1    2    0    0 -0.20713339743E+02  0.75049838533E+01  0.39290537646E+02  0.46142316805E+02  0.99999912846E+01 0.  0.
        -12    1    1    2    0    0  0.20713339743E+02 -0.75049838533E+01 -0.39290537646E+02  0.45045683195E+02  0.00000000000E+00 0.  1.
         11    1    3    3    0    0 -0.13537275120E+02  0.76798174954E+01  0.28541538691E+02  0.32509334745E+02  0.51100000000E-03 0. -1.
        -11    1    3    3    0    0 -0.75599914740E+01 -0.11910965522E+00  0.86079539220E+01  0.11457073325E+02  0.51100000000E-03 0.  1.
        -12    1    3    3    0    0  0.38392685115E+00 -0.55723986870E-01  0.21410450333E+01  0.21759087353E+01  0.00000000000E+00 0.  1.
</event>
<event>
 7    1  0.1538805E-008  0.4614232E+02  0.7816164E-02  0.1320468E+00
        -11   -1    0    0    0    0  0.00000000000E+00  0.00000000000E+00  0.45593999997E+02  0.45594000000E+02  0.51100000000E-03 0. -1.
         11   -1    0    0    0    0 -0.00000000000E+00 -0.00000000000E+00 -0.45593999997E+02  0.45594000000E+02  0.51100000000E-03 0.  1.
    9900012    2    1    2    0    0  0.75454667624E+00 -0.36405920425E+02  0.26517037376E+02  0.46142315923E+02  0.99999832422E+01 0.  0.
        -12    1    1    2    0    0 -0.75454667624E+00  0.36405920425E+02 -0.26517037376E+02  0.45045684077E+02  0.00000000000E+00 0.  1.
         11    1    3    3    0    0 -0.22824157583E+01 -0.21998320914E+02  0.15032482963E+02  0.26741561080E+02  0.51100000000E-03 0. -1.
        -11    1    3    3    0    0  0.28007881046E+01 -0.71805175492E+01  0.30449512712E+01  0.82870968853E+01  0.51100000000E-03 0.  1.
        -12    1    3    3    0    0  0.23617432995E+00 -0.72270819626E+01  0.84396031419E+01  0.11113657958E+02  0.00000000000E+00 0.  1.
</event>
<event>
 7    1  0.1538805E-008  0.4614232E+02  0.7816164E-02  0.1320468E+00
        -11   -1    0    0    0    0  0.00000000000E+00  0.00000000000E+00  0.45593999997E+02  0.45594000000E+02  0.51100000000E-03 0. -1.
         11   -1    0    0    0    0 -0.00000000000E+00 -0.00000000000E+00 -0.45593999997E+02  0.45594000000E+02  0.51100000000E-03 0.  1.
    9900012    2    1    2    0    0  0.21691535812E+02  0.95573742993E+01  0.38304664523E+02  0.46142318147E+02  0.10000003518E+02 0.  0.
        -12    1    1    2    0    0 -0.21691535812E+02 -0.95573742993E+01 -0.38304664523E+02  0.45045681853E+02  0.00000000000E+00 0.  1.
         11    1    3    3    0    0  0.15183404766E+02  0.86499200535E+01  0.21035346794E+02  0.27346713006E+02  0.51100000000E-03 0. -1.
        -11    1    3    3    0    0  0.20297100056E+01 -0.40623666589E+00  0.22027099736E+01  0.30226945635E+01  0.51100000000E-03 0.  1.
         12    1    3    3    0    0  0.44784210405E+01  0.13136909117E+01  0.15066607755E+02  0.15772910577E+02  0.00000000000E+00 0. -1.
</event>
<event>
 7    1  0.1538805E-008  0.4614232E+02  0.7816164E-02  0.1320468E+00
        -11   -1    0    0    0    0  0.00000000000E+00  0.00000000000E+00  0.45593999997E+02  0.45594000000E+02  0.51100000000E-03 0.  1.
         11   -1    0    0    0    0 -0.00000000000E+00 -0.00000000000E+00 -0.45593999997E+02  0.45594000000E+02  0.51100000000E-03 0. -1.
    9900012    2    1    2    0    0  0.12380383953E+02 -0.40608566600E+02 -0.15059340166E+02  0.46142319692E+02  0.10000017609E+02 0.  0.
        -12    1    1    2    0    0 -0.12380383953E+02  0.40608566600E+02  0.15059340166E+02  0.45045680308E+02  0.00000000000E+00 0.  1.
         11    1    3    3    0    0  0.13290928146E+01 -0.18305615081E+02 -0.52679256032E+01  0.19094844111E+02  0.51100000000E-03 0.  1.
        -11    1    3    3    0    0  0.75834031993E+01 -0.11152338531E+02 -0.60881625417E+01  0.14796904480E+02  0.51100000000E-03 0. -1.
        -12    1    3    3    0    0  0.34678879396E+01 -0.11150612988E+02 -0.37032520215E+01  0.12250571101E+02  0.00000000000E+00 0.  1.
</event>
<event>
 7    1  0.1538805E-008  0.4614232E+02  0.7816164E-02  0.1320468E+00
        -11   -1    0    0    0    0  0.00000000000E+00  0.00000000000E+00  0.45593999997E+02  0.45594000000E+02  0.51100000000E-03 0.  1.
         11   -1    0    0    0    0 -0.00000000000E+00 -0.00000000000E+00 -0.45593999997E+02  0.45594000000E+02  0.51100000000E-03 0. -1.
    9900012    2    1    2    0    0 -0.21790328828E+01  0.14009842252E+02 -0.42756165828E+02  0.46142316738E+02  0.99999906663E+01 0.  0.
        -12    1    1    2    0    0  0.21790328828E+01 -0.14009842252E+02  0.42756165828E+02  0.45045683262E+02  0.00000000000E+00 0.  1.
         11    1    3    3    0    0 -0.11601655288E+01  0.43356993196E+01 -0.38549672674E+01  0.59165061936E+01  0.51100000000E-03 0. -1.
        -11    1    3    3    0    0 -0.15773441160E+01  0.86639410737E+01 -0.36683003066E+02  0.37725251538E+02  0.51100000000E-03 0.  1.
        -12    1    3    3    0    0  0.55847676199E+00  0.10102018590E+01 -0.22181954948E+01  0.25005590061E+01  0.00000000000E+00 0.  1.
</event>
<event>
 7    1  0.1823167E-008  0.4614232E+02  0.7816164E-02  0.1320468E+00
        -11   -1    0    0    0    0  0.00000000000E+00  0.00000000000E+00  0.45593999997E+02  0.45594000000E+02  0.51100000000E-03 0. -1.
         11   -1    0    0    0    0 -0.00000000000E+00 -0.00000000000E+00 -0.45593999997E+02  0.45594000000E+02  0.51100000000E-03 0.  1.
    9900012    2    1    2    0    0  0.42289651367E+02  0.52248038958E+01  0.14608233588E+02  0.46142315666E+02  0.99999808968E+01 0.  0.
        -12    1    1    2    0    0 -0.42289651367E+02 -0.52248038958E+01 -0.14608233588E+02  0.45045684334E+02  0.00000000000E+00 0.  1.
         11    1    3    3    0    0  0.20468752769E+02  0.23453096766E+01  0.99331967362E+01  0.22872225844E+02  0.51100000000E-03 0. -1.
        -11    1    3    3    0    0  0.20516186737E+02  0.22384347102E+01  0.26941761124E+01  0.20813051034E+02  0.51100000000E-03 0.  1.
        -12    1    3    3    0    0  0.13047118621E+01  0.64105950899E+00  0.19808607397E+01  0.24570387883E+01  0.00000000000E+00 0.  1.
</event>
<event>
 7    1  0.1538805E-008  0.4614232E+02  0.7816164E-02  0.1320468E+00
        -11   -1    0    0    0    0  0.00000000000E+00  0.00000000000E+00  0.45593999997E+02  0.45594000000E+02  0.51100000000E-03 0. -1.
         11   -1    0    0    0    0 -0.00000000000E+00 -0.00000000000E+00 -0.45593999997E+02  0.45594000000E+02  0.51100000000E-03 0.  1.
    9900012    2    1    2    0    0 -0.43095675956E+02 -0.13030935308E+02  0.14391568971E+01  0.46142315038E+02  0.99999751695E+01 0.  0.
        -12    1    1    2    0    0  0.43095675956E+02  0.13030935308E+02 -0.14391568971E+01  0.45045684962E+02  0.00000000000E+00 0.  1.
         11    1    3    3    0    0 -0.10663386692E+02  0.61103381874E+00  0.17851248661E+01  0.10829028078E+02  0.51100000000E-03 0. -1.
        -11    1    3    3    0    0 -0.14147283236E+02 -0.75604515000E+01 -0.28957120152E+00  0.16043375630E+02  0.51100000000E-03 0.  1.
         12    1    3    3    0    0 -0.18285006028E+02 -0.60815176263E+01 -0.56396767479E-01  0.19269911330E+02  0.00000000000E+00 0. -1.
</event>
<event>
 7    1  0.1538805E-008  0.4614232E+02  0.7816164E-02  0.1320468E+00
        -11   -1    0    0    0    0  0.00000000000E+00  0.00000000000E+00  0.45593999997E+02  0.45594000000E+02  0.51100000000E-03 0.  1.
         11   -1    0    0    0    0 -0.00000000000E+00 -0.00000000000E+00 -0.45593999997E+02  0.45594000000E+02  0.51100000000E-03 0. -1.
    9900012    2    1    2    0    0 -0.12670530747E+02  0.34021145416E+02  0.26667073732E+02  0.46142317563E+02  0.99999981935E+01 0.  0.
        -12    1    1    2    0    0  0.12670530747E+02 -0.34021145416E+02 -0.26667073732E+02  0.45045682437E+02  0.00000000000E+00 0.  1.
         11    1    3    3    0    0 -0.59913025814E+01  0.90823795657E+01  0.70237557715E+01  0.12950616611E+02  0.51100000000E-03 0. -1.
        -11    1    3    3    0    0 -0.50098215162E+01  0.86922061957E+01  0.47979190490E+01  0.11120826751E+02  0.51100000000E-03 0.  1.
        -12    1    3    3    0    0 -0.16694066491E+01  0.16246559654E+02  0.14845398911E+02  0.22070874201E+02  0.00000000000E+00 0.  1.
</event>
<event>
 7    1  0.1538805E-008  0.4614232E+02  0.7816164E-02  0.1320468E+00
        -11   -1    0    0    0    0  0.00000000000E+00  0.00000000000E+00  0.45593999997E+02  0.45594000000E+02  0.51100000000E-03 0.  1.
         11   -1    0    0    0    0 -0.00000000000E+00 -0.00000000000E+00 -0.45593999997E+02  0.45594000000E+02  0.51100000000E-03 0. -1.
    9900012    2    1    2    0    0  0.70949829521E+01  0.44195998114E+02 -0.50486232547E+01  0.46142316198E+02  0.99999857505E+01 0.  0.
        -12    1    1    2    0    0 -0.70949829521E+01 -0.44195998114E+02  0.50486232547E+01  0.45045683802E+02  0.00000000000E+00 0.  1.
         11    1    3    3    0    0  0.28826379458E+00  0.13232736738E+02 -0.38339832379E+01  0.13779979874E+02  0.51100000000E-03 0.  1.
        -11    1    3    3    0    0  0.15629159369E+01  0.19099460776E+02  0.10634707489E+01  0.19192787146E+02  0.51100000000E-03 0. -1.
         12    1    3    3    0    0  0.52438032206E+01  0.11863800600E+02 -0.22781107658E+01  0.13169549178E+02  0.00000000000E+00 0. -1.
</event>
<event>
 7    1  0.1538805E-008  0.4614232E+02  0.7816164E-02  0.1320468E+00
        -11   -1    0    0    0    0  0.00000000000E+00  0.00000000000E+00  0.45593999997E+02  0.45594000000E+02  0.51100000000E-03 0.  1.
         11   -1    0    0    0    0 -0.00000000000E+00 -0.00000000000E+00 -0.45593999997E+02  0.45594000000E+02  0.51100000000E-03 0. -1.
    9900012    2    1    2    0    0  0.35377436469E+02  0.27487646178E+02 -0.46882496708E+01  0.46142318870E+02  0.10000010108E+02 0.  0.
        -12    1    1    2    0    0 -0.35377436469E+02 -0.27487646178E+02  0.46882496708E+01  0.45045681130E+02  0.00000000000E+00 0.  1.
         11    1    3    3    0    0  0.21403664277E+02  0.12637214537E+02 -0.63771802772E+01  0.25660952131E+02  0.51100000000E-03 0. -1.
        -11    1    3    3    0    0  0.58344737707E+00  0.44290898990E+00  0.18038951099E+00  0.75440032605E+00  0.51100000000E-03 0.  1.
         12    1    3    3    0    0  0.13390324814E+02  0.14407522652E+02  0.15085410953E+01  0.19726966412E+02  0.00000000000E+00 0. -1.
</event>
<event>
 7    1  0.1538805E-008  0.4614232E+02  0.7816164E-02  0.1320468E+00
        -11   -1    0    0    0    0  0.00000000000E+00  0.00000000000E+00  0.45593999997E+02  0.45594000000E+02  0.51100000000E-03 0. -1.
         11   -1    0    0    0    0 -0.00000000000E+00 -0.00000000000E+00 -0.45593999997E+02  0.45594000000E+02  0.51100000000E-03 0.  1.
    9900012    2    1    2    0    0  0.36051721421E+02 -0.22910657087E+02 -0.14299952911E+02  0.46142317867E+02  0.10000000961E+02 0.  0.
        -12    1    1    2    0    0 -0.36051721421E+02  0.22910657087E+02  0.14299952911E+02  0.45045682133E+02  0.00000000000E+00 0.  1.
         11    1    3    3    0    0  0.19144595206E+02 -0.10911252171E+02 -0.86727408876E+01  0.23680949819E+02  0.51100000000E-03 0. -1.
        -11    1    3    3    0    0  0.92498171592E+01 -0.89961236538E+01 -0.59953675341E+01  0.14227922912E+02  0.51100000000E-03 0.  1.
         12    1    3    3    0    0  0.76573090558E+01 -0.30032812628E+01  0.36815551060E+00  0.82334451355E+01  0.00000000000E+00 0. -1.
</event>
<event>
 7    1  0.1538805E-008  0.4614232E+02  0.7816164E-02  0.1320468E+00
        -11   -1    0    0    0    0  0.00000000000E+00  0.00000000000E+00  0.45593999997E+02  0.45594000000E+02  0.51100000000E-03 0.  1.
         11   -1    0    0    0    0 -0.00000000000E+00 -0.00000000000E+00 -0.45593999997E+02  0.45594000000E+02  0.51100000000E-03 0. -1.
    9900012    2    1    2    0    0  0.28644005591E+00  0.35182456978E+02 -0.28128739144E+02  0.46142319932E+02  0.10000019798E+02 0.  0.
        -12    1    1    2    0    0 -0.28644005591E+00 -0.35182456978E+02  0.28128739144E+02  0.45045680068E+02  0.00000000000E+00 0.  1.
         11    1    3    3    0    0  0.34351347245E+00  0.51741843077E+00  0.53277361042E+00  0.81827337689E+00  0.51100000000E-03 0.  1.
        -11    1    3    3    0    0 -0.17653875492E+01  0.26650995603E+02 -0.23933794918E+02  0.35863891301E+02  0.51100000000E-03 0. -1.
        -12    1    3    3    0    0  0.17083141327E+01  0.80140429444E+01 -0.47277178370E+01  0.94601552544E+01  0.00000000000E+00 0.  1.
</event>
<event>
 7    1  0.1538805E-008  0.4614232E+02  0.7816164E-02  0.1320468E+00
        -11   -1    0    0    0    0  0.00000000000E+00  0.00000000000E+00  0.45593999997E+02  0.45594000000E+02  0.51100000000E-03 0.  1.
         11   -1    0    0    0    0 -0.00000000000E+00 -0.00000000000E+00 -0.45593999997E+02  0.45594000000E+02  0.51100000000E-03 0. -1.
    9900012    2    1    2    0    0  0.43495380494E+02  0.39884045765E+01 -0.11016258198E+02  0.46142318297E+02  0.10000004886E+02 0.  0.
        -12    1    1    2    0    0 -0.43495380494E+02 -0.39884045765E+01  0.11016258198E+02  0.45045681703E+02  0.00000000000E+00 0.  1.
         11    1    3    3    0    0  0.32029905775E+02  0.33998289760E+01 -0.10825311368E+02  0.33980304111E+02  0.51100000000E-03 0. -1.
        -11    1    3    3    0    0  0.68873197335E+01  0.21057497284E+01  0.77374655778E+00  0.72434825206E+01  0.51100000000E-03 0.  1.
        -12    1    3    3    0    0  0.45781549860E+01 -0.15171741279E+01 -0.96469338778E+00  0.49185316653E+01  0.00000000000E+00 0.  1.
</event>
<event>
 7    1  0.1538805E-008  0.4614232E+02  0.7816164E-02  0.1320468E+00
        -11   -1    0    0    0    0  0.00000000000E+00  0.00000000000E+00  0.45593999997E+02  0.45594000000E+02  0.51100000000E-03 0. -1.
         11   -1    0    0    0    0 -0.00000000000E+00 -0.00000000000E+00 -0.45593999997E+02  0.45594000000E+02  0.51100000000E-03 0.  1.
    9900012    2    1    2    0    0  0.20879226027E+02 -0.55492402015E+01  0.39526918851E+02  0.46142318074E+02  0.10000002851E+02 0.  0.
        -12    1    1    2    0    0 -0.20879226027E+02  0.55492402015E+01 -0.39526918851E+02  0.45045681926E+02  0.00000000000E+00 0.  1.
         11    1    3    3    0    0  0.61563087277E+01  0.98594785833E+00  0.90918257757E+01  0.11024224532E+02  0.51100000000E-03 0. -1.
        -11    1    3    3    0    0 -0.31676189401E+00  0.51206874089E+00  0.22386849519E+00  0.64239384894E+00  0.51100000000E-03 0.  1.
         12    1    3    3    0    0  0.15039679194E+02 -0.70472568008E+01  0.30211224581E+02  0.34475699693E+02  0.00000000000E+00 0. -1.
</event>
<event>
 7    1  0.1538805E-008  0.4614232E+02  0.7816164E-02  0.1320468E+00
        -11   -1    0    0    0    0  0.00000000000E+00  0.00000000000E+00  0.45593999997E+02  0.45594000000E+02  0.51100000000E-03 0. -1.
         11   -1    0    0    0    0 -0.00000000000E+00 -0.00000000000E+00 -0.45593999997E+02  0.45594000000E+02  0.51100000000E-03 0.  1.
    9900012    2    1    2    0    0 -0.43344331021E+02  0.94241058662E+01  0.78465731798E+01  0.46142317480E+02  0.99999974366E+01 0.  0.
        -12    1    1    2    0    0  0.43344331021E+02 -0.94241058662E+01 -0.78465731798E+01  0.45045682520E+02  0.00000000000E+00 0.  1.
         11    1    3    3    0    0 -0.23398233885E+02  0.50252125299E+01  0.65987042522E+01  0.24824846585E+02  0.51100000000E-03 0. -1.
        -11    1    3    3    0    0 -0.12692418621E+02  0.19112739489E+00  0.21812975704E+01  0.12879909917E+02  0.51100000000E-03 0.  1.
        -12    1    3    3    0    0 -0.72536785152E+01  0.42077659414E+01 -0.93342864286E+00  0.84375609776E+01  0.00000000000E+00 0.  1.
</event>
<event>
 7    1  0.1538805E-008  0.4614232E+02  0.7816164E-02  0.1320468E+00
        -11   -1    0    0    0    0  0.00000000000E+00  0.00000000000E+00  0.45593999997E+02  0.45594000000E+02  0.51100000000E-03 0. -1.
         11   -1    0    0    0    0 -0.00000000000E+00 -0.00000000000E+00 -0.45593999997E+02  0.45594000000E+02  0.51100000000E-03 0.  1.
    9900012    2    1    2    0    0  0.31051777548E+02 -0.44371423320E+01  0.32329744559E+02  0.46142317585E+02  0.99999983943E+01 0.  0.
        -12    1    1    2    0    0 -0.31051777548E+02  0.44371423320E+01 -0.32329744559E+02  0.45045682415E+02  0.00000000000E+00 0.  1.
         11    1    3    3    0    0  0.59136234266E+01  0.24890310076E+01  0.54449023223E+01  0.84150566813E+01  0.51100000000E-03 0. -1.
        -11    1    3    3    0    0  0.22416695893E+02 -0.45997916447E+01  0.23023245511E+02  0.32461302686E+02  0.51100000000E-03 0.  1.
        -12    1    3    3    0    0  0.27214582281E+01 -0.23263816950E+01  0.38615967262E+01  0.52659582180E+01  0.00000000000E+00 0.  1.
</event>
<event>
 7    1  0.1538805E-008  0.4614232E+02  0.7816164E-02  0.1320468E+00
        -11   -1    0    0    0    0  0.00000000000E+00  0.00000000000E+00  0.45593999997E+02  0.45594000000E+02  0.51100000000E-03 0. -1.
         11   -1    0    0    0    0 -0.00000000000E+00 -0.00000000000E+00 -0.45593999997E+02  0.45594000000E+02  0.51100000000E-03 0.  1.
    9900012    2    1    2    0    0 -0.28146188381E+02 -0.18630983677E+02 -0.29829381970E+02  0.46142317611E+02  0.99999986339E+01 0.  0.
        -12    1    1    2    0    0  0.28146188381E+02  0.18630983677E+02  0.29829381970E+02  0.45045682389E+02  0.00000000000E+00 0.  1.
         11    1    3    3    0    0 -0.81098716822E+01 -0.56957485639E+01 -0.40524947214E+01  0.10706740126E+02  0.51100000000E-03 0. -1.
        -11    1    3    3    0    0 -0.12462185924E+02 -0.82712796167E+01 -0.19373247331E+02  0.24475352029E+02  0.51100000000E-03 0.  1.
        -12    1    3    3    0    0 -0.75741307745E+01 -0.46639554963E+01 -0.64036399173E+01  0.10960225456E+02  0.00000000000E+00 0.  1.
</event>
<event>
 7    1  0.1538805E-008  0.4614232E+02  0.7816164E-02  0.1320468E+00
        -11   -1    0    0    0    0  0.00000000000E+00  0.00000000000E+00  0.45593999997E+02  0.45594000000E+02  0.51100000000E-03 0.  1.
         11   -1    0    0    0    0 -0.00000000000E+00 -0.00000000000E+00 -0.45593999997E+02  0.45594000000E+02  0.51100000000E-03 0. -1.
    9900012    2    1    2    0    0  0.40510555307E+02  0.48427175509E+01 -0.19093362004E+02  0.46142317885E+02  0.10000001129E+02 0.  0.
        -12    1    1    2    0    0 -0.40510555307E+02 -0.48427175509E+01  0.19093362004E+02  0.45045682115E+02  0.00000000000E+00 0.  1.
         11    1    3    3    0    0  0.32157387758E+02  0.28400694779E+01 -0.17416869017E+02  0.36681206478E+02  0.51100000000E-03 0. -1.
        -11    1    3    3    0    0  0.43563407644E+00 -0.73385091175E+00  0.19973326070E+00  0.87647466922E+00  0.51100000000E-03 0.  1.
        -12    1    3    3    0    0  0.79175334725E+01  0.27364989848E+01 -0.18762262485E+01  0.85846367377E+01  0.00000000000E+00 0.  1.
</event>
<event>
 7    1  0.1538805E-008  0.4614232E+02  0.7816164E-02  0.1320468E+00
        -11   -1    0    0    0    0  0.00000000000E+00  0.00000000000E+00  0.45593999997E+02  0.45594000000E+02  0.51100000000E-03 0. -1.
         11   -1    0    0    0    0 -0.00000000000E+00 -0.00000000000E+00 -0.45593999997E+02  0.45594000000E+02  0.51100000000E-03 0.  1.
    9900012    2    1    2    0    0 -0.40691143283E+01 -0.24495099068E+02  0.37583852557E+02  0.46142317157E+02  0.99999944956E+01 0.  0.
        -12    1    1    2    0    0  0.40691143283E+01  0.24495099068E+02 -0.37583852557E+02  0.45045682843E+02  0.00000000000E+00 0.  1.
         11    1    3    3    0    0 -0.15363922149E+01 -0.48352620890E+01  0.11228705612E+02  0.12321691868E+02  0.51100000000E-03 0. -1.
        -11    1    3    3    0    0 -0.73940545184E+00 -0.36070552771E+01  0.11019135823E+01  0.38434076024E+01  0.51100000000E-03 0.  1.
        -12    1    3    3    0    0 -0.17933166615E+01 -0.16052781702E+02  0.25253233362E+02  0.29977217687E+02  0.00000000000E+00 0.  1.
</event>
<event>
 7    1  0.1538805E-008  0.4614232E+02  0.7816164E-02  0.1320468E+00
        -11   -1    0    0    0    0  0.00000000000E+00  0.00000000000E+00  0.45593999997E+02  0.45594000000E+02  0.51100000000E-03 0.  1.
         11   -1    0    0    0    0 -0.00000000000E+00 -0.00000000000E+00 -0.45593999997E+02  0.45594000000E+02  0.51100000000E-03 0. -1.
    9900012    2    1    2    0    0 -0.70740047919E+01 -0.40585812644E+02 -0.18217133851E+02  0.46142315439E+02  0.99999788281E+01 0.  0.
        -12    1    1    2    0    0  0.70740047919E+01  0.40585812644E+02  0.18217133851E+02  0.45045684561E+02  0.00000000000E+00 0.  1.
         11    1    3    3    0    0 -0.45787493433E+01 -0.12088681199E+02 -0.48241363762E+01  0.13797588584E+02  0.51100000000E-03 0. -1.
        -11    1    3    3    0    0  0.14490172716E+01 -0.92628121482E+01 -0.69833018340E+01  0.11690416790E+02  0.51100000000E-03 0.  1.
        -12    1    3    3    0    0 -0.39442727202E+01 -0.19234319296E+02 -0.64096956411E+01  0.20654310066E+02  0.00000000000E+00 0.  1.
</event>
<event>
 7    1  0.1538805E-008  0.4614232E+02  0.7816164E-02  0.1320468E+00
        -11   -1    0    0    0    0  0.00000000000E+00  0.00000000000E+00  0.45593999997E+02  0.45594000000E+02  0.51100000000E-03 0. -1.
         11   -1    0    0    0    0 -0.00000000000E+00 -0.00000000000E+00 -0.45593999997E+02  0.45594000000E+02  0.51100000000E-03 0.  1.
    9900012    2    1    2    0    0 -0.32433432723E+02  0.25392548391E+02  0.18231951169E+02  0.46142321901E+02  0.10000037749E+02 0.  0.
        -12    1    1    2    0    0  0.32433432723E+02 -0.25392548391E+02 -0.18231951169E+02  0.45045678099E+02  0.00000000000E+00 0.  1.
         11    1    3    3    0    0 -0.28026850104E+01  0.18653324908E+01 -0.12131380630E+00  0.33688612125E+01  0.51100000000E-03 0. -1.
        -11    1    3    3    0    0 -0.15048665074E+02  0.11487632035E+02  0.48693249267E+01  0.19548358903E+02  0.51100000000E-03 0.  1.
        -12    1    3    3    0    0 -0.14582082639E+02  0.12039583865E+02  0.13483940048E+02  0.23225101785E+02  0.00000000000E+00 0.  1.
</event>
<event>
 7    1  0.1538805E-008  0.4614232E+02  0.7816164E-02  0.1320468E+00
        -11   -1    0    0    0    0  0.00000000000E+00  0.00000000000E+00  0.45593999997E+02  0.45594000000E+02  0.51100000000E-03 0. -1.
         11   -1    0    0    0    0 -0.00000000000E+00 -0.00000000000E+00 -0.45593999997E+02  0.45594000000E+02  0.51100000000E-03 0.  1.
    9900012    2    1    2    0    0  0.21852797178E+02  0.38855684957E+02  0.64656460203E+01  0.46142316783E+02  0.99999910833E+01 0.  0.
        -12    1    1    2    0    0 -0.21852797178E+02 -0.38855684957E+02 -0.64656460203E+01  0.45045683217E+02  0.00000000000E+00 0.  1.
         11    1    3    3    0    0  0.89691227349E+01  0.20155835277E+02  0.70376515938E+01  0.23156670714E+02  0.51100000000E-03 0. -1.
        -11    1    3    3    0    0  0.76180797015E+01  0.88065245485E+01 -0.14972739505E+01  0.11740180685E+02  0.51100000000E-03 0.  1.
         12    1    3    3    0    0  0.52655947415E+01  0.98933251323E+01  0.92526837703E+00  0.11245465385E+02  0.00000000000E+00 0. -1.
</event>
<event>
 7    1  0.1538805E-008  0.4614232E+02  0.7816164E-02  0.1320468E+00
        -11   -1    0    0    0    0  0.00000000000E+00  0.00000000000E+00  0.45593999997E+02  0.45594000000E+02  0.51100000000E-03 0.  1.
         11   -1    0    0    0    0 -0.00000000000E+00 -0.00000000000E+00 -0.45593999997E+02  0.45594000000E+02  0.51100000000E-03 0. -1.
    9900012    2    1    2    0    0  0.21497099917E+02  0.12488034964E+02 -0.37563773308E+02  0.46142318884E+02  0.10000010235E+02 0.  0.
        -12    1    1    2    0    0 -0.21497099917E+02 -0.12488034964E+02  0.37563773308E+02  0.45045681116E+02  0.00000000000E+00 0.  1.
         11    1    3    3    0    0  0.16163150861E+02  0.64615205402E+01 -0.20016298350E+02  0.26526418781E+02  0.51100000000E-03 0. -1.
        -11    1    3    3    0    0  0.19107297710E+01  0.37815259082E+00 -0.23987045898E+01  0.30899306804E+01  0.51100000000E-03 0.  1.
         12    1    3    3    0    0  0.34232192854E+01  0.56483618328E+01 -0.15148770368E+02  0.16525969422E+02  0.00000000000E+00 0. -1.
</event>
<event>
 7    1  0.1538805E-008  0.4614232E+02  0.7816164E-02  0.1320468E+00
        -11   -1    0    0    0    0  0.00000000000E+00  0.00000000000E+00  0.45593999997E+02  0.45594000000E+02  0.51100000000E-03 0.  1.
         11   -1    0    0    0    0 -0.00000000000E+00 -0.00000000000E+00 -0.45593999997E+02  0.45594000000E+02  0.51100000000E-03 0. -1.
    9900012    2    1    2    0    0  0.13306949818E+02 -0.41799172801E+01 -0.42831843946E+02  0.46142317879E+02  0.10000001078E+02 0.  0.
        -12    1    1    2    0    0 -0.13306949818E+02  0.41799172801E+01  0.42831843946E+02  0.45045682121E+02  0.00000000000E+00 0.  1.
         11    1    3    3    0    0  0.24726834930E+01 -0.47127746990E+00 -0.90783297071E+01  0.94208458560E+01  0.51100000000E-03 0. -1.
        -11    1    3    3    0    0  0.75278215649E+01  0.10586020296E+01 -0.11980597676E+02  0.14188849732E+02  0.51100000000E-03 0.  1.
        -12    1    3    3    0    0  0.33064447606E+01 -0.47672418398E+01 -0.21772916562E+02  0.22532622292E+02  0.00000000000E+00 0.  1.
</event>
<event>
 7    1  0.1538805E-008  0.4614232E+02  0.7816164E-02  0.1320468E+00
        -11   -1    0    0    0    0  0.00000000000E+00  0.00000000000E+00  0.45593999997E+02  0.45594000000E+02  0.51100000000E-03 0. -1.
         11   -1    0    0    0    0 -0.00000000000E+00 -0.00000000000E+00 -0.45593999997E+02  0.45594000000E+02  0.51100000000E-03 0.  1.
    9900012    2    1    2    0    0  0.22306853764E+02 -0.39018543082E+01  0.38939610629E+02  0.46142317989E+02  0.10000002081E+02 0.  0.
        -12    1    1    2    0    0 -0.22306853764E+02  0.39018543082E+01 -0.38939610629E+02  0.45045682011E+02  0.00000000000E+00 0.  1.
         11    1    3    3    0    0  0.13000218341E+02  0.99091499258E+00  0.24033698523E+02  0.27342389333E+02  0.51100000000E-03 0. -1.
        -11    1    3    3    0    0  0.10971634542E+00 -0.13669058025E+01  0.77541359371E+00  0.15753525484E+01  0.51100000000E-03 0.  1.
         12    1    3    3    0    0  0.91969190771E+01 -0.35258634983E+01  0.14130498512E+02  0.17224576108E+02  0.00000000000E+00 0. -1.
</event>
<event>
 7    1  0.1538805E-008  0.4614232E+02  0.7816164E-02  0.1320468E+00
        -11   -1    0    0    0    0  0.00000000000E+00  0.00000000000E+00  0.45593999997E+02  0.45594000000E+02  0.51100000000E-03 0. -1.
         11   -1    0    0    0    0 -0.00000000000E+00 -0.00000000000E+00 -0.45593999997E+02  0.45594000000E+02  0.51100000000E-03 0.  1.
    9900012    2    1    2    0    0  0.85916556390E+01  0.43905952951E+02  0.52501696815E+01  0.46142317268E+02  0.99999954998E+01 0.  0.
        -12    1    1    2    0    0 -0.85916556390E+01 -0.43905952951E+02 -0.52501696815E+01  0.45045682732E+02  0.00000000000E+00 0.  1.
         11    1    3    3    0    0  0.13701050506E+01  0.17266767808E+02 -0.16397191516E+01  0.17398480898E+02  0.51100000000E-03 0. -1.
        -11    1    3    3    0    0  0.18764382547E+01  0.67102181646E+01  0.36236574218E+01  0.78535941906E+01  0.51100000000E-03 0.  1.
         12    1    3    3    0    0  0.53451123336E+01  0.19928966978E+02  0.32662314113E+01  0.20890242179E+02  0.00000000000E+00 0. -1.
</event>
<event>
 7    1  0.1538805E-008  0.4614232E+02  0.7816164E-02  0.1320468E+00
        -11   -1    0    0    0    0  0.00000000000E+00  0.00000000000E+00  0.45593999997E+02  0.45594000000E+02  0.51100000000E-03 0. -1.
         11   -1    0    0    0    0 -0.00000000000E+00 -0.00000000000E+00 -0.45593999997E+02  0.45594000000E+02  0.51100000000E-03 0.  1.
    9900012    2    1    2    0    0 -0.42523890622E+02  0.13228308535E+02 -0.67708210920E+01  0.46142318313E+02  0.10000005037E+02 0.  0.
        -12    1    1    2    0    0  0.42523890622E+02 -0.13228308535E+02  0.67708210920E+01  0.45045681687E+02  0.00000000000E+00 0.  1.
         11    1    3    3    0    0 -0.33061141779E+02  0.68729019222E+01 -0.58452994552E+01  0.34270153232E+02  0.51100000000E-03 0. -1.
        -11    1    3    3    0    0 -0.63020995111E+01  0.28549828204E+01 -0.16182224758E+01  0.71053521654E+01  0.51100000000E-03 0.  1.
         12    1    3    3    0    0 -0.31606493327E+01  0.35004237920E+01  0.69270083904E+00  0.47668129165E+01  0.00000000000E+00 0. -1.
</event>
<event>
 7    1  0.1538805E-008  0.4614232E+02  0.7816164E-02  0.1320468E+00
        -11   -1    0    0    0    0  0.00000000000E+00  0.00000000000E+00  0.45593999997E+02  0.45594000000E+02  0.51100000000E-03 0.  1.
         11   -1    0    0    0    0 -0.00000000000E+00 -0.00000000000E+00 -0.45593999997E+02  0.45594000000E+02  0.51100000000E-03 0. -1.
    9900012    2    1    2    0    0  0.13792831387E+02  0.10839509513E+02 -0.41489472320E+02  0.46142317881E+02  0.10000001094E+02 0.  0.
        -12    1    1    2    0    0 -0.13792831387E+02 -0.10839509513E+02  0.41489472320E+02  0.45045682119E+02  0.00000000000E+00 0.  1.
         11    1    3    3    0    0  0.47576739502E+01 -0.13460175668E+01 -0.92910239813E+01  0.10524749479E+02  0.51100000000E-03 0. -1.
        -11    1    3    3    0    0  0.44817820036E+01  0.62783449445E+01 -0.17880547248E+02  0.19473519336E+02  0.51100000000E-03 0.  1.
         12    1    3    3    0    0  0.45533754327E+01  0.59071821357E+01 -0.14317901091E+02  0.16144049066E+02  0.00000000000E+00 0. -1.
</event>
<event>
 7    1  0.1538805E-008  0.4614232E+02  0.7816164E-02  0.1320468E+00
        -11   -1    0    0    0    0  0.00000000000E+00  0.00000000000E+00  0.45593999997E+02  0.45594000000E+02  0.51100000000E-03 0.  1.
         11   -1    0    0    0    0 -0.00000000000E+00 -0.00000000000E+00 -0.45593999997E+02  0.45594000000E+02  0.51100000000E-03 0. -1.
    9900012    2    1    2    0    0 -0.41561192905E+02  0.26774136113E+01  0.17164272633E+02  0.46142317029E+02  0.99999933214E+01 0.  0.
        -12    1    1    2    0    0  0.41561192905E+02 -0.26774136113E+01 -0.17164272633E+02  0.45045682971E+02  0.00000000000E+00 0.  1.
         11    1    3    3    0    0 -0.23954060133E+02 -0.10985559978E+01  0.10935958665E+02  0.26355246429E+02  0.51100000000E-03 0. -1.
        -11    1    3    3    0    0  0.20083747239E+00  0.56691997642E+00 -0.11554712736E+00  0.61244211950E+00  0.51100000000E-03 0.  1.
        -12    1    3    3    0    0 -0.17807970244E+02  0.32090496327E+01  0.63438610961E+01  0.19174628480E+02  0.00000000000E+00 0.  1.
</event>
<event>
 7    1  0.1538805E-008  0.4614232E+02  0.7816164E-02  0.1320468E+00
        -11   -1    0    0    0    0  0.00000000000E+00  0.00000000000E+00  0.45593999997E+02  0.45594000000E+02  0.51100000000E-03 0.  1.
         11   -1    0    0    0    0 -0.00000000000E+00 -0.00000000000E+00 -0.45593999997E+02  0.45594000000E+02  0.51100000000E-03 0. -1.
    9900012    2    1    2    0    0 -0.27984662123E+01 -0.21457742651E+02 -0.39507560317E+02  0.46142318131E+02  0.10000003377E+02 0.  0.
        -12    1    1    2    0    0  0.27984662123E+01  0.21457742651E+02  0.39507560317E+02  0.45045681869E+02  0.00000000000E+00 0.  1.
         11    1    3    3    0    0 -0.49710684966E+01 -0.13383860205E+02 -0.26118590388E+02  0.29766088088E+02  0.51100000000E-03 0. -1.
        -11    1    3    3    0    0  0.84210588132E+00 -0.26658849117E+00 -0.39842825880E+01  0.40810194487E+01  0.51100000000E-03 0.  1.
        -12    1    3    3    0    0  0.13304964030E+01 -0.78072939546E+01 -0.94046873416E+01  0.12295210595E+02  0.00000000000E+00 0.  1.
</event>
<event>
 7    1  0.1538805E-008  0.4614232E+02  0.7816164E-02  0.1320468E+00
        -11   -1    0    0    0    0  0.00000000000E+00  0.00000000000E+00  0.45593999997E+02  0.45594000000E+02  0.51100000000E-03 0.  1.
         11   -1    0    0    0    0 -0.00000000000E+00 -0.00000000000E+00 -0.45593999997E+02  0.45594000000E+02  0.51100000000E-03 0. -1.
    9900012    2    1    2    0    0  0.16629241257E+02  0.23268905780E+02 -0.34801435041E+02  0.46142317389E+02  0.99999966088E+01 0.  0.
        -12    1    1    2    0    0 -0.16629241257E+02 -0.23268905780E+02  0.34801435041E+02  0.45045682611E+02  0.00000000000E+00 0.  1.
         11    1    3    3    0    0  0.51863349843E+01  0.76434438620E+01 -0.14666614597E+02  0.17332913449E+02  0.51100000000E-03 0. -1.
        -11    1    3    3    0    0  0.83394422053E+01  0.15010989164E+02 -0.15119382751E+02  0.22879506704E+02  0.51100000000E-03 0.  1.
        -12    1    3    3    0    0  0.31034640675E+01  0.61447275390E+00 -0.50154376928E+01  0.59298972363E+01  0.00000000000E+00 0.  1.
</event>
<event>
 7    1  0.1538805E-008  0.4614232E+02  0.7816164E-02  0.1320468E+00
        -11   -1    0    0    0    0  0.00000000000E+00  0.00000000000E+00  0.45593999997E+02  0.45594000000E+02  0.51100000000E-03 0. -1.
         11   -1    0    0    0    0 -0.00000000000E+00 -0.00000000000E+00 -0.45593999997E+02  0.45594000000E+02  0.51100000000E-03 0.  1.
    9900012    2    1    2    0    0  0.28060203507E+02  0.19920029208E+02  0.29067693709E+02  0.46142318719E+02  0.10000008737E+02 0.  0.
        -12    1    1    2    0    0 -0.28060203507E+02 -0.19920029208E+02 -0.29067693709E+02  0.45045681281E+02  0.00000000000E+00 0.  1.
         11    1    3    3    0    0  0.19599924036E+02  0.14487875504E+02  0.20823734650E+02  0.32057502771E+02  0.51100000000E-03 0. -1.
        -11    1    3    3    0    0  0.18023478054E+01  0.17668545609E+00  0.44275031205E+01  0.47835613830E+01  0.51100000000E-03 0.  1.
         12    1    3    3    0    0  0.66579316655E+01  0.52554682477E+01  0.38164559377E+01  0.93012545654E+01  0.00000000000E+00 0. -1.
</event>
<event>
 7    1  0.1538805E-008  0.4614232E+02  0.7816164E-02  0.1320468E+00
        -11   -1    0    0    0    0  0.00000000000E+00  0.00000000000E+00  0.45593999997E+02  0.45594000000E+02  0.51100000000E-03 0.  1.
         11   -1    0    0    0    0 -0.00000000000E+00 -0.00000000000E+00 -0.45593999997E+02  0.45594000000E+02  0.51100000000E-03 0. -1.
    9900012    2    1    2    0    0  0.15108157754E+02  0.42289498126E+02 -0.35292313559E+01  0.46142317006E+02  0.99999931150E+01 0.  0.
        -12    1    1    2    0    0 -0.15108157754E+02 -0.42289498126E+02  0.35292313559E+01  0.45045682994E+02  0.00000000000E+00 0.  1.
         11    1    3    3    0    0  0.93693385710E+00  0.85098480465E+01 -0.29254041265E+01  0.90472840340E+01  0.51100000000E-03 0. -1.
        -11    1    3    3    0    0  0.11173002216E+02  0.20178455110E+02  0.92394728841E+00  0.23083754201E+02  0.51100000000E-03 0.  1.
        -12    1    3    3    0    0  0.29982216805E+01  0.13601194969E+02 -0.15277745178E+01  0.14011278771E+02  0.00000000000E+00 0.  1.
</event>
<event>
 7    1  0.1538805E-008  0.4614232E+02  0.7816164E-02  0.1320468E+00
        -11   -1    0    0    0    0  0.00000000000E+00  0.00000000000E+00  0.45593999997E+02  0.45594000000E+02  0.51100000000E-03 0. -1.
         11   -1    0    0    0    0 -0.00000000000E+00 -0.00000000000E+00 -0.45593999997E+02  0.45594000000E+02  0.51100000000E-03 0.  1.
    9900012    2    1    2    0    0  0.20999882390E+02 -0.17167775190E+02  0.35963676017E+02  0.46142316988E+02  0.99999929508E+01 0.  0.
        -12    1    1    2    0    0 -0.20999882390E+02  0.17167775190E+02 -0.35963676017E+02  0.45045683012E+02  0.00000000000E+00 0.  1.
         11    1    3    3    0    0  0.16069321898E+02 -0.76534280391E+01  0.20648237153E+02  0.27260736688E+02  0.51100000000E-03 0. -1.
        -11    1    3    3    0    0  0.29435605261E+01 -0.70136439852E+01  0.88450450162E+01  0.11665786391E+02  0.51100000000E-03 0.  1.
         12    1    3    3    0    0  0.19869999661E+01 -0.25007031654E+01  0.64703938480E+01  0.72157939088E+01  0.00000000000E+00 0. -1.
</event>
<event>
 7    1  0.1538805E-008  0.4614232E+02  0.7816164E-02  0.1320468E+00
        -11   -1    0    0    0    0  0.00000000000E+00  0.00000000000E+00  0.45593999997E+02  0.45594000000E+02  0.51100000000E-03 0.  1.
         11   -1    0    0    0    0 -0.00000000000E+00 -0.00000000000E+00 -0.45593999997E+02  0.45594000000E+02  0.51100000000E-03 0. -1.
    9900012    2    1    2    0    0 -0.22496813390E+02 -0.37843144604E+02 -0.95343182584E+01  0.46142318399E+02  0.10000005820E+02 0.  0.
        -12    1    1    2    0    0  0.22496813390E+02  0.37843144604E+02  0.95343182584E+01  0.45045681601E+02  0.00000000000E+00 0.  1.
         11    1    3    3    0    0 -0.11545363211E+02 -0.21102915254E+02 -0.60181806367E+00  0.24062224110E+02  0.51100000000E-03 0. -1.
        -11    1    3    3    0    0 -0.86122403441E+01 -0.10935950706E+02 -0.57699987996E+01  0.15068463359E+02  0.51100000000E-03 0.  1.
         12    1    3    3    0    0 -0.23392098348E+01 -0.58042786444E+01 -0.31625013951E+01  0.70116309306E+01  0.00000000000E+00 0. -1.
</event>
<event>
 7    1  0.1538805E-008  0.4614232E+02  0.7816164E-02  0.1320468E+00
        -11   -1    0    0    0    0  0.00000000000E+00  0.00000000000E+00  0.45593999997E+02  0.45594000000E+02  0.51100000000E-03 0.  1.
         11   -1    0    0    0    0 -0.00000000000E+00 -0.00000000000E+00 -0.45593999997E+02  0.45594000000E+02  0.51100000000E-03 0. -1.
    9900012    2    1    2    0    0 -0.12744607796E+02  0.32555313966E+02 -0.28404929194E+02  0.46142317657E+02  0.99999990463E+01 0.  0.
        -12    1    1    2    0    0  0.12744607796E+02 -0.32555313966E+02  0.28404929194E+02  0.45045682343E+02  0.00000000000E+00 0.  1.
         11    1    3    3    0    0 -0.49589848730E+01  0.18873281821E+02 -0.17062331719E+02  0.25921332173E+02  0.51100000000E-03 0. -1.
        -11    1    3    3    0    0 -0.40600340077E+01  0.47994929041E+01 -0.15280861337E+01  0.64694710582E+01  0.51100000000E-03 0.  1.
        -12    1    3    3    0    0 -0.37255889148E+01  0.88825392406E+01 -0.98145113407E+01  0.13751514425E+02  0.00000000000E+00 0.  1.
</event>
<event>
 7    1  0.1538805E-008  0.4614232E+02  0.7816164E-02  0.1320468E+00
        -11   -1    0    0    0    0  0.00000000000E+00  0.00000000000E+00  0.45593999997E+02  0.45594000000E+02  0.51100000000E-03 0.  1.
         11   -1    0    0    0    0 -0.00000000000E+00 -0.00000000000E+00 -0.45593999997E+02  0.45594000000E+02  0.51100000000E-03 0. -1.
    9900012    2    1    2    0    0 -0.28898555387E+02 -0.30447007104E+02 -0.16339113584E+02  0.46142318989E+02  0.10000011195E+02 0.  0.
        -12    1    1    2    0    0  0.28898555387E+02  0.30447007104E+02  0.16339113584E+02  0.45045681011E+02  0.00000000000E+00 0.  1.
         11    1    3    3    0    0 -0.15068912527E+02 -0.19359058038E+02 -0.13593666077E+02  0.28046978635E+02  0.51100000000E-03 0. -1.
        -11    1    3    3    0    0 -0.13253424633E+02 -0.10236726036E+02 -0.20903322937E+01  0.16876412943E+02  0.51100000000E-03 0.  1.
        -12    1    3    3    0    0 -0.57621822742E+00 -0.85122302932E+00 -0.65511521327E+00  0.12189274113E+01  0.00000000000E+00 0.  1.
</event>
<event>
 7    1  0.1538805E-008  0.4614232E+02  0.7816164E-02  0.1320468E+00
        -11   -1    0    0    0    0  0.00000000000E+00  0.00000000000E+00  0.45593999997E+02  0.45594000000E+02  0.51100000000E-03 0.  1.
         11   -1    0    0    0    0 -0.00000000000E+00 -0.00000000000E+00 -0.45593999997E+02  0.45594000000E+02  0.51100000000E-03 0. -1.
    9900012    2    1    2    0    0 -0.17428583646E+02  0.12139429728E+02 -0.39723952249E+02  0.46142315808E+02  0.99999821924E+01 0.  0.
        -12    1    1    2    0    0  0.17428583646E+02 -0.12139429728E+02  0.39723952249E+02  0.45045684192E+02  0.00000000000E+00 0.  1.
         11    1    3    3    0    0 -0.69007750259E+01  0.65862049890E+01 -0.22613461792E+02  0.24543175153E+02  0.51100000000E-03 0. -1.
        -11    1    3    3    0    0 -0.31748998759E+01  0.15844766678E+01 -0.10056402854E+02  0.10664042111E+02  0.51100000000E-03 0.  1.
         12    1    3    3    0    0 -0.73529087438E+01  0.39687480712E+01 -0.70540876029E+01  0.10935098544E+02  0.00000000000E+00 0. -1.
</event>
<event>
 7    1  0.1538805E-008  0.4614232E+02  0.7816164E-02  0.1320468E+00
        -11   -1    0    0    0    0  0.00000000000E+00  0.00000000000E+00  0.45593999997E+02  0.45594000000E+02  0.51100000000E-03 0. -1.
         11   -1    0    0    0    0 -0.00000000000E+00 -0.00000000000E+00 -0.45593999997E+02  0.45594000000E+02  0.51100000000E-03 0.  1.
    9900012    2    1    2    0    0  0.25293092422E+01  0.25429665544E+02  0.37095123838E+02  0.46142317549E+02  0.99999980688E+01 0.  0.
        -12    1    1    2    0    0 -0.25293092422E+01 -0.25429665544E+02 -0.37095123838E+02  0.45045682451E+02  0.00000000000E+00 0.  1.
         11    1    3    3    0    0 -0.16415637053E+01  0.79374324943E+01  0.84903379607E+01  0.11738117607E+02  0.51100000000E-03 0. -1.
        -11    1    3    3    0    0  0.34057244258E+01  0.15831711333E+02  0.28219282283E+02  0.32535671738E+02  0.51100000000E-03 0.  1.
        -12    1    3    3    0    0  0.76514852171E+00  0.16605217165E+01  0.38550359377E+00  0.18685282047E+01  0.00000000000E+00 0.  1.
</event>
<event>
 7    1  0.1538805E-008  0.4614232E+02  0.7816164E-02  0.1320468E+00
        -11   -1    0    0    0    0  0.00000000000E+00  0.00000000000E+00  0.45593999997E+02  0.45594000000E+02  0.51100000000E-03 0.  1.
         11   -1    0    0    0    0 -0.00000000000E+00 -0.00000000000E+00 -0.45593999997E+02  0.45594000000E+02  0.51100000000E-03 0. -1.
    9900012    2    1    2    0    0  0.38864503981E+02  0.22737425837E+02 -0.12934764103E+01  0.46142320023E+02  0.10000020623E+02 0.  0.
        -12    1    1    2    0    0 -0.38864503981E+02 -0.22737425837E+02  0.12934764103E+01  0.45045679977E+02  0.00000000000E+00 0.  1.
         11    1    3    3    0    0  0.25524139429E+02  0.12405513255E+02 -0.46397480987E+01  0.28755968344E+02  0.51100000000E-03 0. -1.
        -11    1    3    3    0    0  0.34053516041E+01  0.41155030223E+01  0.10610974780E+01  0.54460731534E+01  0.51100000000E-03 0.  1.
         12    1    3    3    0    0  0.99350129483E+01  0.62164095599E+01  0.22851742104E+01  0.11940278526E+02  0.00000000000E+00 0. -1.
</event>
<event>
 7    1  0.1538805E-008  0.4614232E+02  0.7816164E-02  0.1320468E+00
        -11   -1    0    0    0    0  0.00000000000E+00  0.00000000000E+00  0.45593999997E+02  0.45594000000E+02  0.51100000000E-03 0. -1.
         11   -1    0    0    0    0 -0.00000000000E+00 -0.00000000000E+00 -0.45593999997E+02  0.45594000000E+02  0.51100000000E-03 0.  1.
    9900012    2    1    2    0    0 -0.38846854877E+02 -0.13483734284E+02  0.18390873545E+02  0.46142318145E+02  0.10000003500E+02 0.  0.
        -12    1    1    2    0    0  0.38846854877E+02  0.13483734284E+02 -0.18390873545E+02  0.45045681855E+02  0.00000000000E+00 0.  1.
         11    1    3    3    0    0 -0.13243825813E+02 -0.40088599258E+01  0.37394946688E+01  0.14333656223E+02  0.51100000000E-03 0. -1.
        -11    1    3    3    0    0 -0.16350621519E+02 -0.41633962646E+01  0.12311223460E+02  0.20886428987E+02  0.51100000000E-03 0.  1.
        -12    1    3    3    0    0 -0.92524075448E+01 -0.53114780934E+01  0.23401554164E+01  0.10922232935E+02  0.00000000000E+00 0.  1.
</event>
<event>
 7    1  0.1538805E-008  0.4614232E+02  0.7816164E-02  0.1320468E+00
        -11   -1    0    0    0    0  0.00000000000E+00  0.00000000000E+00  0.45593999997E+02  0.45594000000E+02  0.51100000000E-03 0.  1.
         11   -1    0    0    0    0 -0.00000000000E+00 -0.00000000000E+00 -0.45593999997E+02  0.45594000000E+02  0.51100000000E-03 0. -1.
    9900012    2    1    2    0    0  0.24847987253E+02 -0.27135981580E+02 -0.25987101671E+02  0.46142318519E+02  0.10000006907E+02 0.  0.
        -12    1    1    2    0    0 -0.24847987253E+02  0.27135981580E+02  0.25987101671E+02  0.45045681481E+02  0.00000000000E+00 0.  1.
         11    1    3    3    0    0  0.22268280031E+01 -0.48334739407E+00 -0.20789724073E+01  0.30845606154E+01  0.51100000000E-03 0. -1.
        -11    1    3    3    0    0  0.18017875488E+01 -0.32084933341E+01 -0.86496629539E-01  0.36808083045E+01  0.51100000000E-03 0.  1.
        -12    1    3    3    0    0  0.20819371701E+02 -0.23444140852E+02 -0.23821632634E+02  0.39376949599E+02  0.00000000000E+00 0.  1.
</event>
<event>
 7    1  0.1538805E-008  0.4614232E+02  0.7816164E-02  0.1320468E+00
        -11   -1    0    0    0    0  0.00000000000E+00  0.00000000000E+00  0.45593999997E+02  0.45594000000E+02  0.51100000000E-03 0. -1.
         11   -1    0    0    0    0 -0.00000000000E+00 -0.00000000000E+00 -0.45593999997E+02  0.45594000000E+02  0.51100000000E-03 0.  1.
    9900012    2    1    2    0    0 -0.15844672084E+02 -0.32275342819E+02  0.27135993369E+02  0.46142317369E+02  0.99999964264E+01 0.  0.
        -12    1    1    2    0    0  0.15844672084E+02  0.32275342819E+02 -0.27135993369E+02  0.45045682631E+02  0.00000000000E+00 0.  1.
         11    1    3    3    0    0 -0.18136562896E+01 -0.66316234983E-02  0.22857873583E+01  0.29179131624E+01  0.51100000000E-03 0. -1.
        -11    1    3    3    0    0 -0.24179513583E+01 -0.94698009492E+01  0.72573225229E+01  0.12173427999E+02  0.51100000000E-03 0.  1.
         12    1    3    3    0    0 -0.11613064436E+02 -0.22798910247E+02  0.17592883488E+02  0.31050976208E+02  0.00000000000E+00 0. -1.
</event>
<event>
 7    1  0.1538805E-008  0.4614232E+02  0.7816164E-02  0.1320468E+00
        -11   -1    0    0    0    0  0.00000000000E+00  0.00000000000E+00  0.45593999997E+02  0.45594000000E+02  0.51100000000E-03 0.  1.
         11   -1    0    0    0    0 -0.00000000000E+00 -0.00000000000E+00 -0.45593999997E+02  0.45594000000E+02  0.51100000000E-03 0. -1.
    9900012    2    1    2    0    0 -0.11623789361E+02  0.20844867183E+02 -0.38203304674E+02  0.46142318131E+02  0.10000003374E+02 0.  0.
        -12    1    1    2    0    0  0.11623789361E+02 -0.20844867183E+02  0.38203304674E+02  0.45045681869E+02  0.00000000000E+00 0.  1.
         11    1    3    3    0    0 -0.35908662729E+01  0.10228921253E+02 -0.24802753806E+02  0.27068464072E+02  0.51100000000E-03 0. -1.
        -11    1    3    3    0    0 -0.31370313008E+01  0.38292165243E+01 -0.32643357954E+01  0.59295660059E+01  0.51100000000E-03 0.  1.
         12    1    3    3    0    0 -0.48958917872E+01  0.67867294058E+01 -0.10136215073E+02  0.13144288053E+02  0.00000000000E+00 0. -1.
</event>
<event>
 7    1  0.1538805E-008  0.4614232E+02  0.7816164E-02  0.1320468E+00
        -11   -1    0    0    0    0  0.00000000000E+00  0.00000000000E+00  0.45593999997E+02  0.45594000000E+02  0.51100000000E-03 0.  1.
         11   -1    0    0    0    0 -0.00000000000E+00 -0.00000000000E+00 -0.45593999997E+02  0.45594000000E+02  0.51100000000E-03 0. -1.
    9900012    2    1    2    0    0  0.43507934872E+02  0.20035298983E+01 -0.11496041115E+02  0.46142317741E+02  0.99999998144E+01 0.  0.
        -12    1    1    2    0    0 -0.43507934872E+02 -0.20035298983E+01  0.11496041115E+02  0.45045682259E+02  0.00000000000E+00 0.  1.
         11    1    3    3    0    0  0.16242003737E+02  0.17497753985E+01 -0.72802454017E+01  0.17884808434E+02  0.51100000000E-03 0. -1.
        -11    1    3    3    0    0  0.18334121489E+02 -0.20580235973E+01 -0.96166401777E+00  0.18474313785E+02  0.51100000000E-03 0.  1.
        -12    1    3    3    0    0  0.89318096459E+01  0.23117780972E+01 -0.32541316953E+01  0.97831955215E+01  0.00000000000E+00 0.  1.
</event>
<event>
 7    1  0.1538805E-008  0.4614232E+02  0.7816164E-02  0.1320468E+00
        -11   -1    0    0    0    0  0.00000000000E+00  0.00000000000E+00  0.45593999997E+02  0.45594000000E+02  0.51100000000E-03 0.  1.
         11   -1    0    0    0    0 -0.00000000000E+00 -0.00000000000E+00 -0.45593999997E+02  0.45594000000E+02  0.51100000000E-03 0. -1.
    9900012    2    1    2    0    0 -0.12133104511E+02 -0.34129266785E+02 -0.26778620482E+02  0.46142316619E+02  0.99999895832E+01 0.  0.
        -12    1    1    2    0    0  0.12133104511E+02  0.34129266785E+02  0.26778620482E+02  0.45045683381E+02  0.00000000000E+00 0.  1.
         11    1    3    3    0    0 -0.44153196225E+01 -0.58363831001E+01 -0.25373585333E+01  0.77457474557E+01  0.51100000000E-03 0.  1.
        -11    1    3    3    0    0 -0.77831429488E+01 -0.26857955479E+02 -0.21397118156E+02  0.35210279072E+02  0.51100000000E-03 0. -1.
         12    1    3    3    0    0  0.65358060296E-01 -0.14349282061E+01 -0.28441437925E+01  0.31862900911E+01  0.00000000000E+00 0. -1.
</event>
<event>
 7    1  0.1538805E-008  0.4614232E+02  0.7816164E-02  0.1320468E+00
        -11   -1    0    0    0    0  0.00000000000E+00  0.00000000000E+00  0.45593999997E+02  0.45594000000E+02  0.51100000000E-03 0. -1.
         11   -1    0    0    0    0 -0.00000000000E+00 -0.00000000000E+00 -0.45593999997E+02  0.45594000000E+02  0.51100000000E-03 0.  1.
    9900012    2    1    2    0    0 -0.43693459251E+02 -0.80036901628E+01 -0.74790155226E+01  0.46142321953E+02  0.10000038225E+02 0.  0.
        -12    1    1    2    0    0  0.43693459251E+02  0.80036901628E+01  0.74790155226E+01  0.45045678047E+02  0.00000000000E+00 0.  1.
         11    1    3    3    0    0 -0.12325865744E+02 -0.61409879408E+01 -0.21196359895E+01  0.13933110070E+02  0.51100000000E-03 0. -1.
        -11    1    3    3    0    0 -0.30631550375E+02 -0.22987641990E+01 -0.57786135542E+01  0.31256496446E+02  0.51100000000E-03 0.  1.
         12    1    3    3    0    0 -0.73604313180E+00  0.43606197702E+00  0.41923402111E+00  0.95271543712E+00  0.00000000000E+00 0. -1.
</event>
<event>
 7    1  0.1538805E-008  0.4614232E+02  0.7816164E-02  0.1320468E+00
        -11   -1    0    0    0    0  0.00000000000E+00  0.00000000000E+00  0.45593999997E+02  0.45594000000E+02  0.51100000000E-03 0.  1.
         11   -1    0    0    0    0 -0.00000000000E+00 -0.00000000000E+00 -0.45593999997E+02  0.45594000000E+02  0.51100000000E-03 0. -1.
    9900012    2    1    2    0    0  0.24727753929E+02  0.51058280185E+01 -0.37303912733E+02  0.46142320970E+02  0.10000029260E+02 0.  0.
        -12    1    1    2    0    0 -0.24727753929E+02 -0.51058280185E+01  0.37303912733E+02  0.45045679030E+02  0.00000000000E+00 0.  1.
         11    1    3    3    0    0  0.10761419502E+02  0.15132064010E+01 -0.10426012151E+02  0.15059869619E+02  0.51100000000E-03 0. -1.
        -11    1    3    3    0    0  0.77489756634E+01  0.80043125513E+00 -0.87484557737E+01  0.11714213278E+02  0.51100000000E-03 0.  1.
        -12    1    3    3    0    0  0.62173587636E+01  0.27921903624E+01 -0.18129444808E+02  0.19368238073E+02  0.00000000000E+00 0.  1.
</event>
<event>
 7    1  0.1538805E-008  0.4614232E+02  0.7816164E-02  0.1320468E+00
        -11   -1    0    0    0    0  0.00000000000E+00  0.00000000000E+00  0.45593999997E+02  0.45594000000E+02  0.51100000000E-03 0.  1.
         11   -1    0    0    0    0 -0.00000000000E+00 -0.00000000000E+00 -0.45593999997E+02  0.45594000000E+02  0.51100000000E-03 0. -1.
    9900012    2    1    2    0    0  0.30880850762E+02 -0.31552814908E+02  0.89390368695E+01  0.46142318159E+02  0.10000003624E+02 0.  0.
        -12    1    1    2    0    0 -0.30880850762E+02  0.31552814908E+02 -0.89390368695E+01  0.45045681841E+02  0.00000000000E+00 0.  1.
         11    1    3    3    0    0  0.29828439460E+01 -0.68438363765E+01  0.16121552483E+00  0.74673586401E+01  0.51100000000E-03 0. -1.
        -11    1    3    3    0    0  0.23991594892E+02 -0.23109919645E+02  0.87980298339E+01  0.34453887163E+02  0.51100000000E-03 0.  1.
        -12    1    3    3    0    0  0.39064119241E+01 -0.15990588869E+01 -0.20208489213E-01  0.42210723552E+01  0.00000000000E+00 0.  1.
</event>
<event>
 7    1  0.1538805E-008  0.4614231E+02  0.7816164E-02  0.1320468E+00
        -11   -1    0    0    0    0  0.00000000000E+00  0.00000000000E+00  0.45593999997E+02  0.45594000000E+02  0.51100000000E-03 0.  1.
         11   -1    0    0    0    0 -0.00000000000E+00 -0.00000000000E+00 -0.45593999997E+02  0.45594000000E+02  0.51100000000E-03 0. -1.
    9900012    2    1    2    0    0  0.78781253725E+01  0.16457961101E+02 -0.41184759908E+02  0.46142314395E+02  0.99999693007E+01 0.  0.
        -12    1    1    2    0    0 -0.78781253725E+01 -0.16457961101E+02  0.41184759908E+02  0.45045685605E+02  0.00000000000E+00 0.  1.
         11    1    3    3    0    0  0.77401686167E+01  0.10790909200E+02 -0.25418570058E+02  0.28678522201E+02  0.51100000000E-03 0. -1.
        -11    1    3    3    0    0  0.14303386851E+00 -0.71889990813E+00 -0.40920390376E+01  0.41571696515E+01  0.51100000000E-03 0.  1.
        -12    1    3    3    0    0 -0.50771126918E-02  0.63859518086E+01 -0.11674150812E+02  0.13306622542E+02  0.00000000000E+00 0.  1.
</event>
<event>
 7    1  0.1538805E-008  0.4614232E+02  0.7816164E-02  0.1320468E+00
        -11   -1    0    0    0    0  0.00000000000E+00  0.00000000000E+00  0.45593999997E+02  0.45594000000E+02  0.51100000000E-03 0.  1.
         11   -1    0    0    0    0 -0.00000000000E+00 -0.00000000000E+00 -0.45593999997E+02  0.45594000000E+02  0.51100000000E-03 0. -1.
    9900012    2    1    2    0    0  0.27778306910E+00  0.43831688485E+02 -0.10383611997E+02  0.46142317887E+02  0.10000001149E+02 0.  0.
        -12    1    1    2    0    0 -0.27778306910E+00 -0.43831688485E+02  0.10383611997E+02  0.45045682113E+02  0.00000000000E+00 0.  1.
         11    1    3    3    0    0 -0.30475987842E+01  0.17487525658E+02 -0.20406433000E+01  0.17868005969E+02  0.51100000000E-03 0. -1.
        -11    1    3    3    0    0 -0.72288442824E+00  0.74377676216E+01 -0.39256299862E+01  0.84411800205E+01  0.51100000000E-03 0.  1.
        -12    1    3    3    0    0  0.40482662816E+01  0.18906395206E+02 -0.44173387105E+01  0.19833131898E+02  0.00000000000E+00 0.  1.
</event>
<event>
 7    1  0.1538805E-008  0.4614232E+02  0.7816164E-02  0.1320468E+00
        -11   -1    0    0    0    0  0.00000000000E+00  0.00000000000E+00  0.45593999997E+02  0.45594000000E+02  0.51100000000E-03 0.  1.
         11   -1    0    0    0    0 -0.00000000000E+00 -0.00000000000E+00 -0.45593999997E+02  0.45594000000E+02  0.51100000000E-03 0. -1.
    9900012    2    1    2    0    0  0.35149618805E+02  0.15337626513E+02 -0.23629961952E+02  0.46142316622E+02  0.99999896106E+01 0.  0.
        -12    1    1    2    0    0 -0.35149618805E+02 -0.15337626513E+02  0.23629961952E+02  0.45045683378E+02  0.00000000000E+00 0.  1.
         11    1    3    3    0    0  0.15380241411E+02  0.76360933771E+01 -0.13326611322E+02  0.21736152316E+02  0.51100000000E-03 0. -1.
        -11    1    3    3    0    0  0.36348262883E+01  0.42934302206E+01 -0.29205595307E+01  0.63383888677E+01  0.51100000000E-03 0.  1.
         12    1    3    3    0    0  0.16134551106E+02  0.34081029149E+01 -0.73827910991E+01  0.18067775438E+02  0.00000000000E+00 0. -1.
</event>
<event>
 7    1  0.1538805E-008  0.4614232E+02  0.7816164E-02  0.1320468E+00
        -11   -1    0    0    0    0  0.00000000000E+00  0.00000000000E+00  0.45593999997E+02  0.45594000000E+02  0.51100000000E-03 0.  1.
         11   -1    0    0    0    0 -0.00000000000E+00 -0.00000000000E+00 -0.45593999997E+02  0.45594000000E+02  0.51100000000E-03 0. -1.
    9900012    2    1    2    0    0  0.95197517961E+01 -0.19352554404E+02 -0.39547015619E+02  0.46142317848E+02  0.10000000791E+02 0.  0.
        -12    1    1    2    0    0 -0.95197517961E+01  0.19352554404E+02  0.39547015619E+02  0.45045682152E+02  0.00000000000E+00 0.  1.
         11    1    3    3    0    0 -0.47042669610E-01  0.87869515926E-01  0.38690543475E+00  0.39953740895E+00  0.51100000000E-03 0.  1.
        -11    1    3    3    0    0  0.78144480110E+01 -0.12983188878E+02 -0.31679632584E+02  0.35117344889E+02  0.51100000000E-03 0. -1.
        -12    1    3    3    0    0  0.17523464547E+01 -0.64572350417E+01 -0.82542884693E+01  0.10625435549E+02  0.00000000000E+00 0.  1.
</event>
<event>
 7    1  0.1538805E-008  0.4614233E+02  0.7816164E-02  0.1320468E+00
        -11   -1    0    0    0    0  0.00000000000E+00  0.00000000000E+00  0.45593999997E+02  0.45594000000E+02  0.51100000000E-03 0. -1.
         11   -1    0    0    0    0 -0.00000000000E+00 -0.00000000000E+00 -0.45593999997E+02  0.45594000000E+02  0.51100000000E-03 0.  1.
    9900012    2    1    2    0    0  0.40689594625E+02  0.74978842525E+01  0.17811534262E+02  0.46142332819E+02  0.10000137311E+02 0.  0.
        -12    1    1    2    0    0 -0.40689594625E+02 -0.74978842525E+01 -0.17811534262E+02  0.45045667181E+02  0.00000000000E+00 0.  1.
         11    1    3    3    0    0  0.85274051895E+01  0.69363627286E+00  0.56116856654E+01  0.10231753848E+02  0.51100000000E-03 0. -1.
        -11    1    3    3    0    0  0.16507236487E+02  0.56722406226E+01  0.98433808682E+01  0.20038845209E+02  0.51100000000E-03 0.  1.
        -12    1    3    3    0    0  0.15654952948E+02  0.11320073570E+01  0.23564677288E+01  0.15871733762E+02  0.00000000000E+00 0.  1.
</event>
<event>
 7    1  0.1538805E-008  0.4614232E+02  0.7816164E-02  0.1320468E+00
        -11   -1    0    0    0    0  0.00000000000E+00  0.00000000000E+00  0.45593999997E+02  0.45594000000E+02  0.51100000000E-03 0. -1.
         11   -1    0    0    0    0 -0.00000000000E+00 -0.00000000000E+00 -0.45593999997E+02  0.45594000000E+02  0.51100000000E-03 0.  1.
    9900012    2    1    2    0    0  0.20719550985E+02  0.38139312028E+02 -0.12050169085E+02  0.46142317744E+02  0.99999998427E+01 0.  0.
        -12    1    1    2    0    0 -0.20719550985E+02 -0.38139312028E+02  0.12050169085E+02  0.45045682256E+02  0.00000000000E+00 0.  1.
         11    1    3    3    0    0  0.12569893944E+02  0.24196170484E+02 -0.75608414099E+01  0.28295286232E+02  0.51100000000E-03 0. -1.
        -11    1    3    3    0    0  0.79389469388E+01  0.14158677609E+02 -0.32282439299E+01  0.16550425652E+02  0.51100000000E-03 0.  1.
        -12    1    3    3    0    0  0.21071010154E+00 -0.21553606579E+00 -0.12610837451E+01  0.12966058595E+01  0.00000000000E+00 0.  1.
</event>
<event>
 7    1  0.1538805E-008  0.4614232E+02  0.7816164E-02  0.1320468E+00
        -11   -1    0    0    0    0  0.00000000000E+00  0.00000000000E+00  0.45593999997E+02  0.45594000000E+02  0.51100000000E-03 0.  1.
         11   -1    0    0    0    0 -0.00000000000E+00 -0.00000000000E+00 -0.45593999997E+02  0.45594000000E+02  0.51100000000E-03 0. -1.
    9900012    2    1    2    0    0 -0.23766680646E+02  0.29789167245E+02 -0.24017990417E+02  0.46142318101E+02  0.10000003100E+02 0.  0.
        -12    1    1    2    0    0  0.23766680646E+02 -0.29789167245E+02  0.24017990417E+02  0.45045681899E+02  0.00000000000E+00 0.  1.
         11    1    3    3    0    0 -0.19801241305E+02  0.24509893907E+02 -0.22803078150E+02  0.38894786667E+02  0.51100000000E-03 0. -1.
        -11    1    3    3    0    0  0.31982192094E+00  0.11496764835E+01 -0.23240767843E+00  0.12157531278E+01  0.51100000000E-03 0.  1.
         12    1    3    3    0    0 -0.42852612620E+01  0.41295968541E+01 -0.98250458925E+00  0.60317783057E+01  0.00000000000E+00 0. -1.
</event>
<event>
 7    1  0.1538805E-008  0.4614232E+02  0.7816164E-02  0.1320468E+00
        -11   -1    0    0    0    0  0.00000000000E+00  0.00000000000E+00  0.45593999997E+02  0.45594000000E+02  0.51100000000E-03 0. -1.
         11   -1    0    0    0    0 -0.00000000000E+00 -0.00000000000E+00 -0.45593999997E+02  0.45594000000E+02  0.51100000000E-03 0.  1.
    9900012    2    1    2    0    0  0.41669377095E+02  0.10085352659E+02  0.13822523708E+02  0.46142317772E+02  0.10000000102E+02 0.  0.
        -12    1    1    2    0    0 -0.41669377095E+02 -0.10085352659E+02 -0.13822523708E+02  0.45045682228E+02  0.00000000000E+00 0.  1.
         11    1    3    3    0    0  0.27306586162E+02  0.57195474354E+01  0.88951225273E+01  0.29282863175E+02  0.51100000000E-03 0. -1.
        -11    1    3    3    0    0  0.11654141809E+02  0.18872223398E+01  0.16175558808E+01  0.11916254309E+02  0.51100000000E-03 0.  1.
         12    1    3    3    0    0  0.27086491239E+01  0.24785828840E+01  0.33098452994E+01  0.49432002888E+01  0.00000000000E+00 0. -1.
</event>
<event>
 7    1  0.1538805E-008  0.4614232E+02  0.7816164E-02  0.1320468E+00
        -11   -1    0    0    0    0  0.00000000000E+00  0.00000000000E+00  0.45593999997E+02  0.45594000000E+02  0.51100000000E-03 0.  1.
         11   -1    0    0    0    0 -0.00000000000E+00 -0.00000000000E+00 -0.45593999997E+02  0.45594000000E+02  0.51100000000E-03 0. -1.
    9900012    2    1    2    0    0 -0.14631199150E+02 -0.47860026502E+01 -0.42333623941E+02  0.46142317345E+02  0.99999962036E+01 0.  0.
        -12    1    1    2    0    0  0.14631199150E+02  0.47860026502E+01  0.42333623941E+02  0.45045682655E+02  0.00000000000E+00 0.  1.
         11    1    3    3    0    0 -0.69384101356E+01 -0.36224319949E+00 -0.19820415869E+02  0.21002896010E+02  0.51100000000E-03 0. -1.
        -11    1    3    3    0    0 -0.47504077540E+01 -0.61527381922E+01 -0.15791042322E+02  0.17600556212E+02  0.51100000000E-03 0.  1.
        -12    1    3    3    0    0 -0.29423812603E+01  0.17289787415E+01 -0.67221657503E+01  0.75388651231E+01  0.00000000000E+00 0.  1.
</event>
<event>
 7    1  0.1538805E-008  0.4614232E+02  0.7816164E-02  0.1320468E+00
        -11   -1    0    0    0    0  0.00000000000E+00  0.00000000000E+00  0.45593999997E+02  0.45594000000E+02  0.51100000000E-03 0.  1.
         11   -1    0    0    0    0 -0.00000000000E+00 -0.00000000000E+00 -0.45593999997E+02  0.45594000000E+02  0.51100000000E-03 0. -1.
    9900012    2    1    2    0    0 -0.35162173485E+02  0.21377984854E+02 -0.18322581178E+02  0.46142315838E+02  0.99999824612E+01 0.  0.
        -12    1    1    2    0    0  0.35162173485E+02 -0.21377984854E+02  0.18322581178E+02  0.45045684162E+02  0.00000000000E+00 0.  1.
         11    1    3    3    0    0 -0.27701183494E+02  0.13116403580E+02 -0.16660248310E+02  0.34884946379E+02  0.51100000000E-03 0. -1.
        -11    1    3    3    0    0 -0.32923953168E+01  0.35155884853E+01 -0.77833725299E+00  0.48790407316E+01  0.51100000000E-03 0.  1.
         12    1    3    3    0    0 -0.41685946748E+01  0.47459927881E+01 -0.88399561515E+00  0.63783287274E+01  0.00000000000E+00 0. -1.
</event>
<event>
 7    1  0.1538805E-008  0.4614232E+02  0.7816164E-02  0.1320468E+00
        -11   -1    0    0    0    0  0.00000000000E+00  0.00000000000E+00  0.45593999997E+02  0.45594000000E+02  0.51100000000E-03 0.  1.
         11   -1    0    0    0    0 -0.00000000000E+00 -0.00000000000E+00 -0.45593999997E+02  0.45594000000E+02  0.51100000000E-03 0. -1.
    9900012    2    1    2    0    0  0.41496516250E+02  0.55692873254E+01 -0.16617329018E+02  0.46142318233E+02  0.10000004299E+02 0.  0.
        -12    1    1    2    0    0 -0.41496516250E+02 -0.55692873254E+01  0.16617329018E+02  0.45045681767E+02  0.00000000000E+00 0.  1.
         11    1    3    3    0    0  0.25042779758E+02  0.48005578346E+00 -0.10319049447E+02  0.27089740739E+02  0.51100000000E-03 0. -1.
        -11    1    3    3    0    0  0.13815620370E+02  0.58346994384E+01 -0.64083358495E+01  0.16308950070E+02  0.51100000000E-03 0.  1.
        -12    1    3    3    0    0  0.26381161214E+01 -0.74546789643E+00  0.11005627853E+00  0.27436274235E+01  0.00000000000E+00 0.  1.
</event>
<event>
 7    1  0.1538805E-008  0.4614232E+02  0.7816164E-02  0.1320468E+00
        -11   -1    0    0    0    0  0.00000000000E+00  0.00000000000E+00  0.45593999997E+02  0.45594000000E+02  0.51100000000E-03 0.  1.
         11   -1    0    0    0    0 -0.00000000000E+00 -0.00000000000E+00 -0.45593999997E+02  0.45594000000E+02  0.51100000000E-03 0. -1.
    9900012    2    1    2    0    0  0.11403861193E+02 -0.12166648084E+01 -0.43561280655E+02  0.46142317680E+02  0.99999992649E+01 0.  0.
        -12    1    1    2    0    0 -0.11403861193E+02  0.12166648084E+01  0.43561280655E+02  0.45045682320E+02  0.00000000000E+00 0.  1.
         11    1    3    3    0    0 -0.38254917867E+00  0.38610143573E+00 -0.20094776705E+00  0.57948119812E+00  0.51100000000E-03 0.  1.
        -11    1    3    3    0    0  0.56035041164E+01 -0.44520272015E+01 -0.23713341562E+02  0.24769787502E+02  0.51100000000E-03 0. -1.
         12    1    3    3    0    0  0.61829062551E+01  0.28492609575E+01 -0.19646991326E+02  0.20793048981E+02  0.00000000000E+00 0. -1.
</event>
<event>
 7    1  0.1538805E-008  0.4614232E+02  0.7816164E-02  0.1320468E+00
        -11   -1    0    0    0    0  0.00000000000E+00  0.00000000000E+00  0.45593999997E+02  0.45594000000E+02  0.51100000000E-03 0.  1.
         11   -1    0    0    0    0 -0.00000000000E+00 -0.00000000000E+00 -0.45593999997E+02  0.45594000000E+02  0.51100000000E-03 0. -1.
    9900012    2    1    2    0    0 -0.92253683241E+01  0.36697731981E+01 -0.43937897597E+02  0.46142317618E+02  0.99999986919E+01 0.  0.
        -12    1    1    2    0    0  0.92253683241E+01 -0.36697731981E+01  0.43937897597E+02  0.45045682382E+02  0.00000000000E+00 0.  1.
         11    1    3    3    0    0 -0.70333917503E+01  0.62715709025E+01 -0.35081729385E+02  0.36325320893E+02  0.51100000000E-03 0. -1.
        -11    1    3    3    0    0 -0.14376870552E+01 -0.47779565980E+00 -0.15350165200E+01  0.21567356674E+01  0.51100000000E-03 0.  1.
         12    1    3    3    0    0 -0.75428951865E+00 -0.21240020445E+01 -0.73211516923E+01  0.76602610572E+01  0.00000000000E+00 0. -1.
</event>
<event>
 7    1  0.1538805E-008  0.4614232E+02  0.7816164E-02  0.1320468E+00
        -11   -1    0    0    0    0  0.00000000000E+00  0.00000000000E+00  0.45593999997E+02  0.45594000000E+02  0.51100000000E-03 0.  1.
         11   -1    0    0    0    0 -0.00000000000E+00 -0.00000000000E+00 -0.45593999997E+02  0.45594000000E+02  0.51100000000E-03 0. -1.
    9900012    2    1    2    0    0  0.22129162507E+02  0.25258180236E+02 -0.30023957445E+02  0.46142317380E+02  0.99999965220E+01 0.  0.
        -12    1    1    2    0    0 -0.22129162507E+02 -0.25258180236E+02  0.30023957445E+02  0.45045682620E+02  0.00000000000E+00 0.  1.
         11    1    3    3    0    0  0.69645315165E+01  0.13173520729E+02 -0.12424758867E+02  0.19401571607E+02  0.51100000000E-03 0. -1.
        -11    1    3    3    0    0  0.62359779105E+01  0.71691948412E+01 -0.57296637765E+01  0.11095666831E+02  0.51100000000E-03 0.  1.
        -12    1    3    3    0    0  0.89286530801E+01  0.49154646649E+01 -0.11869534801E+02  0.15645078942E+02  0.00000000000E+00 0.  1.
</event>
<event>
 7    1  0.1538805E-008  0.4614232E+02  0.7816164E-02  0.1320468E+00
        -11   -1    0    0    0    0  0.00000000000E+00  0.00000000000E+00  0.45593999997E+02  0.45594000000E+02  0.51100000000E-03 0.  1.
         11   -1    0    0    0    0 -0.00000000000E+00 -0.00000000000E+00 -0.45593999997E+02  0.45594000000E+02  0.51100000000E-03 0. -1.
    9900012    2    1    2    0    0 -0.37443845307E+02  0.51550604324E+01 -0.24505043132E+02  0.46142319426E+02  0.10000015182E+02 0.  0.
        -12    1    1    2    0    0  0.37443845307E+02 -0.51550604324E+01  0.24505043132E+02  0.45045680574E+02  0.00000000000E+00 0.  1.
         11    1    3    3    0    0 -0.25453142316E+02  0.10643265855E+01 -0.20051822611E+02  0.32420222626E+02  0.51100000000E-03 0. -1.
        -11    1    3    3    0    0 -0.10287220114E+02  0.33030932124E+01 -0.26617047975E+01  0.11127533201E+02  0.51100000000E-03 0.  1.
        -12    1    3    3    0    0 -0.17034828774E+01  0.78764063444E+00 -0.17915157243E+01  0.25945635997E+01  0.00000000000E+00 0.  1.
</event>
<event>
 7    1  0.1538805E-008  0.4614232E+02  0.7816164E-02  0.1320468E+00
        -11   -1    0    0    0    0  0.00000000000E+00  0.00000000000E+00  0.45593999997E+02  0.45594000000E+02  0.51100000000E-03 0.  1.
         11   -1    0    0    0    0 -0.00000000000E+00 -0.00000000000E+00 -0.45593999997E+02  0.45594000000E+02  0.51100000000E-03 0. -1.
    9900012    2    1    2    0    0 -0.19994787070E+02  0.13758149723E+02 -0.37947796170E+02  0.46142318432E+02  0.10000006114E+02 0.  0.
        -12    1    1    2    0    0  0.19994787070E+02 -0.13758149723E+02  0.37947796170E+02  0.45045681568E+02  0.00000000000E+00 0.  1.
         11    1    3    3    0    0 -0.44347042921E+01  0.18834229234E+01 -0.29787701744E+01  0.56645349394E+01  0.51100000000E-03 0. -1.
        -11    1    3    3    0    0 -0.91956932838E+01  0.47352811000E+01 -0.22495361410E+02  0.24759340607E+02  0.51100000000E-03 0.  1.
        -12    1    3    3    0    0 -0.63643894940E+01  0.71394456995E+01 -0.12473664586E+02  0.15718442885E+02  0.00000000000E+00 0.  1.
</event>
<event>
 7    1  0.1538805E-008  0.4614232E+02  0.7816164E-02  0.1320468E+00
        -11   -1    0    0    0    0  0.00000000000E+00  0.00000000000E+00  0.45593999997E+02  0.45594000000E+02  0.51100000000E-03 0.  1.
         11   -1    0    0    0    0 -0.00000000000E+00 -0.00000000000E+00 -0.45593999997E+02  0.45594000000E+02  0.51100000000E-03 0. -1.
    9900012    2    1    2    0    0 -0.83150770715E+01  0.28532031605E+01 -0.44179545136E+02  0.46142317816E+02  0.10000000504E+02 0.  0.
        -12    1    1    2    0    0  0.83150770715E+01 -0.28532031605E+01  0.44179545136E+02  0.45045682184E+02  0.00000000000E+00 0.  1.
         11    1    3    3    0    0 -0.53530571446E+00  0.26213398948E+01 -0.24605600204E+02  0.24750626996E+02  0.51100000000E-03 0.  1.
        -11    1    3    3    0    0 -0.43347660113E+01 -0.14392976055E-01 -0.15269710023E+02  0.15873073048E+02  0.51100000000E-03 0. -1.
        -12    1    3    3    0    0 -0.34450053457E+01  0.24625624176E+00 -0.43042349091E+01  0.55186177727E+01  0.00000000000E+00 0.  1.
</event>
<event>
 7    1  0.1538805E-008  0.4614232E+02  0.7816164E-02  0.1320468E+00
        -11   -1    0    0    0    0  0.00000000000E+00  0.00000000000E+00  0.45593999997E+02  0.45594000000E+02  0.51100000000E-03 0. -1.
         11   -1    0    0    0    0 -0.00000000000E+00 -0.00000000000E+00 -0.45593999997E+02  0.45594000000E+02  0.51100000000E-03 0.  1.
    9900012    2    1    2    0    0 -0.33874558517E+01  0.44643875965E+02  0.49560860812E+01  0.46142319768E+02  0.10000018296E+02 0.  0.
        -12    1    1    2    0    0  0.33874558517E+01 -0.44643875965E+02 -0.49560860812E+01  0.45045680232E+02  0.00000000000E+00 0.  1.
         11    1    3    3    0    0 -0.39219379146E+01  0.24029096455E+02  0.13160792303E+01  0.24382599087E+02  0.51100000000E-03 0. -1.
        -11    1    3    3    0    0 -0.12767330345E+01  0.82766990979E+01 -0.10425691511E+01  0.84392384665E+01  0.51100000000E-03 0.  1.
         12    1    3    3    0    0  0.18112150974E+01  0.12338080412E+02  0.46825760019E+01  0.13320482214E+02  0.00000000000E+00 0. -1.
</event>
<event>
 7    1  0.1538805E-008  0.4614232E+02  0.7816164E-02  0.1320468E+00
        -11   -1    0    0    0    0  0.00000000000E+00  0.00000000000E+00  0.45593999997E+02  0.45594000000E+02  0.51100000000E-03 0.  1.
         11   -1    0    0    0    0 -0.00000000000E+00 -0.00000000000E+00 -0.45593999997E+02  0.45594000000E+02  0.51100000000E-03 0. -1.
    9900012    2    1    2    0    0  0.40655668829E+02  0.13563911610E+02 -0.13865431298E+02  0.46142319950E+02  0.10000019958E+02 0.  0.
        -12    1    1    2    0    0 -0.40655668829E+02 -0.13563911610E+02  0.13865431298E+02  0.45045680050E+02  0.00000000000E+00 0.  1.
         11    1    3    3    0    0  0.18009342572E+02  0.32574142437E+01 -0.70769950487E+01  0.19622207486E+02  0.51100000000E-03 0. -1.
        -11    1    3    3    0    0  0.34960300845E+01 -0.61801938491E+00 -0.44190267242E+00  0.35776322540E+01  0.51100000000E-03 0.  1.
        -12    1    3    3    0    0  0.19150296172E+02  0.10924516751E+02 -0.63465335768E+01  0.22942480210E+02  0.00000000000E+00 0.  1.
</event>
<event>
 7    1  0.1538805E-008  0.4614232E+02  0.7816164E-02  0.1320468E+00
        -11   -1    0    0    0    0  0.00000000000E+00  0.00000000000E+00  0.45593999997E+02  0.45594000000E+02  0.51100000000E-03 0. -1.
         11   -1    0    0    0    0 -0.00000000000E+00 -0.00000000000E+00 -0.45593999997E+02  0.45594000000E+02  0.51100000000E-03 0.  1.
    9900012    2    1    2    0    0 -0.35520842047E+02  0.25964270167E+02  0.96560929784E+01  0.46142315671E+02  0.99999809439E+01 0.  0.
        -12    1    1    2    0    0  0.35520842047E+02 -0.25964270167E+02 -0.96560929784E+01  0.45045684329E+02  0.00000000000E+00 0.  1.
         11    1    3    3    0    0 -0.12479001552E+02  0.12039900788E+02  0.60229058408E+01  0.18356472585E+02  0.51100000000E-03 0. -1.
        -11    1    3    3    0    0 -0.15243390137E+02  0.12016172000E+02  0.14411497804E+01  0.19463459233E+02  0.51100000000E-03 0.  1.
        -12    1    3    3    0    0 -0.77984503581E+01  0.19081973798E+01  0.21920373572E+01  0.83223838534E+01  0.00000000000E+00 0.  1.
</event>
<event>
 7    1  0.1538805E-008  0.4614232E+02  0.7816164E-02  0.1320468E+00
        -11   -1    0    0    0    0  0.00000000000E+00  0.00000000000E+00  0.45593999997E+02  0.45594000000E+02  0.51100000000E-03 0.  1.
         11   -1    0    0    0    0 -0.00000000000E+00 -0.00000000000E+00 -0.45593999997E+02  0.45594000000E+02  0.51100000000E-03 0. -1.
    9900012    2    1    2    0    0  0.22303693588E+02 -0.33196499744E+02 -0.20728022213E+02  0.46142320431E+02  0.10000024348E+02 0.  0.
        -12    1    1    2    0    0 -0.22303693588E+02  0.33196499744E+02  0.20728022213E+02  0.45045679569E+02  0.00000000000E+00 0.  1.
         11    1    3    3    0    0  0.15701369963E+02 -0.17028097205E+02 -0.15396191845E+02  0.27812440323E+02  0.51100000000E-03 0. -1.
        -11    1    3    3    0    0  0.49820805653E+01 -0.10491557619E+02 -0.31260731063E+01  0.12027728022E+02  0.51100000000E-03 0.  1.
         12    1    3    3    0    0  0.16202430599E+01 -0.56768449205E+01 -0.22057572618E+01  0.63021520866E+01  0.00000000000E+00 0. -1.
</event>
<event>
 7    1  0.1538805E-008  0.4614232E+02  0.7816164E-02  0.1320468E+00
        -11   -1    0    0    0    0  0.00000000000E+00  0.00000000000E+00  0.45593999997E+02  0.45594000000E+02  0.51100000000E-03 0.  1.
         11   -1    0    0    0    0 -0.00000000000E+00 -0.00000000000E+00 -0.45593999997E+02  0.45594000000E+02  0.51100000000E-03 0. -1.
    9900012    2    1    2    0    0 -0.98985334957E+01 -0.36929032898E+02 -0.23819709535E+02  0.46142323199E+02  0.10000049583E+02 0.  0.
        -12    1    1    2    0    0  0.98985334957E+01  0.36929032898E+02  0.23819709535E+02  0.45045676801E+02  0.00000000000E+00 0.  1.
         11    1    3    3    0    0 -0.37184438290E+01 -0.11195592169E+02 -0.12404052235E+02  0.17118078766E+02  0.51100000000E-03 0. -1.
        -11    1    3    3    0    0 -0.29622851494E+01 -0.69863322936E+01 -0.22846701580E+01  0.79248779305E+01  0.51100000000E-03 0.  1.
         12    1    3    3    0    0 -0.32178045173E+01 -0.18747108435E+02 -0.91309871425E+01  0.21099366502E+02  0.00000000000E+00 0. -1.
</event>
<event>
 7    1  0.1538805E-008  0.4614232E+02  0.7816164E-02  0.1320468E+00
        -11   -1    0    0    0    0  0.00000000000E+00  0.00000000000E+00  0.45593999997E+02  0.45594000000E+02  0.51100000000E-03 0. -1.
         11   -1    0    0    0    0 -0.00000000000E+00 -0.00000000000E+00 -0.45593999997E+02  0.45594000000E+02  0.51100000000E-03 0.  1.
    9900012    2    1    2    0    0  0.11555320461E+02 -0.42357950755E+02  0.10069363775E+02  0.46142317522E+02  0.99999978169E+01 0.  0.
        -12    1    1    2    0    0 -0.11555320461E+02  0.42357950755E+02 -0.10069363775E+02  0.45045682478E+02  0.00000000000E+00 0.  1.
         11    1    3    3    0    0  0.13031833376E+01 -0.16612153279E+02  0.40053356173E+01  0.17137813077E+02  0.51100000000E-03 0. -1.
        -11    1    3    3    0    0  0.31884269709E+01 -0.12394140795E+02  0.19459509703E+00  0.12799166384E+02  0.51100000000E-03 0.  1.
         12    1    3    3    0    0  0.70637101528E+01 -0.13351656680E+02  0.58694330608E+01  0.16205338061E+02  0.00000000000E+00 0. -1.
</event>
<event>
 7    1  0.1538805E-008  0.4614232E+02  0.7816164E-02  0.1320468E+00
        -11   -1    0    0    0    0  0.00000000000E+00  0.00000000000E+00  0.45593999997E+02  0.45594000000E+02  0.51100000000E-03 0.  1.
         11   -1    0    0    0    0 -0.00000000000E+00 -0.00000000000E+00 -0.45593999997E+02  0.45594000000E+02  0.51100000000E-03 0. -1.
    9900012    2    1    2    0    0 -0.14954670636E+02 -0.12878166623E+02 -0.40492272169E+02  0.46142318134E+02  0.10000003398E+02 0.  0.
        -12    1    1    2    0    0  0.14954670636E+02  0.12878166623E+02  0.40492272169E+02  0.45045681866E+02  0.00000000000E+00 0.  1.
         11    1    3    3    0    0 -0.13159794938E+02 -0.75317740927E+01 -0.24382440222E+02  0.28712561976E+02  0.51100000000E-03 0. -1.
        -11    1    3    3    0    0 -0.20846188550E+01 -0.54195578614E+01 -0.12230390338E+02  0.13538821635E+02  0.51100000000E-03 0.  1.
        -12    1    3    3    0    0  0.28974315712E+00  0.73165331083E-01 -0.38794416088E+01  0.38909345225E+01  0.00000000000E+00 0.  1.
</event>
<event>
 7    1  0.1538805E-008  0.4614232E+02  0.7816164E-02  0.1320468E+00
        -11   -1    0    0    0    0  0.00000000000E+00  0.00000000000E+00  0.45593999997E+02  0.45594000000E+02  0.51100000000E-03 0.  1.
         11   -1    0    0    0    0 -0.00000000000E+00 -0.00000000000E+00 -0.45593999997E+02  0.45594000000E+02  0.51100000000E-03 0. -1.
    9900012    2    1    2    0    0 -0.73329938540E+01 -0.43202751307E+02 -0.10433734934E+02  0.46142319363E+02  0.10000014610E+02 0.  0.
        -12    1    1    2    0    0  0.73329938540E+01  0.43202751307E+02  0.10433734934E+02  0.45045680637E+02  0.00000000000E+00 0.  1.
         11    1    3    3    0    0 -0.56212633623E+01 -0.23563635265E+02 -0.53904519019E+01  0.24817342337E+02  0.51100000000E-03 0. -1.
        -11    1    3    3    0    0  0.81875669045E+00 -0.10098698185E+02 -0.53345134252E+01  0.11450375597E+02  0.51100000000E-03 0.  1.
         12    1    3    3    0    0 -0.25304871821E+01 -0.95404178563E+01  0.29123039348E+00  0.98746014297E+01  0.00000000000E+00 0. -1.
</event>
<event>
 7    1  0.1538805E-008  0.4614232E+02  0.7816164E-02  0.1320468E+00
        -11   -1    0    0    0    0  0.00000000000E+00  0.00000000000E+00  0.45593999997E+02  0.45594000000E+02  0.51100000000E-03 0.  1.
         11   -1    0    0    0    0 -0.00000000000E+00 -0.00000000000E+00 -0.45593999997E+02  0.45594000000E+02  0.51100000000E-03 0. -1.
    9900012    2    1    2    0    0  0.23936519970E+02  0.24604237465E+02 -0.29168271366E+02  0.46142317144E+02  0.99999943684E+01 0.  0.
        -12    1    1    2    0    0 -0.23936519970E+02 -0.24604237465E+02  0.29168271366E+02  0.45045682856E+02  0.00000000000E+00 0.  1.
         11    1    3    3    0    0  0.76955495479E+01  0.52190004708E+01 -0.69134163440E+01  0.11586836262E+02  0.51100000000E-03 0. -1.
        -11    1    3    3    0    0  0.56919977474E+01  0.57068085457E+01 -0.27856081840E+01  0.85279607967E+01  0.51100000000E-03 0.  1.
         12    1    3    3    0    0  0.10548972675E+02  0.13678428448E+02 -0.19469246838E+02  0.26027520085E+02  0.00000000000E+00 0. -1.
</event>
<event>
 7    1  0.1538805E-008  0.4614232E+02  0.7816164E-02  0.1320468E+00
        -11   -1    0    0    0    0  0.00000000000E+00  0.00000000000E+00  0.45593999997E+02  0.45594000000E+02  0.51100000000E-03 0. -1.
         11   -1    0    0    0    0 -0.00000000000E+00 -0.00000000000E+00 -0.45593999997E+02  0.45594000000E+02  0.51100000000E-03 0.  1.
    9900012    2    1    2    0    0  0.44983494381E+02 -0.15613220198E+00  0.23610339316E+01  0.46142316242E+02  0.99999861499E+01 0.  0.
        -12    1    1    2    0    0 -0.44983494381E+02  0.15613220198E+00 -0.23610339316E+01  0.45045683758E+02  0.00000000000E+00 0.  1.
         11    1    3    3    0    0  0.35541507120E+02 -0.21297864489E+01  0.49738940260E+01  0.35950999162E+02  0.51100000000E-03 0. -1.
        -11    1    3    3    0    0  0.63422022938E+01  0.22453900088E+01 -0.20100203239E+01  0.70217866808E+01  0.51100000000E-03 0.  1.
         12    1    3    3    0    0  0.30997849669E+01 -0.27173576189E+00 -0.60283977049E+00  0.31695303996E+01  0.00000000000E+00 0. -1.
</event>
<event>
 7    1  0.1538805E-008  0.4614231E+02  0.7816164E-02  0.1320468E+00
        -11   -1    0    0    0    0  0.00000000000E+00  0.00000000000E+00  0.45593999997E+02  0.45594000000E+02  0.51100000000E-03 0. -1.
         11   -1    0    0    0    0 -0.00000000000E+00 -0.00000000000E+00 -0.45593999997E+02  0.45594000000E+02  0.51100000000E-03 0.  1.
    9900012    2    1    2    0    0 -0.33159347212E+02  0.29898644136E+02  0.59701616251E+01  0.46142311432E+02  0.99999422902E+01 0.  0.
        -12    1    1    2    0    0  0.33159347212E+02 -0.29898644136E+02 -0.59701616251E+01  0.45045688568E+02  0.00000000000E+00 0.  1.
         11    1    3    3    0    0 -0.24512403133E+02  0.19504805874E+02  0.16346685467E+01  0.31368256264E+02  0.51100000000E-03 0. -1.
        -11    1    3    3    0    0  0.69969156511E-02 -0.86095794453E-01 -0.37877935202E+00  0.38850418439E+00  0.51100000000E-03 0.  1.
        -12    1    3    3    0    0 -0.86539409954E+01  0.10479934056E+02  0.47142724304E+01  0.14385550984E+02  0.00000000000E+00 0.  1.
</event>
<event>
 7    1  0.1538805E-008  0.4614232E+02  0.7816164E-02  0.1320468E+00
        -11   -1    0    0    0    0  0.00000000000E+00  0.00000000000E+00  0.45593999997E+02  0.45594000000E+02  0.51100000000E-03 0. -1.
         11   -1    0    0    0    0 -0.00000000000E+00 -0.00000000000E+00 -0.45593999997E+02  0.45594000000E+02  0.51100000000E-03 0.  1.
    9900012    2    1    2    0    0  0.35186257304E+02 -0.24611510239E+02 -0.13613024284E+02  0.46142316861E+02  0.99999917900E+01 0.  0.
        -12    1    1    2    0    0 -0.35186257304E+02  0.24611510239E+02  0.13613024284E+02  0.45045683139E+02  0.00000000000E+00 0.  1.
         11    1    3    3    0    0  0.90432933381E+01 -0.52582041036E+01 -0.34457942089E+01  0.11013780586E+02  0.51100000000E-03 0. -1.
        -11    1    3    3    0    0  0.16364355142E+01  0.27154356799E+00 -0.21675741142E+01  0.27294752066E+01  0.51100000000E-03 0.  1.
        -12    1    3    3    0    0  0.24506528452E+02 -0.19624849703E+02 -0.79996559611E+01  0.32399061069E+02  0.00000000000E+00 0.  1.
</event>
<event>
 7    1  0.1538805E-008  0.4614232E+02  0.7816164E-02  0.1320468E+00
        -11   -1    0    0    0    0  0.00000000000E+00  0.00000000000E+00  0.45593999997E+02  0.45594000000E+02  0.51100000000E-03 0.  1.
         11   -1    0    0    0    0 -0.00000000000E+00 -0.00000000000E+00 -0.45593999997E+02  0.45594000000E+02  0.51100000000E-03 0. -1.
    9900012    2    1    2    0    0 -0.26745032888E+02 -0.71107245356E+01 -0.35542288723E+02  0.46142317907E+02  0.10000001327E+02 0.  0.
        -12    1    1    2    0    0  0.26745032888E+02  0.71107245356E+01  0.35542288723E+02  0.45045682093E+02  0.00000000000E+00 0.  1.
         11    1    3    3    0    0 -0.19942031861E+01 -0.33185920971E+01 -0.31393079030E+01  0.49844913708E+01  0.51100000000E-03 0. -1.
        -11    1    3    3    0    0 -0.13513748847E+02 -0.15493208035E+01 -0.20780977347E+02  0.24836884318E+02  0.51100000000E-03 0.  1.
        -12    1    3    3    0    0 -0.11237080854E+02 -0.22428116350E+01 -0.11622003473E+02  0.16320942218E+02  0.00000000000E+00 0.  1.
</event>
<event>
 7    1  0.1538805E-008  0.4614232E+02  0.7816164E-02  0.1320468E+00
        -11   -1    0    0    0    0  0.00000000000E+00  0.00000000000E+00  0.45593999997E+02  0.45594000000E+02  0.51100000000E-03 0.  1.
         11   -1    0    0    0    0 -0.00000000000E+00 -0.00000000000E+00 -0.45593999997E+02  0.45594000000E+02  0.51100000000E-03 0. -1.
    9900012    2    1    2    0    0 -0.63654217765E+01  0.24735823962E-01 -0.44593657236E+02  0.46142317944E+02  0.10000001663E+02 0.  0.
        -12    1    1    2    0    0  0.63654217765E+01 -0.24735823962E-01  0.44593657236E+02  0.45045682056E+02  0.00000000000E+00 0.  1.
         11    1    3    3    0    0 -0.39168885321E+01  0.19811750275E+01 -0.25580322088E+02  0.25954189424E+02  0.51100000000E-03 0. -1.
        -11    1    3    3    0    0  0.50680701526E+00 -0.94536679347E+00 -0.15292406212E+02  0.15329979117E+02  0.51100000000E-03 0.  1.
         12    1    3    3    0    0 -0.29553402597E+01 -0.10110724101E+01 -0.37209289362E+01  0.48581494025E+01  0.00000000000E+00 0. -1.
</event>
<event>
 7    1  0.1538805E-008  0.4614232E+02  0.7816164E-02  0.1320468E+00
        -11   -1    0    0    0    0  0.00000000000E+00  0.00000000000E+00  0.45593999997E+02  0.45594000000E+02  0.51100000000E-03 0.  1.
         11   -1    0    0    0    0 -0.00000000000E+00 -0.00000000000E+00 -0.45593999997E+02  0.45594000000E+02  0.51100000000E-03 0. -1.
    9900012    2    1    2    0    0 -0.24791614601E+02  0.20624506604E+02 -0.31450264527E+02  0.46142316900E+02  0.99999921454E+01 0.  0.
        -12    1    1    2    0    0  0.24791614601E+02 -0.20624506604E+02  0.31450264527E+02  0.45045683100E+02  0.00000000000E+00 0.  1.
         11    1    3    3    0    0 -0.16831760374E+02  0.18458959354E+02 -0.20333392611E+02  0.32210063537E+02  0.51100000000E-03 0. -1.
        -11    1    3    3    0    0 -0.67813907284E+01  0.17253045833E+01 -0.83605523219E+01  0.10902420442E+02  0.51100000000E-03 0.  1.
         12    1    3    3    0    0 -0.11784634986E+01  0.44024266657E+00 -0.27563195935E+01  0.30298329203E+01  0.00000000000E+00 0. -1.
</event>
<event>
 7    1  0.1538805E-008  0.4614232E+02  0.7816164E-02  0.1320468E+00
        -11   -1    0    0    0    0  0.00000000000E+00  0.00000000000E+00  0.45593999997E+02  0.45594000000E+02  0.51100000000E-03 0.  1.
         11   -1    0    0    0    0 -0.00000000000E+00 -0.00000000000E+00 -0.45593999997E+02  0.45594000000E+02  0.51100000000E-03 0. -1.
    9900012    2    1    2    0    0 -0.33868926199E+02  0.17089044709E+02 -0.24289378644E+02  0.46142317345E+02  0.99999962062E+01 0.  0.
        -12    1    1    2    0    0  0.33868926199E+02 -0.17089044709E+02  0.24289378644E+02  0.45045682655E+02  0.00000000000E+00 0.  1.
         11    1    3    3    0    0 -0.20475747639E+02  0.71260104348E+01 -0.13611560749E+02  0.25599040068E+02  0.51100000000E-03 0. -1.
        -11    1    3    3    0    0 -0.43528909224E+01  0.32122110576E+01 -0.65070736844E+00  0.54487961607E+01  0.51100000000E-03 0.  1.
         12    1    3    3    0    0 -0.90402876372E+01  0.67508232168E+01 -0.10027110526E+02  0.15094481117E+02  0.00000000000E+00 0. -1.
</event>
<event>
 7    1  0.1538805E-008  0.4614232E+02  0.7816164E-02  0.1320468E+00
        -11   -1    0    0    0    0  0.00000000000E+00  0.00000000000E+00  0.45593999997E+02  0.45594000000E+02  0.51100000000E-03 0.  1.
         11   -1    0    0    0    0 -0.00000000000E+00 -0.00000000000E+00 -0.45593999997E+02  0.45594000000E+02  0.51100000000E-03 0. -1.
    9900012    2    1    2    0    0 -0.32621920264E+02  0.12772264906E+02 -0.28315949168E+02  0.46142318633E+02  0.10000007950E+02 0.  0.
        -12    1    1    2    0    0  0.32621920264E+02 -0.12772264906E+02  0.28315949168E+02  0.45045681367E+02  0.00000000000E+00 0.  1.
         11    1    3    3    0    0 -0.17627010595E+02  0.53942906064E+01 -0.14164365840E+02  0.23247346807E+02  0.51100000000E-03 0. -1.
        -11    1    3    3    0    0 -0.12205274375E+02  0.67062203791E+01 -0.14377948188E+02  0.20016680761E+02  0.51100000000E-03 0.  1.
        -12    1    3    3    0    0 -0.27896352936E+01  0.67175392049E+00  0.22636485987E+00  0.28782910643E+01  0.00000000000E+00 0.  1.
</event>
<event>
 7    1  0.1538805E-008  0.4614232E+02  0.7816164E-02  0.1320468E+00
        -11   -1    0    0    0    0  0.00000000000E+00  0.00000000000E+00  0.45593999997E+02  0.45594000000E+02  0.51100000000E-03 0.  1.
         11   -1    0    0    0    0 -0.00000000000E+00 -0.00000000000E+00 -0.45593999997E+02  0.45594000000E+02  0.51100000000E-03 0. -1.
    9900012    2    1    2    0    0  0.31012834504E+02  0.15204579816E+02 -0.28916055888E+02  0.46142318304E+02  0.10000004947E+02 0.  0.
        -12    1    1    2    0    0 -0.31012834504E+02 -0.15204579816E+02  0.28916055888E+02  0.45045681696E+02  0.00000000000E+00 0.  1.
         11    1    3    3    0    0  0.22111276379E+02  0.13661006180E+02 -0.25301701150E+02  0.36272685512E+02  0.51100000000E-03 0. -1.
        -11    1    3    3    0    0  0.37645949961E+01  0.12330211049E+01 -0.94649176626E+00  0.40728814682E+01  0.51100000000E-03 0.  1.
         12    1    3    3    0    0  0.51369631293E+01  0.31055253193E+00 -0.26678629723E+01  0.57967513234E+01  0.00000000000E+00 0. -1.
</event>
<event>
 7    1  0.1538805E-008  0.4614232E+02  0.7816164E-02  0.1320468E+00
        -11   -1    0    0    0    0  0.00000000000E+00  0.00000000000E+00  0.45593999997E+02  0.45594000000E+02  0.51100000000E-03 0.  1.
         11   -1    0    0    0    0 -0.00000000000E+00 -0.00000000000E+00 -0.45593999997E+02  0.45594000000E+02  0.51100000000E-03 0. -1.
    9900012    2    1    2    0    0 -0.29417901816E+02  0.21753398317E+02 -0.26277179392E+02  0.46142318272E+02  0.10000004655E+02 0.  0.
        -12    1    1    2    0    0  0.29417901816E+02 -0.21753398317E+02  0.26277179392E+02  0.45045681728E+02  0.00000000000E+00 0.  1.
         11    1    3    3    0    0 -0.15033508139E+02  0.59925961465E+01 -0.10873073915E+02  0.19497212933E+02  0.51100000000E-03 0. -1.
        -11    1    3    3    0    0 -0.83305541336E+01  0.11739517444E+02 -0.11286005794E+02  0.18291755767E+02  0.51100000000E-03 0.  1.
        -12    1    3    3    0    0 -0.60538395434E+01  0.40212847258E+01 -0.41180996826E+01  0.83533495712E+01  0.00000000000E+00 0.  1.
</event>
<event>
 7    1  0.1538805E-008  0.4614232E+02  0.7816164E-02  0.1320468E+00
        -11   -1    0    0    0    0  0.00000000000E+00  0.00000000000E+00  0.45593999997E+02  0.45594000000E+02  0.51100000000E-03 0.  1.
         11   -1    0    0    0    0 -0.00000000000E+00 -0.00000000000E+00 -0.45593999997E+02  0.45594000000E+02  0.51100000000E-03 0. -1.
    9900012    2    1    2    0    0  0.27445279233E+02  0.33548379764E+02 -0.12262805314E+02  0.46142317286E+02  0.99999956655E+01 0.  0.
        -12    1    1    2    0    0 -0.27445279233E+02 -0.33548379764E+02  0.12262805314E+02  0.45045682714E+02  0.00000000000E+00 0.  1.
         11    1    3    3    0    0  0.70989234252E+01  0.94413466906E+01 -0.49252850681E+01  0.12798131676E+02  0.51100000000E-03 0. -1.
        -11    1    3    3    0    0  0.50545778821E+01  0.29059693144E+01  0.98040712463E+00  0.59122426890E+01  0.51100000000E-03 0.  1.
        -12    1    3    3    0    0  0.15291777926E+02  0.21201063759E+02 -0.83179273709E+01  0.27431942921E+02  0.00000000000E+00 0.  1.
</event>
<event>
 7    1  0.1538805E-008  0.4614232E+02  0.7816164E-02  0.1320468E+00
        -11   -1    0    0    0    0  0.00000000000E+00  0.00000000000E+00  0.45593999997E+02  0.45594000000E+02  0.51100000000E-03 0.  1.
         11   -1    0    0    0    0 -0.00000000000E+00 -0.00000000000E+00 -0.45593999997E+02  0.45594000000E+02  0.51100000000E-03 0. -1.
    9900012    2    1    2    0    0  0.35039425591E+02 -0.27823790516E+02 -0.52142848342E+01  0.46142318400E+02  0.10000005828E+02 0.  0.
        -12    1    1    2    0    0 -0.35039425591E+02  0.27823790516E+02  0.52142848342E+01  0.45045681600E+02  0.00000000000E+00 0.  1.
         11    1    3    3    0    0  0.10585739930E+02 -0.10678667872E+02 -0.14393234879E+01  0.15105081587E+02  0.51100000000E-03 0. -1.
        -11    1    3    3    0    0  0.22529466239E+01 -0.34899893149E+01  0.15518415302E+01  0.44344116075E+01  0.51100000000E-03 0.  1.
        -12    1    3    3    0    0  0.22200739038E+02 -0.13655133329E+02 -0.53268028764E+01  0.26602825206E+02  0.00000000000E+00 0.  1.
</event>
<event>
 7    1  0.1538805E-008  0.4614232E+02  0.7816164E-02  0.1320468E+00
        -11   -1    0    0    0    0  0.00000000000E+00  0.00000000000E+00  0.45593999997E+02  0.45594000000E+02  0.51100000000E-03 0. -1.
         11   -1    0    0    0    0 -0.00000000000E+00 -0.00000000000E+00 -0.45593999997E+02  0.45594000000E+02  0.51100000000E-03 0.  1.
    9900012    2    1    2    0    0  0.42445269822E+02  0.13410203595E+02  0.69050023523E+01  0.46142317097E+02  0.99999939412E+01 0.  0.
        -12    1    1    2    0    0 -0.42445269822E+02 -0.13410203595E+02 -0.69050023523E+01  0.45045682903E+02  0.00000000000E+00 0.  1.
         11    1    3    3    0    0  0.11129924460E+02  0.72469196107E+00  0.49302226078E+01  0.12194568141E+02  0.51100000000E-03 0. -1.
        -11    1    3    3    0    0  0.37573639160E+01  0.21663528536E+01 -0.39638265833E+00  0.43552253393E+01  0.51100000000E-03 0.  1.
         12    1    3    3    0    0  0.27557981446E+02  0.10519158781E+02  0.23711624029E+01  0.29592523616E+02  0.00000000000E+00 0. -1.
</event>
<event>
 7    1  0.1538805E-008  0.4614232E+02  0.7816164E-02  0.1320468E+00
        -11   -1    0    0    0    0  0.00000000000E+00  0.00000000000E+00  0.45593999997E+02  0.45594000000E+02  0.51100000000E-03 0.  1.
         11   -1    0    0    0    0 -0.00000000000E+00 -0.00000000000E+00 -0.45593999997E+02  0.45594000000E+02  0.51100000000E-03 0. -1.
    9900012    2    1    2    0    0 -0.16584182752E+01 -0.44681209707E+02 -0.54729073480E+01  0.46142316890E+02  0.99999920545E+01 0.  0.
        -12    1    1    2    0    0  0.16584182752E+01  0.44681209707E+02  0.54729073480E+01  0.45045683110E+02  0.00000000000E+00 0.  1.
         11    1    3    3    0    0  0.33129057626E+01 -0.12090807470E+02  0.73989355253E+00  0.12558280639E+02  0.51100000000E-03 0. -1.
        -11    1    3    3    0    0 -0.20071327809E+01 -0.10186355138E+02 -0.25379271011E+01  0.10687913138E+02  0.51100000000E-03 0.  1.
         12    1    3    3    0    0 -0.29641912569E+01 -0.22404047098E+02 -0.36748737994E+01  0.22896123113E+02  0.00000000000E+00 0. -1.
</event>
<event>
 7    1  0.1538805E-008  0.4614232E+02  0.7816164E-02  0.1320468E+00
        -11   -1    0    0    0    0  0.00000000000E+00  0.00000000000E+00  0.45593999997E+02  0.45594000000E+02  0.51100000000E-03 0.  1.
         11   -1    0    0    0    0 -0.00000000000E+00 -0.00000000000E+00 -0.45593999997E+02  0.45594000000E+02  0.51100000000E-03 0. -1.
    9900012    2    1    2    0    0  0.34413698924E+01 -0.41866692338E+02 -0.16261936921E+02  0.46142317116E+02  0.99999941137E+01 0.  0.
        -12    1    1    2    0    0 -0.34413698924E+01  0.41866692338E+02  0.16261936921E+02  0.45045682884E+02  0.00000000000E+00 0.  1.
         11    1    3    3    0    0  0.28827954541E+01 -0.35415205824E+02 -0.12452605459E+02  0.37651224365E+02  0.51100000000E-03 0. -1.
        -11    1    3    3    0    0  0.15962442510E+01 -0.29520803986E+01 -0.34667256338E+01  0.48250348465E+01  0.51100000000E-03 0.  1.
         12    1    3    3    0    0 -0.10376698127E+01 -0.34994061160E+01 -0.34260582788E+00  0.36660579044E+01  0.00000000000E+00 0. -1.
</event>
<event>
 7    1  0.1538805E-008  0.4614232E+02  0.7816164E-02  0.1320468E+00
        -11   -1    0    0    0    0  0.00000000000E+00  0.00000000000E+00  0.45593999997E+02  0.45594000000E+02  0.51100000000E-03 0.  1.
         11   -1    0    0    0    0 -0.00000000000E+00 -0.00000000000E+00 -0.45593999997E+02  0.45594000000E+02  0.51100000000E-03 0. -1.
    9900012    2    1    2    0    0 -0.14368137472E+02  0.22080504708E+02 -0.36539314098E+02  0.46142317218E+02  0.99999950491E+01 0.  0.
        -12    1    1    2    0    0  0.14368137472E+02 -0.22080504708E+02  0.36539314098E+02  0.45045682782E+02  0.00000000000E+00 0.  1.
         11    1    3    3    0    0 -0.79886187601E+01  0.74055782139E+01 -0.14554016186E+02  0.18179109048E+02  0.51100000000E-03 0. -1.
        -11    1    3    3    0    0 -0.48033018730E+01  0.14666227318E+02 -0.18196708177E+02  0.23859801369E+02  0.51100000000E-03 0.  1.
        -12    1    3    3    0    0 -0.15762168384E+01  0.86991757194E-02 -0.37885897347E+01  0.41034068011E+01  0.00000000000E+00 0.  1.
</event>
<event>
 7    1  0.1538805E-008  0.4614232E+02  0.7816164E-02  0.1320468E+00
        -11   -1    0    0    0    0  0.00000000000E+00  0.00000000000E+00  0.45593999997E+02  0.45594000000E+02  0.51100000000E-03 0.  1.
         11   -1    0    0    0    0 -0.00000000000E+00 -0.00000000000E+00 -0.45593999997E+02  0.45594000000E+02  0.51100000000E-03 0. -1.
    9900012    2    1    2    0    0  0.92142745340E+01 -0.35199843417E+02 -0.26555253853E+02  0.46142319419E+02  0.10000015120E+02 0.  0.
        -12    1    1    2    0    0 -0.92142745340E+01  0.35199843417E+02  0.26555253853E+02  0.45045680581E+02  0.00000000000E+00 0.  1.
         11    1    3    3    0    0  0.11312854449E+01 -0.12291150821E+02 -0.13654645288E+02  0.18406562239E+02  0.51100000000E-03 0. -1.
        -11    1    3    3    0    0  0.49334500621E+01 -0.13663146661E+02 -0.57161255375E+01  0.15610720599E+02  0.51100000000E-03 0.  1.
        -12    1    3    3    0    0  0.31495390269E+01 -0.92455459347E+01 -0.71844830278E+01  0.12125036581E+02  0.00000000000E+00 0.  1.
</event>
<event>
 7    1  0.1538805E-008  0.4614232E+02  0.7816164E-02  0.1320468E+00
        -11   -1    0    0    0    0  0.00000000000E+00  0.00000000000E+00  0.45593999997E+02  0.45594000000E+02  0.51100000000E-03 0. -1.
         11   -1    0    0    0    0 -0.00000000000E+00 -0.00000000000E+00 -0.45593999997E+02  0.45594000000E+02  0.51100000000E-03 0.  1.
    9900012    2    1    2    0    0 -0.12680572531E+01  0.22555801221E+02  0.38971032187E+02  0.46142317769E+02  0.10000000072E+02 0.  0.
        -12    1    1    2    0    0  0.12680572531E+01 -0.22555801221E+02 -0.38971032187E+02  0.45045682231E+02  0.00000000000E+00 0.  1.
         11    1    3    3    0    0 -0.17820306261E+01  0.22487551076E+00  0.45035501793E+01  0.48485221074E+01  0.51100000000E-03 0.  1.
        -11    1    3    3    0    0  0.22230989248E+01  0.92048862050E+01  0.13253997716E+02  0.16289277289E+02  0.51100000000E-03 0. -1.
         12    1    3    3    0    0 -0.17091255519E+01  0.13126039506E+02  0.21213484292E+02  0.25004518373E+02  0.00000000000E+00 0. -1.
</event>
<event>
 7    1  0.1538805E-008  0.4614232E+02  0.7816164E-02  0.1320468E+00
        -11   -1    0    0    0    0  0.00000000000E+00  0.00000000000E+00  0.45593999997E+02  0.45594000000E+02  0.51100000000E-03 0.  1.
         11   -1    0    0    0    0 -0.00000000000E+00 -0.00000000000E+00 -0.45593999997E+02  0.45594000000E+02  0.51100000000E-03 0. -1.
    9900012    2    1    2    0    0 -0.25868523985E+01 -0.29093483039E+02 -0.34292724492E+02  0.46142317479E+02  0.99999974299E+01 0.  0.
        -12    1    1    2    0    0  0.25868523985E+01  0.29093483039E+02  0.34292724492E+02  0.45045682521E+02  0.00000000000E+00 0.  1.
         11    1    3    3    0    0  0.34060575820E+01 -0.80690665903E+01 -0.11249238800E+02  0.14256803209E+02  0.51100000000E-03 0. -1.
        -11    1    3    3    0    0 -0.42040641117E+01 -0.18086237090E+02 -0.18816379939E+02  0.26435625231E+02  0.51100000000E-03 0.  1.
         12    1    3    3    0    0 -0.17888458688E+01 -0.29381793586E+01 -0.42271057540E+01  0.54498890394E+01  0.00000000000E+00 0. -1.
</event>
<event>
 7    1  0.1538805E-008  0.4614232E+02  0.7816164E-02  0.1320468E+00
        -11   -1    0    0    0    0  0.00000000000E+00  0.00000000000E+00  0.45593999997E+02  0.45594000000E+02  0.51100000000E-03 0.  1.
         11   -1    0    0    0    0 -0.00000000000E+00 -0.00000000000E+00 -0.45593999997E+02  0.45594000000E+02  0.51100000000E-03 0. -1.
    9900012    2    1    2    0    0  0.21329327779E+02  0.26587847642E+02 -0.29449273001E+02  0.46142317121E+02  0.99999941642E+01 0.  0.
        -12    1    1    2    0    0 -0.21329327779E+02 -0.26587847642E+02  0.29449273001E+02  0.45045682879E+02  0.00000000000E+00 0.  1.
         11    1    3    3    0    0  0.17216588998E+02  0.20157287902E+02 -0.17491523860E+02  0.31759732359E+02  0.51100000000E-03 0. -1.
        -11    1    3    3    0    0  0.18541023893E+01  0.29852493381E+01 -0.34237966807E+01  0.49063013822E+01  0.51100000000E-03 0.  1.
         12    1    3    3    0    0  0.22586363918E+01  0.34453104025E+01 -0.85339524598E+01  0.94762833804E+01  0.00000000000E+00 0. -1.
</event>
<event>
 7    1  0.1538805E-008  0.4614232E+02  0.7816164E-02  0.1320468E+00
        -11   -1    0    0    0    0  0.00000000000E+00  0.00000000000E+00  0.45593999997E+02  0.45594000000E+02  0.51100000000E-03 0. -1.
         11   -1    0    0    0    0 -0.00000000000E+00 -0.00000000000E+00 -0.45593999997E+02  0.45594000000E+02  0.51100000000E-03 0.  1.
    9900012    2    1    2    0    0 -0.92407446117E+00 -0.82727329692E+01  0.44269868287E+02  0.46142320268E+02  0.10000022857E+02 0.  0.
        -12    1    1    2    0    0  0.92407446117E+00  0.82727329692E+01 -0.44269868287E+02  0.45045679732E+02  0.00000000000E+00 0.  1.
         11    1    3    3    0    0  0.12147977180E+01 -0.12011917821E+01  0.11029020834E+02  0.11160550883E+02  0.51100000000E-03 0. -1.
        -11    1    3    3    0    0 -0.59489335482E+00 -0.82482280673E+01  0.20686217160E+02  0.22277943015E+02  0.51100000000E-03 0.  1.
        -12    1    3    3    0    0 -0.15439788243E+01  0.11766868801E+01  0.12554630294E+02  0.12703826370E+02  0.00000000000E+00 0.  1.
</event>
<event>
 7    1  0.1538805E-008  0.4614232E+02  0.7816164E-02  0.1320468E+00
        -11   -1    0    0    0    0  0.00000000000E+00  0.00000000000E+00  0.45593999997E+02  0.45594000000E+02  0.51100000000E-03 0. -1.
         11   -1    0    0    0    0 -0.00000000000E+00 -0.00000000000E+00 -0.45593999997E+02  0.45594000000E+02  0.51100000000E-03 0.  1.
    9900012    2    1    2    0    0 -0.22252561520E+02  0.34501611370E+02  0.18535796272E+02  0.46142318467E+02  0.10000006433E+02 0.  0.
        -12    1    1    2    0    0  0.22252561520E+02 -0.34501611370E+02 -0.18535796272E+02  0.45045681533E+02  0.00000000000E+00 0.  1.
         11    1    3    3    0    0 -0.97796545743E+01  0.10478457252E+02  0.53229000434E+01  0.15289636199E+02  0.51100000000E-03 0. -1.
        -11    1    3    3    0    0  0.34816915281E+00  0.40332671064E-01  0.96574984725E+00  0.10273857659E+01  0.51100000000E-03 0.  1.
         12    1    3    3    0    0 -0.12821076099E+02  0.23982821447E+02  0.12247146382E+02  0.29825296501E+02  0.00000000000E+00 0. -1.
</event>
<event>
 7    1  0.1538805E-008  0.4614232E+02  0.7816164E-02  0.1320468E+00
        -11   -1    0    0    0    0  0.00000000000E+00  0.00000000000E+00  0.45593999997E+02  0.45594000000E+02  0.51100000000E-03 0. -1.
         11   -1    0    0    0    0 -0.00000000000E+00 -0.00000000000E+00 -0.45593999997E+02  0.45594000000E+02  0.51100000000E-03 0.  1.
    9900012    2    1    2    0    0 -0.34816153913E+01 -0.42450213255E+02  0.14661894881E+02  0.46142318602E+02  0.10000007664E+02 0.  0.
        -12    1    1    2    0    0  0.34816153913E+01  0.42450213255E+02 -0.14661894881E+02  0.45045681398E+02  0.00000000000E+00 0.  1.
         11    1    3    3    0    0 -0.36311826267E+01 -0.19848806362E+02  0.38664073890E+01  0.20545308653E+02  0.51100000000E-03 0.  1.
        -11    1    3    3    0    0  0.24291429401E+01 -0.13450192574E+02  0.76048390303E+01  0.15641035536E+02  0.51100000000E-03 0. -1.
         12    1    3    3    0    0 -0.22795757046E+01 -0.91512143191E+01  0.31906484620E+01  0.99559744131E+01  0.00000000000E+00 0. -1.
</event>
<event>
 7    1  0.1538805E-008  0.4614232E+02  0.7816164E-02  0.1320468E+00
        -11   -1    0    0    0    0  0.00000000000E+00  0.00000000000E+00  0.45593999997E+02  0.45594000000E+02  0.51100000000E-03 0.  1.
         11   -1    0    0    0    0 -0.00000000000E+00 -0.00000000000E+00 -0.45593999997E+02  0.45594000000E+02  0.51100000000E-03 0. -1.
    9900012    2    1    2    0    0  0.17960062819E+01 -0.13683492812E+02 -0.42879478868E+02  0.46142319607E+02  0.10000016833E+02 0.  0.
        -12    1    1    2    0    0 -0.17960062819E+01  0.13683492812E+02  0.42879478868E+02  0.45045680393E+02  0.00000000000E+00 0.  1.
         11    1    3    3    0    0  0.22730653156E+01 -0.13522515490E+02 -0.38732758092E+02  0.41088341421E+02  0.51100000000E-03 0. -1.
        -11    1    3    3    0    0  0.12763996319E+00 -0.13107848661E+01 -0.10125727572E+01  0.16612503650E+01  0.51100000000E-03 0.  1.
         12    1    3    3    0    0 -0.60469899691E+00  0.11498075435E+01 -0.31341480186E+01  0.33927278209E+01  0.00000000000E+00 0. -1.
</event>
<event>
 7    1  0.1538805E-008  0.4614232E+02  0.7816164E-02  0.1320468E+00
        -11   -1    0    0    0    0  0.00000000000E+00  0.00000000000E+00  0.45593999997E+02  0.45594000000E+02  0.51100000000E-03 0. -1.
         11   -1    0    0    0    0 -0.00000000000E+00 -0.00000000000E+00 -0.45593999997E+02  0.45594000000E+02  0.51100000000E-03 0.  1.
    9900012    2    1    2    0    0  0.15483382171E+02  0.37246115259E+02  0.20052563280E+02  0.46142317416E+02  0.99999968549E+01 0.  0.
        -12    1    1    2    0    0 -0.15483382171E+02 -0.37246115259E+02 -0.20052563280E+02  0.45045682584E+02  0.00000000000E+00 0.  1.
         11    1    3    3    0    0  0.95499472275E+01  0.31838879356E+02  0.17203078786E+02  0.37428086388E+02  0.51100000000E-03 0. -1.
        -11    1    3    3    0    0  0.17403660625E+01  0.13737200747E+01 -0.41082076896E-01  0.22175817625E+01  0.51100000000E-03 0.  1.
         12    1    3    3    0    0  0.41930688813E+01  0.40335158281E+01  0.28905665709E+01  0.64966492656E+01  0.00000000000E+00 0. -1.
</event>
<event>
 7    1  0.1538805E-008  0.4614232E+02  0.7816164E-02  0.1320468E+00
        -11   -1    0    0    0    0  0.00000000000E+00  0.00000000000E+00  0.45593999997E+02  0.45594000000E+02  0.51100000000E-03 0.  1.
         11   -1    0    0    0    0 -0.00000000000E+00 -0.00000000000E+00 -0.45593999997E+02  0.45594000000E+02  0.51100000000E-03 0. -1.
    9900012    2    1    2    0    0  0.15712693179E+02  0.32280991313E+02 -0.27205925507E+02  0.46142317524E+02  0.99999978337E+01 0.  0.
        -12    1    1    2    0    0 -0.15712693179E+02 -0.32280991313E+02  0.27205925507E+02  0.45045682476E+02  0.00000000000E+00 0.  1.
         11    1    3    3    0    0  0.84861491782E+01  0.18156496583E+02 -0.93866818661E+01  0.22131039125E+02  0.51100000000E-03 0. -1.
        -11    1    3    3    0    0 -0.30902053016E-01 -0.31223897088E-01  0.63392282160E-01  0.77127888526E-01  0.51100000000E-03 0.  1.
         12    1    3    3    0    0  0.72574460540E+01  0.14155718627E+02 -0.17882635923E+02  0.23934150510E+02  0.00000000000E+00 0. -1.
</event>
<event>
 7    1  0.1538805E-008  0.4614232E+02  0.7816164E-02  0.1320468E+00
        -11   -1    0    0    0    0  0.00000000000E+00  0.00000000000E+00  0.45593999997E+02  0.45594000000E+02  0.51100000000E-03 0.  1.
         11   -1    0    0    0    0 -0.00000000000E+00 -0.00000000000E+00 -0.45593999997E+02  0.45594000000E+02  0.51100000000E-03 0. -1.
    9900012    2    1    2    0    0 -0.74579962131E+01 -0.23866302904E+02 -0.37468538646E+02  0.46142317520E+02  0.99999978037E+01 0.  0.
        -12    1    1    2    0    0  0.74579962131E+01  0.23866302904E+02  0.37468538646E+02  0.45045682480E+02  0.00000000000E+00 0.  1.
         11    1    3    3    0    0 -0.55576733445E+01 -0.18138183388E+02 -0.32287786560E+02  0.37448399042E+02  0.51100000000E-03 0. -1.
        -11    1    3    3    0    0 -0.79043143855E+00 -0.54081531209E+01 -0.30216655936E+01  0.62452674290E+01  0.51100000000E-03 0.  1.
        -12    1    3    3    0    0 -0.11098914300E+01 -0.31996639546E+00 -0.21590864918E+01  0.24486510490E+01  0.00000000000E+00 0.  1.
</event>
<event>
 7    1  0.1538805E-008  0.4614232E+02  0.7816164E-02  0.1320468E+00
        -11   -1    0    0    0    0  0.00000000000E+00  0.00000000000E+00  0.45593999997E+02  0.45594000000E+02  0.51100000000E-03 0.  1.
         11   -1    0    0    0    0 -0.00000000000E+00 -0.00000000000E+00 -0.45593999997E+02  0.45594000000E+02  0.51100000000E-03 0. -1.
    9900012    2    1    2    0    0  0.25443771307E+02  0.37065156667E+02 -0.28110895725E+01  0.46142316947E+02  0.99999925803E+01 0.  0.
        -12    1    1    2    0    0 -0.25443771307E+02 -0.37065156667E+02  0.28110895725E+01  0.45045683053E+02  0.00000000000E+00 0.  1.
         11    1    3    3    0    0  0.19338590798E+02  0.23089790563E+02 -0.65478613890E+00  0.30125541778E+02  0.51100000000E-03 0. -1.
        -11    1    3    3    0    0  0.35941468473E+00  0.35190500825E+01 -0.20436373208E+01  0.40852596196E+01  0.51100000000E-03 0.  1.
        -12    1    3    3    0    0  0.57457658242E+01  0.10456316022E+02 -0.11266611277E+00  0.11931515550E+02  0.00000000000E+00 0.  1.
</event>
<event>
 7    1  0.1538805E-008  0.4614232E+02  0.7816164E-02  0.1320468E+00
        -11   -1    0    0    0    0  0.00000000000E+00  0.00000000000E+00  0.45593999997E+02  0.45594000000E+02  0.51100000000E-03 0.  1.
         11   -1    0    0    0    0 -0.00000000000E+00 -0.00000000000E+00 -0.45593999997E+02  0.45594000000E+02  0.51100000000E-03 0. -1.
    9900012    2    1    2    0    0  0.30053124007E+02 -0.11527775942E+02 -0.31512435891E+02  0.46142317671E+02  0.99999991780E+01 0.  0.
        -12    1    1    2    0    0 -0.30053124007E+02  0.11527775942E+02  0.31512435891E+02  0.45045682329E+02  0.00000000000E+00 0.  1.
         11    1    3    3    0    0  0.14003085424E+02 -0.58781933406E+01 -0.21564865775E+02  0.26375803201E+02  0.51100000000E-03 0. -1.
        -11    1    3    3    0    0  0.13537256597E+02 -0.41941666333E+01 -0.84349453451E+01  0.16492321036E+02  0.51100000000E-03 0.  1.
        -12    1    3    3    0    0  0.25127819853E+01 -0.14554159679E+01 -0.15126247711E+01  0.32741934341E+01  0.00000000000E+00 0.  1.
</event>
<event>
 7    1  0.1538805E-008  0.4614232E+02  0.7816164E-02  0.1320468E+00
        -11   -1    0    0    0    0  0.00000000000E+00  0.00000000000E+00  0.45593999997E+02  0.45594000000E+02  0.51100000000E-03 0.  1.
         11   -1    0    0    0    0 -0.00000000000E+00 -0.00000000000E+00 -0.45593999997E+02  0.45594000000E+02  0.51100000000E-03 0. -1.
    9900012    2    1    2    0    0  0.25012498525E+02  0.11735671369E+02 -0.35577553993E+02  0.46142318597E+02  0.10000007621E+02 0.  0.
        -12    1    1    2    0    0 -0.25012498525E+02 -0.11735671369E+02  0.35577553993E+02  0.45045681403E+02  0.00000000000E+00 0.  1.
         11    1    3    3    0    0  0.10541813017E+02  0.53360004090E+01 -0.19571966977E+02  0.22861859365E+02  0.51100000000E-03 0. -1.
        -11    1    3    3    0    0  0.69414649424E+01  0.47550351402E+00 -0.44036743081E+01  0.82342204738E+01  0.51100000000E-03 0.  1.
        -12    1    3    3    0    0  0.75292205663E+01  0.59241674464E+01 -0.11601912708E+02  0.15046238758E+02  0.00000000000E+00 0.  1.
</event>
<event>
 7    1  0.1538805E-008  0.4614232E+02  0.7816164E-02  0.1320468E+00
        -11   -1    0    0    0    0  0.00000000000E+00  0.00000000000E+00  0.45593999997E+02  0.45594000000E+02  0.51100000000E-03 0.  1.
         11   -1    0    0    0    0 -0.00000000000E+00 -0.00000000000E+00 -0.45593999997E+02  0.45594000000E+02  0.51100000000E-03 0. -1.
    9900012    2    1    2    0    0  0.89183553561E+01  0.43338830911E+02 -0.84452456859E+01  0.46142317613E+02  0.99999986479E+01 0.  0.
        -12    1    1    2    0    0 -0.89183553561E+01 -0.43338830911E+02  0.84452456859E+01  0.45045682387E+02  0.00000000000E+00 0.  1.
         11    1    3    3    0    0  0.75289257912E+00  0.11268655964E+02 -0.92981221111E+00  0.11331990358E+02  0.51100000000E-03 0. -1.
        -11    1    3    3    0    0  0.85296328130E+01  0.28943577217E+02 -0.87683041272E+01  0.31422419633E+02  0.51100000000E-03 0.  1.
        -12    1    3    3    0    0 -0.36417003603E+00  0.31265977301E+01  0.12528706524E+01  0.33879076216E+01  0.00000000000E+00 0.  1.
</event>
<event>
 7    1  0.1538805E-008  0.4614232E+02  0.7816164E-02  0.1320468E+00
        -11   -1    0    0    0    0  0.00000000000E+00  0.00000000000E+00  0.45593999997E+02  0.45594000000E+02  0.51100000000E-03 0. -1.
         11   -1    0    0    0    0 -0.00000000000E+00 -0.00000000000E+00 -0.45593999997E+02  0.45594000000E+02  0.51100000000E-03 0.  1.
    9900012    2    1    2    0    0  0.39827520834E+02  0.96313607308E+01  0.18711462719E+02  0.46142319160E+02  0.10000012753E+02 0.  0.
        -12    1    1    2    0    0 -0.39827520834E+02 -0.96313607308E+01 -0.18711462719E+02  0.45045680840E+02  0.00000000000E+00 0.  1.
         11    1    3    3    0    0  0.12952598214E+01  0.28850656449E+00 -0.82263986374E+00  0.15613041501E+01  0.51100000000E-03 0.  1.
        -11    1    3    3    0    0  0.11156326664E+02  0.52131279643E+01  0.72745290601E+01  0.14302415919E+02  0.51100000000E-03 0. -1.
        -12    1    3    3    0    0  0.27375934348E+02  0.41297262020E+01  0.12259573523E+02  0.30278599091E+02  0.00000000000E+00 0.  1.
</event>
<event>
 7    1  0.1538805E-008  0.4614232E+02  0.7816164E-02  0.1320468E+00
        -11   -1    0    0    0    0  0.00000000000E+00  0.00000000000E+00  0.45593999997E+02  0.45594000000E+02  0.51100000000E-03 0.  1.
         11   -1    0    0    0    0 -0.00000000000E+00 -0.00000000000E+00 -0.45593999997E+02  0.45594000000E+02  0.51100000000E-03 0. -1.
    9900012    2    1    2    0    0 -0.44095286237E+02 -0.72766687547E+01 -0.56364312849E+01  0.46142317253E+02  0.99999953684E+01 0.  0.
        -12    1    1    2    0    0  0.44095286237E+02  0.72766687547E+01  0.56364312849E+01  0.45045682747E+02  0.00000000000E+00 0.  1.
         11    1    3    3    0    0 -0.33516381059E+02 -0.88421291916E+01 -0.20949677899E+01  0.34726357975E+02  0.51100000000E-03 0. -1.
        -11    1    3    3    0    0 -0.54309758012E+01 -0.59176721873E-01 -0.14027311332E+01  0.56095146788E+01  0.51100000000E-03 0.  1.
         12    1    3    3    0    0 -0.51479293771E+01  0.16246371588E+01 -0.21387323618E+01  0.58064445993E+01  0.00000000000E+00 0. -1.
</event>
<event>
 7    1  0.1538805E-008  0.4614232E+02  0.7816164E-02  0.1320468E+00
        -11   -1    0    0    0    0  0.00000000000E+00  0.00000000000E+00  0.45593999997E+02  0.45594000000E+02  0.51100000000E-03 0.  1.
         11   -1    0    0    0    0 -0.00000000000E+00 -0.00000000000E+00 -0.45593999997E+02  0.45594000000E+02  0.51100000000E-03 0. -1.
    9900012    2    1    2    0    0  0.15615925916E+02  0.31623173124E+02 -0.28021980944E+02  0.46142316115E+02  0.99999849917E+01 0.  0.
        -12    1    1    2    0    0 -0.15615925916E+02 -0.31623173124E+02  0.28021980944E+02  0.45045683885E+02  0.00000000000E+00 0.  1.
         11    1    3    3    0    0  0.61622436037E+01  0.15398127466E+02 -0.93721710144E+01  0.19050279932E+02  0.51100000000E-03 0. -1.
        -11    1    3    3    0    0  0.71408166869E+01  0.10029979082E+02 -0.15420828073E+02  0.19733060636E+02  0.51100000000E-03 0.  1.
        -12    1    3    3    0    0  0.23128656253E+01  0.61950665764E+01 -0.32289818560E+01  0.73589755478E+01  0.00000000000E+00 0.  1.
</event>
<event>
 7    1  0.1538805E-008  0.4614232E+02  0.7816164E-02  0.1320468E+00
        -11   -1    0    0    0    0  0.00000000000E+00  0.00000000000E+00  0.45593999997E+02  0.45594000000E+02  0.51100000000E-03 0.  1.
         11   -1    0    0    0    0 -0.00000000000E+00 -0.00000000000E+00 -0.45593999997E+02  0.45594000000E+02  0.51100000000E-03 0. -1.
    9900012    2    1    2    0    0 -0.69840003747E+01  0.18699117575E+01 -0.44461676695E+02  0.46142317346E+02  0.99999962158E+01 0.  0.
        -12    1    1    2    0    0  0.69840003747E+01 -0.18699117575E+01  0.44461676695E+02  0.45045682654E+02  0.00000000000E+00 0.  1.
         11    1    3    3    0    0 -0.78226895516E+01 -0.16392438091E+01 -0.29485983872E+02  0.30550038253E+02  0.51100000000E-03 0. -1.
        -11    1    3    3    0    0 -0.66016996407E+00  0.22857030039E+01 -0.91206086291E+01  0.94258031292E+01  0.51100000000E-03 0.  1.
         12    1    3    3    0    0  0.14988591410E+01  0.12234525627E+01 -0.58550841936E+01  0.61664759638E+01  0.00000000000E+00 0. -1.
</event>
<event>
 7    1  0.1538805E-008  0.4614232E+02  0.7816164E-02  0.1320468E+00
        -11   -1    0    0    0    0  0.00000000000E+00  0.00000000000E+00  0.45593999997E+02  0.45594000000E+02  0.51100000000E-03 0.  1.
         11   -1    0    0    0    0 -0.00000000000E+00 -0.00000000000E+00 -0.45593999997E+02  0.45594000000E+02  0.51100000000E-03 0. -1.
    9900012    2    1    2    0    0 -0.43281875183E+01 -0.66339883204E+01 -0.44343776614E+02  0.46142317270E+02  0.99999955205E+01 0.  0.
        -12    1    1    2    0    0  0.43281875183E+01  0.66339883204E+01  0.44343776614E+02  0.45045682730E+02  0.00000000000E+00 0.  1.
         11    1    3    3    0    0  0.21830734083E+00 -0.54610469343E+01 -0.19320358461E+02  0.20078519444E+02  0.51100000000E-03 0. -1.
        -11    1    3    3    0    0  0.51560422958E+00 -0.25812137238E+00 -0.12657183393E+02  0.12670310418E+02  0.51100000000E-03 0.  1.
        -12    1    3    3    0    0 -0.50620990887E+01 -0.91482001374E+00 -0.12366234759E+02  0.13393487409E+02  0.00000000000E+00 0.  1.
</event>
<event>
 7    1  0.1538805E-008  0.4614232E+02  0.7816164E-02  0.1320468E+00
        -11   -1    0    0    0    0  0.00000000000E+00  0.00000000000E+00  0.45593999997E+02  0.45594000000E+02  0.51100000000E-03 0.  1.
         11   -1    0    0    0    0 -0.00000000000E+00 -0.00000000000E+00 -0.45593999997E+02  0.45594000000E+02  0.51100000000E-03 0. -1.
    9900012    2    1    2    0    0  0.33984813317E+02 -0.61350474061E+01 -0.28922422109E+02  0.46142324918E+02  0.10000065266E+02 0.  0.
        -12    1    1    2    0    0 -0.33984813317E+02  0.61350474061E+01  0.28922422109E+02  0.45045675082E+02  0.00000000000E+00 0.  1.
         11    1    3    3    0    0  0.17353343953E+02 -0.56900351803E+00 -0.19228837665E+02  0.25907730691E+02  0.51100000000E-03 0. -1.
        -11    1    3    3    0    0  0.70333105003E+01 -0.37268981288E+01 -0.37773036293E+01  0.88105192369E+01  0.51100000000E-03 0.  1.
        -12    1    3    3    0    0  0.95981588639E+01 -0.18391457593E+01 -0.59162808148E+01  0.11424074990E+02  0.00000000000E+00 0.  1.
</event>
<event>
 7    1  0.1538805E-008  0.4614232E+02  0.7816164E-02  0.1320468E+00
        -11   -1    0    0    0    0  0.00000000000E+00  0.00000000000E+00  0.45593999997E+02  0.45594000000E+02  0.51100000000E-03 0.  1.
         11   -1    0    0    0    0 -0.00000000000E+00 -0.00000000000E+00 -0.45593999997E+02  0.45594000000E+02  0.51100000000E-03 0. -1.
    9900012    2    1    2    0    0 -0.28491962478E+02  0.32870966648E+02 -0.11697054730E+02  0.46142318036E+02  0.10000002510E+02 0.  0.
        -12    1    1    2    0    0  0.28491962478E+02 -0.32870966648E+02  0.11697054730E+02  0.45045681964E+02  0.00000000000E+00 0.  1.
         11    1    3    3    0    0 -0.24308588680E+01  0.22917359547E+01  0.14552532867E+01  0.36440212557E+01  0.51100000000E-03 0.  1.
        -11    1    3    3    0    0 -0.15693386021E+02  0.16730047541E+02 -0.55427957837E+01  0.23598716933E+02  0.51100000000E-03 0. -1.
         12    1    3    3    0    0 -0.10367717589E+02  0.13849183153E+02 -0.76095122330E+01  0.18899579848E+02  0.00000000000E+00 0. -1.
</event>
<event>
 7    1  0.1538805E-008  0.4614232E+02  0.7816164E-02  0.1320468E+00
        -11   -1    0    0    0    0  0.00000000000E+00  0.00000000000E+00  0.45593999997E+02  0.45594000000E+02  0.51100000000E-03 0.  1.
         11   -1    0    0    0    0 -0.00000000000E+00 -0.00000000000E+00 -0.45593999997E+02  0.45594000000E+02  0.51100000000E-03 0. -1.
    9900012    2    1    2    0    0 -0.18154481830E+02  0.35857096025E+02 -0.20341999210E+02  0.46142317879E+02  0.10000001074E+02 0.  0.
        -12    1    1    2    0    0  0.18154481830E+02 -0.35857096025E+02  0.20341999210E+02  0.45045682121E+02  0.00000000000E+00 0.  1.
         11    1    3    3    0    0 -0.15590358403E+02  0.22793706479E+02 -0.16239688737E+02  0.32036538838E+02  0.51100000000E-03 0. -1.
        -11    1    3    3    0    0 -0.49231622140E+00  0.63682503140E+01 -0.10994597649E+01  0.64811881133E+01  0.51100000000E-03 0.  1.
         12    1    3    3    0    0 -0.20718072064E+01  0.66951392320E+01 -0.30028507080E+01  0.76245909275E+01  0.00000000000E+00 0. -1.
</event>
<event>
 7    1  0.1538805E-008  0.4614232E+02  0.7816164E-02  0.1320468E+00
        -11   -1    0    0    0    0  0.00000000000E+00  0.00000000000E+00  0.45593999997E+02  0.45594000000E+02  0.51100000000E-03 0. -1.
         11   -1    0    0    0    0 -0.00000000000E+00 -0.00000000000E+00 -0.45593999997E+02  0.45594000000E+02  0.51100000000E-03 0.  1.
    9900012    2    1    2    0    0 -0.17131789334E+02  0.34201341412E+02  0.23788305729E+02  0.46142318191E+02  0.10000003920E+02 0.  0.
        -12    1    1    2    0    0  0.17131789334E+02 -0.34201341412E+02 -0.23788305729E+02  0.45045681809E+02  0.00000000000E+00 0.  1.
         11    1    3    3    0    0 -0.84798808946E+01  0.12081820641E+02  0.12026686382E+02  0.19039956817E+02  0.51100000000E-03 0. -1.
        -11    1    3    3    0    0 -0.85595576920E+01  0.20089278720E+02  0.12213646008E+02  0.25020357640E+02  0.51100000000E-03 0.  1.
         12    1    3    3    0    0 -0.92350747832E-01  0.20302420505E+01 -0.45202666124E+00  0.20820037336E+01  0.00000000000E+00 0. -1.
</event>
<event>
 7    1  0.1538805E-008  0.4614232E+02  0.7816164E-02  0.1320468E+00
        -11   -1    0    0    0    0  0.00000000000E+00  0.00000000000E+00  0.45593999997E+02  0.45594000000E+02  0.51100000000E-03 0. -1.
         11   -1    0    0    0    0 -0.00000000000E+00 -0.00000000000E+00 -0.45593999997E+02  0.45594000000E+02  0.51100000000E-03 0.  1.
    9900012    2    1    2    0    0 -0.47898872240E+01 -0.31402872352E+02  0.31937909290E+02  0.46142318061E+02  0.10000002735E+02 0.  0.
        -12    1    1    2    0    0  0.47898872240E+01  0.31402872352E+02 -0.31937909290E+02  0.45045681939E+02  0.00000000000E+00 0.  1.
         11    1    3    3    0    0 -0.19907174416E+01 -0.96491809663E+01  0.76820132571E+01  0.12493317301E+02  0.51100000000E-03 0. -1.
        -11    1    3    3    0    0  0.84536999756E-01 -0.19450183240E+02  0.18719204276E+02  0.26994914031E+02  0.51100000000E-03 0.  1.
         12    1    3    3    0    0 -0.28837067822E+01 -0.23035081457E+01  0.55366917565E+01  0.66540867284E+01  0.00000000000E+00 0. -1.
</event>
<event>
 7    1  0.1538805E-008  0.4614232E+02  0.7816164E-02  0.1320468E+00
        -11   -1    0    0    0    0  0.00000000000E+00  0.00000000000E+00  0.45593999997E+02  0.45594000000E+02  0.51100000000E-03 0.  1.
         11   -1    0    0    0    0 -0.00000000000E+00 -0.00000000000E+00 -0.45593999997E+02  0.45594000000E+02  0.51100000000E-03 0. -1.
    9900012    2    1    2    0    0  0.13883147295E+02 -0.21875392874E+01 -0.42797036255E+02  0.46142318530E+02  0.10000007007E+02 0.  0.
        -12    1    1    2    0    0 -0.13883147295E+02  0.21875392874E+01  0.42797036255E+02  0.45045681470E+02  0.00000000000E+00 0.  1.
         11    1    3    3    0    0  0.81760972541E+01 -0.10100357952E+01 -0.15852071936E+02  0.17864963575E+02  0.51100000000E-03 0. -1.
        -11    1    3    3    0    0 -0.21423680894E+00 -0.23470335484E+01 -0.10459355465E+02  0.10721594139E+02  0.51100000000E-03 0.  1.
        -12    1    3    3    0    0  0.59212868499E+01  0.11695300561E+01 -0.16485608854E+02  0.17555760815E+02  0.00000000000E+00 0.  1.
</event>
<event>
 7    1  0.1538805E-008  0.4614232E+02  0.7816164E-02  0.1320468E+00
        -11   -1    0    0    0    0  0.00000000000E+00  0.00000000000E+00  0.45593999997E+02  0.45594000000E+02  0.51100000000E-03 0. -1.
         11   -1    0    0    0    0 -0.00000000000E+00 -0.00000000000E+00 -0.45593999997E+02  0.45594000000E+02  0.51100000000E-03 0.  1.
    9900012    2    1    2    0    0 -0.19225048396E+02 -0.40529958048E+02  0.41028361587E+01  0.46142320410E+02  0.10000024151E+02 0.  0.
        -12    1    1    2    0    0  0.19225048396E+02  0.40529958048E+02 -0.41028361587E+01  0.45045679590E+02  0.00000000000E+00 0.  1.
         11    1    3    3    0    0 -0.16272616071E+02 -0.37727027691E+02  0.49317260843E+01  0.41381742044E+02  0.51100000000E-03 0. -1.
        -11    1    3    3    0    0 -0.22170785934E+01 -0.16149459216E+01  0.55008495105E+00  0.27975134555E+01  0.51100000000E-03 0.  1.
         12    1    3    3    0    0 -0.73535373238E+00 -0.11879844359E+01 -0.13789748767E+01  0.19630649103E+01  0.00000000000E+00 0. -1.
</event>
<event>
 7    1  0.1538805E-008  0.4614232E+02  0.7816164E-02  0.1320468E+00
        -11   -1    0    0    0    0  0.00000000000E+00  0.00000000000E+00  0.45593999997E+02  0.45594000000E+02  0.51100000000E-03 0.  1.
         11   -1    0    0    0    0 -0.00000000000E+00 -0.00000000000E+00 -0.45593999997E+02  0.45594000000E+02  0.51100000000E-03 0. -1.
    9900012    2    1    2    0    0 -0.34602629816E+02  0.75866968438E+01 -0.27824690808E+02  0.46142318989E+02  0.10000011193E+02 0.  0.
        -12    1    1    2    0    0  0.34602629816E+02 -0.75866968438E+01  0.27824690808E+02  0.45045681011E+02  0.00000000000E+00 0.  1.
         11    1    3    3    0    0 -0.20214466374E+02  0.74414084864E+01 -0.17115743748E+02  0.27512686080E+02  0.51100000000E-03 0. -1.
        -11    1    3    3    0    0 -0.19482517058E+01  0.13775255349E+00 -0.41038934865E+01  0.45449535184E+01  0.51100000000E-03 0.  1.
         12    1    3    3    0    0 -0.12439911736E+02  0.75358038558E-02 -0.66050535740E+01  0.14084679390E+02  0.00000000000E+00 0. -1.
</event>
<event>
 7    1  0.1538805E-008  0.4614232E+02  0.7816164E-02  0.1320468E+00
        -11   -1    0    0    0    0  0.00000000000E+00  0.00000000000E+00  0.45593999997E+02  0.45594000000E+02  0.51100000000E-03 0.  1.
         11   -1    0    0    0    0 -0.00000000000E+00 -0.00000000000E+00 -0.45593999997E+02  0.45594000000E+02  0.51100000000E-03 0. -1.
    9900012    2    1    2    0    0  0.11736460848E+02 -0.18234322383E+01 -0.43451628736E+02  0.46142318097E+02  0.10000003059E+02 0.  0.
        -12    1    1    2    0    0 -0.11736460848E+02  0.18234322383E+01  0.43451628736E+02  0.45045681903E+02  0.00000000000E+00 0.  1.
         11    1    3    3    0    0  0.56744375735E+01  0.57764445021E+00 -0.25135167705E+02  0.25774203591E+02  0.51100000000E-03 0. -1.
        -11    1    3    3    0    0  0.17061246920E+01 -0.32455016898E+01 -0.12652995696E+02  0.13173550889E+02  0.51100000000E-03 0.  1.
         12    1    3    3    0    0  0.43558985826E+01  0.84442500134E+00 -0.56634653339E+01  0.71945636166E+01  0.00000000000E+00 0. -1.
</event>
<event>
 7    1  0.1538805E-008  0.4614233E+02  0.7816164E-02  0.1320468E+00
        -11   -1    0    0    0    0  0.00000000000E+00  0.00000000000E+00  0.45593999997E+02  0.45594000000E+02  0.51100000000E-03 0.  1.
         11   -1    0    0    0    0 -0.00000000000E+00 -0.00000000000E+00 -0.45593999997E+02  0.45594000000E+02  0.51100000000E-03 0. -1.
    9900012    2    1    2    0    0 -0.32693134159E+02 -0.39418004061E+01 -0.30736525561E+02  0.46142325234E+02  0.10000068144E+02 0.  0.
        -12    1    1    2    0    0  0.32693134159E+02  0.39418004061E+01  0.30736525561E+02  0.45045674766E+02  0.00000000000E+00 0.  1.
         11    1    3    3    0    0 -0.13679091053E+02 -0.21900446015E+01 -0.11890556560E+02  0.18256482766E+02  0.51100000000E-03 0. -1.
        -11    1    3    3    0    0 -0.17481329396E+02 -0.19877600247E+00 -0.13425521283E+02  0.22042708802E+02  0.51100000000E-03 0.  1.
        -12    1    3    3    0    0 -0.15327137094E+01 -0.15529798021E+01 -0.54204477181E+01  0.58431336665E+01  0.00000000000E+00 0.  1.
</event>
<event>
 7    1  0.1538805E-008  0.4614232E+02  0.7816164E-02  0.1320468E+00
        -11   -1    0    0    0    0  0.00000000000E+00  0.00000000000E+00  0.45593999997E+02  0.45594000000E+02  0.51100000000E-03 0.  1.
         11   -1    0    0    0    0 -0.00000000000E+00 -0.00000000000E+00 -0.45593999997E+02  0.45594000000E+02  0.51100000000E-03 0. -1.
    9900012    2    1    2    0    0 -0.31165371007E+02  0.14731510370E+02 -0.28996822296E+02  0.46142318175E+02  0.10000003778E+02 0.  0.
        -12    1    1    2    0    0  0.31165371007E+02 -0.14731510370E+02  0.28996822296E+02  0.45045681825E+02  0.00000000000E+00 0.  1.
         11    1    3    3    0    0 -0.31116407122E+01  0.30093279516E+01 -0.42430725689E+01  0.60615202489E+01  0.51100000000E-03 0. -1.
        -11    1    3    3    0    0 -0.24318264067E+02  0.11935934999E+02 -0.24148823817E+02  0.36290635205E+02  0.51100000000E-03 0.  1.
        -12    1    3    3    0    0 -0.37354662272E+01 -0.21375258148E+00 -0.60492591044E+00  0.37901627219E+01  0.00000000000E+00 0.  1.
</event>
<event>
 7    1  0.1538805E-008  0.4614233E+02  0.7816164E-02  0.1320468E+00
        -11   -1    0    0    0    0  0.00000000000E+00  0.00000000000E+00  0.45593999997E+02  0.45594000000E+02  0.51100000000E-03 0. -1.
         11   -1    0    0    0    0 -0.00000000000E+00 -0.00000000000E+00 -0.45593999997E+02  0.45594000000E+02  0.51100000000E-03 0.  1.
    9900012    2    1    2    0    0  0.27508307603E+02 -0.34448099247E+02  0.92592731958E+01  0.46142326856E+02  0.10000082931E+02 0.  0.
        -12    1    1    2    0    0 -0.27508307603E+02  0.34448099247E+02 -0.92592731958E+01  0.45045673144E+02  0.00000000000E+00 0.  1.
         11    1    3    3    0    0  0.53938359890E+01 -0.55256265710E+01  0.44535314848E+01  0.89140315585E+01  0.51100000000E-03 0. -1.
        -11    1    3    3    0    0  0.17809341234E+02 -0.26267127234E+02  0.51840305028E+01  0.32156006917E+02  0.51100000000E-03 0.  1.
        -12    1    3    3    0    0  0.43051303800E+01 -0.26553454420E+01 -0.37828879186E+00  0.50722883805E+01  0.00000000000E+00 0.  1.
</event>
<event>
 7    1  0.1538805E-008  0.4614232E+02  0.7816164E-02  0.1320468E+00
        -11   -1    0    0    0    0  0.00000000000E+00  0.00000000000E+00  0.45593999997E+02  0.45594000000E+02  0.51100000000E-03 0.  1.
         11   -1    0    0    0    0 -0.00000000000E+00 -0.00000000000E+00 -0.45593999997E+02  0.45594000000E+02  0.51100000000E-03 0. -1.
    9900012    2    1    2    0    0  0.10774139406E+02  0.31253979842E+02 -0.30597715282E+02  0.46142317450E+02  0.99999971641E+01 0.  0.
        -12    1    1    2    0    0 -0.10774139406E+02 -0.31253979842E+02  0.30597715282E+02  0.45045682550E+02  0.00000000000E+00 0.  1.
         11    1    3    3    0    0  0.48350805485E+01  0.20467633604E+02 -0.19097713007E+02  0.28408179660E+02  0.51100000000E-03 0. -1.
        -11    1    3    3    0    0  0.49070230645E+01  0.51262369927E+01 -0.89997641522E+01  0.11460930857E+02  0.51100000000E-03 0.  1.
        -12    1    3    3    0    0  0.10320357930E+01  0.56601092452E+01 -0.25002381232E+01  0.62732069325E+01  0.00000000000E+00 0.  1.
</event>
<event>
 7    1  0.1538805E-008  0.4614232E+02  0.7816164E-02  0.1320468E+00
        -11   -1    0    0    0    0  0.00000000000E+00  0.00000000000E+00  0.45593999997E+02  0.45594000000E+02  0.51100000000E-03 0.  1.
         11   -1    0    0    0    0 -0.00000000000E+00 -0.00000000000E+00 -0.45593999997E+02  0.45594000000E+02  0.51100000000E-03 0. -1.
    9900012    2    1    2    0    0  0.22520531131E+02  0.38694519255E+02 -0.49672209268E+01  0.46142318447E+02  0.10000006256E+02 0.  0.
        -12    1    1    2    0    0 -0.22520531131E+02 -0.38694519255E+02  0.49672209268E+01  0.45045681553E+02  0.00000000000E+00 0.  1.
         11    1    3    3    0    0  0.38872693278E+01  0.51480893551E+01  0.25904897163E+01  0.69515698994E+01  0.51100000000E-03 0.  1.
        -11    1    3    3    0    0  0.99907756370E+01  0.16840143433E+02 -0.49929919300E+01  0.20207325339E+02  0.51100000000E-03 0. -1.
        -12    1    3    3    0    0  0.86424861660E+01  0.16706286467E+02 -0.25647187131E+01  0.18983423209E+02  0.00000000000E+00 0.  1.
</event>
<event>
 7    1  0.1538805E-008  0.4614232E+02  0.7816164E-02  0.1320468E+00
        -11   -1    0    0    0    0  0.00000000000E+00  0.00000000000E+00  0.45593999997E+02  0.45594000000E+02  0.51100000000E-03 0.  1.
         11   -1    0    0    0    0 -0.00000000000E+00 -0.00000000000E+00 -0.45593999997E+02  0.45594000000E+02  0.51100000000E-03 0. -1.
    9900012    2    1    2    0    0  0.42989693066E+02  0.13406284161E+02  0.11275177975E+01  0.46142318062E+02  0.10000002744E+02 0.  0.
        -12    1    1    2    0    0 -0.42989693066E+02 -0.13406284161E+02 -0.11275177975E+01  0.45045681938E+02  0.00000000000E+00 0.  1.
         11    1    3    3    0    0  0.51179604962E+01  0.96819990072E+00 -0.22429421754E+01  0.56711304474E+01  0.51100000000E-03 0. -1.
        -11    1    3    3    0    0  0.84438903833E+01  0.40249356311E+01  0.31284151420E+01  0.98633854838E+01  0.51100000000E-03 0.  1.
        -12    1    3    3    0    0  0.29427842186E+02  0.84131486293E+01  0.24204483088E+00  0.30607802131E+02  0.00000000000E+00 0.  1.
</event>
<event>
 7    1  0.1538805E-008  0.4614232E+02  0.7816164E-02  0.1320468E+00
        -11   -1    0    0    0    0  0.00000000000E+00  0.00000000000E+00  0.45593999997E+02  0.45594000000E+02  0.51100000000E-03 0.  1.
         11   -1    0    0    0    0 -0.00000000000E+00 -0.00000000000E+00 -0.45593999997E+02  0.45594000000E+02  0.51100000000E-03 0. -1.
    9900012    2    1    2    0    0 -0.16566950193E+02 -0.10104330712E+02 -0.40651594669E+02  0.46142317776E+02  0.10000000138E+02 0.  0.
        -12    1    1    2    0    0  0.16566950193E+02  0.10104330712E+02  0.40651594669E+02  0.45045682224E+02  0.00000000000E+00 0.  1.
         11    1    3    3    0    0 -0.10028464987E+01 -0.12361449079E+01 -0.38734135035E+01  0.41877306222E+01  0.51100000000E-03 0. -1.
        -11    1    3    3    0    0 -0.15507110582E+02 -0.69553075990E+01 -0.36140808161E+02  0.39937511154E+02  0.51100000000E-03 0.  1.
        -12    1    3    3    0    0 -0.56993112446E-01 -0.19128782050E+01 -0.63737300503E+00  0.20170760000E+01  0.00000000000E+00 0.  1.
</event>
<event>
 7    1  0.1538805E-008  0.4614232E+02  0.7816164E-02  0.1320468E+00
        -11   -1    0    0    0    0  0.00000000000E+00  0.00000000000E+00  0.45593999997E+02  0.45594000000E+02  0.51100000000E-03 0. -1.
         11   -1    0    0    0    0 -0.00000000000E+00 -0.00000000000E+00 -0.45593999997E+02  0.45594000000E+02  0.51100000000E-03 0.  1.
    9900012    2    1    2    0    0  0.43659821410E+02 -0.57556839004E+01  0.94765917298E+01  0.46142315483E+02  0.99999792301E+01 0.  0.
        -12    1    1    2    0    0 -0.43659821410E+02  0.57556839004E+01 -0.94765917298E+01  0.45045684517E+02  0.00000000000E+00 0.  1.
         11    1    3    3    0    0  0.26599067422E+02 -0.16089381769E+01  0.47421879115E+01  0.27066352104E+02  0.51100000000E-03 0. -1.
        -11    1    3    3    0    0 -0.35861439185E+00 -0.60491510627E+00  0.19189017000E+00  0.72893666824E+00  0.51100000000E-03 0.  1.
        -12    1    3    3    0    0  0.17419368380E+02 -0.35418306172E+01  0.45425136483E+01  0.18347026711E+02  0.00000000000E+00 0.  1.
</event>
<event>
 7    1  0.1538805E-008  0.4614232E+02  0.7816164E-02  0.1320468E+00
        -11   -1    0    0    0    0  0.00000000000E+00  0.00000000000E+00  0.45593999997E+02  0.45594000000E+02  0.51100000000E-03 0.  1.
         11   -1    0    0    0    0 -0.00000000000E+00 -0.00000000000E+00 -0.45593999997E+02  0.45594000000E+02  0.51100000000E-03 0. -1.
    9900012    2    1    2    0    0  0.56849417011E+01 -0.44194907781E+02  0.66034136299E+01  0.46142317549E+02  0.99999980617E+01 0.  0.
        -12    1    1    2    0    0 -0.56849417011E+01  0.44194907781E+02 -0.66034136299E+01  0.45045682451E+02  0.00000000000E+00 0.  1.
         11    1    3    3    0    0  0.59389860603E+01 -0.19976807238E+02  0.10626433341E+01  0.20868004072E+02  0.51100000000E-03 0. -1.
        -11    1    3    3    0    0 -0.21577463937E+01 -0.16828203641E+02  0.29851548701E+01  0.17226591571E+02  0.51100000000E-03 0.  1.
        -12    1    3    3    0    0  0.19037020345E+01 -0.73898969022E+01  0.25556154258E+01  0.80477219054E+01  0.00000000000E+00 0.  1.
</event>
<event>
 7    1  0.1538805E-008  0.4614232E+02  0.7816164E-02  0.1320468E+00
        -11   -1    0    0    0    0  0.00000000000E+00  0.00000000000E+00  0.45593999997E+02  0.45594000000E+02  0.51100000000E-03 0. -1.
         11   -1    0    0    0    0 -0.00000000000E+00 -0.00000000000E+00 -0.45593999997E+02  0.45594000000E+02  0.51100000000E-03 0.  1.
    9900012    2    1    2    0    0  0.42368645884E+02  0.15212598587E+02 -0.16087940633E+01  0.46142317320E+02  0.99999959734E+01 0.  0.
        -12    1    1    2    0    0 -0.42368645884E+02 -0.15212598587E+02  0.16087940633E+01  0.45045682680E+02  0.00000000000E+00 0.  1.
         11    1    3    3    0    0  0.32386577996E+02  0.79845390583E+01 -0.35839200461E+01  0.33548290290E+02  0.51100000000E-03 0. -1.
        -11    1    3    3    0    0  0.32966755501E+01  0.29216898274E+01  0.20776387888E-01  0.44050849083E+01  0.51100000000E-03 0.  1.
         12    1    3    3    0    0  0.66853923379E+01  0.43063697015E+01  0.19543495949E+01  0.81889421207E+01  0.00000000000E+00 0. -1.
</event>
<event>
 7    1  0.1538805E-008  0.4614232E+02  0.7816164E-02  0.1320468E+00
        -11   -1    0    0    0    0  0.00000000000E+00  0.00000000000E+00  0.45593999997E+02  0.45594000000E+02  0.51100000000E-03 0.  1.
         11   -1    0    0    0    0 -0.00000000000E+00 -0.00000000000E+00 -0.45593999997E+02  0.45594000000E+02  0.51100000000E-03 0. -1.
    9900012    2    1    2    0    0  0.11928570364E+02  0.36134863352E+02 -0.24105897755E+02  0.46142318220E+02  0.10000004186E+02 0.  0.
        -12    1    1    2    0    0 -0.11928570364E+02 -0.36134863352E+02  0.24105897755E+02  0.45045681780E+02  0.00000000000E+00 0.  1.
         11    1    3    3    0    0  0.52116769619E+01  0.25713447633E+02 -0.20208769214E+02  0.33117024615E+02  0.51100000000E-03 0. -1.
        -11    1    3    3    0    0  0.57560223781E+01  0.92562998234E+01 -0.36503698473E+01  0.11495045903E+02  0.51100000000E-03 0.  1.
         12    1    3    3    0    0  0.96087102438E+00  0.11651158956E+01 -0.24675869370E+00  0.15302477017E+01  0.00000000000E+00 0. -1.
</event>
<event>
 7    1  0.1538805E-008  0.4614232E+02  0.7816164E-02  0.1320468E+00
        -11   -1    0    0    0    0  0.00000000000E+00  0.00000000000E+00  0.45593999997E+02  0.45594000000E+02  0.51100000000E-03 0.  1.
         11   -1    0    0    0    0 -0.00000000000E+00 -0.00000000000E+00 -0.45593999997E+02  0.45594000000E+02  0.51100000000E-03 0. -1.
    9900012    2    1    2    0    0 -0.16149593868E+02 -0.41559678471E+02  0.64107119926E+01  0.46142317799E+02  0.10000000341E+02 0.  0.
        -12    1    1    2    0    0  0.16149593868E+02  0.41559678471E+02 -0.64107119926E+01  0.45045682201E+02  0.00000000000E+00 0.  1.
         11    1    3    3    0    0 -0.68176580509E+01 -0.83637783430E+01  0.11719040804E+00  0.10791060343E+02  0.51100000000E-03 0. -1.
        -11    1    3    3    0    0 -0.84093481780E+01 -0.32290316894E+02  0.54549357647E+01  0.33810324257E+02  0.51100000000E-03 0.  1.
        -12    1    3    3    0    0 -0.92258763908E+00 -0.90558323451E+00  0.83858581989E+00  0.15409331990E+01  0.00000000000E+00 0.  1.
</event>
<event>
 7    1  0.1538805E-008  0.4614232E+02  0.7816164E-02  0.1320468E+00
        -11   -1    0    0    0    0  0.00000000000E+00  0.00000000000E+00  0.45593999997E+02  0.45594000000E+02  0.51100000000E-03 0. -1.
         11   -1    0    0    0    0 -0.00000000000E+00 -0.00000000000E+00 -0.45593999997E+02  0.45594000000E+02  0.51100000000E-03 0.  1.
    9900012    2    1    2    0    0  0.41940714868E+02 -0.89024398048E+01 -0.13814357784E+02  0.46142317864E+02  0.10000000937E+02 0.  0.
        -12    1    1    2    0    0 -0.41940714868E+02  0.89024398048E+01  0.13814357784E+02  0.45045682136E+02  0.00000000000E+00 0.  1.
         11    1    3    3    0    0  0.15827733302E+02 -0.11038075972E+01 -0.85110832469E+01  0.18004834656E+02  0.51100000000E-03 0. -1.
        -11    1    3    3    0    0  0.90252777584E+01 -0.44922263737E+01 -0.55485722794E+00  0.10096712495E+02  0.51100000000E-03 0.  1.
         12    1    3    3    0    0  0.17087703808E+02 -0.33064058338E+01 -0.47484173089E+01  0.18040770713E+02  0.00000000000E+00 0. -1.
</event>
<event>
 7    1  0.1538805E-008  0.4614232E+02  0.7816164E-02  0.1320468E+00
        -11   -1    0    0    0    0  0.00000000000E+00  0.00000000000E+00  0.45593999997E+02  0.45594000000E+02  0.51100000000E-03 0. -1.
         11   -1    0    0    0    0 -0.00000000000E+00 -0.00000000000E+00 -0.45593999997E+02  0.45594000000E+02  0.51100000000E-03 0.  1.
    9900012    2    1    2    0    0  0.57781543176E+01  0.62185786709E+00  0.44669224932E+02  0.46142318403E+02  0.10000005855E+02 0.  0.
        -12    1    1    2    0    0 -0.57781543176E+01 -0.62185786709E+00 -0.44669224932E+02  0.45045681597E+02  0.00000000000E+00 0.  1.
         11    1    3    3    0    0  0.45531524811E+01  0.66361196421E+00  0.38665147596E+02  0.38937966270E+02  0.51100000000E-03 0. -1.
        -11    1    3    3    0    0  0.22779944868E+01  0.83761617738E+00  0.48011362484E+01  0.53797555037E+01  0.51100000000E-03 0.  1.
        -12    1    3    3    0    0 -0.10529926503E+01 -0.87937027449E+00  0.12029410874E+01  0.18245966297E+01  0.00000000000E+00 0.  1.
</event>
<event>
 7    1  0.1538805E-008  0.4614232E+02  0.7816164E-02  0.1320468E+00
        -11   -1    0    0    0    0  0.00000000000E+00  0.00000000000E+00  0.45593999997E+02  0.45594000000E+02  0.51100000000E-03 0. -1.
         11   -1    0    0    0    0 -0.00000000000E+00 -0.00000000000E+00 -0.45593999997E+02  0.45594000000E+02  0.51100000000E-03 0.  1.
    9900012    2    1    2    0    0  0.37940784561E+02  0.15393224946E+02  0.18779216697E+02  0.46142317776E+02  0.10000000131E+02 0.  0.
        -12    1    1    2    0    0 -0.37940784561E+02 -0.15393224946E+02 -0.18779216697E+02  0.45045682224E+02  0.00000000000E+00 0.  1.
         11    1    3    3    0    0  0.28734820489E+02  0.12957100557E+02  0.14060551545E+02  0.34514858734E+02  0.51100000000E-03 0. -1.
        -11    1    3    3    0    0  0.42736294623E+01  0.76482258204E+00  0.47289572755E+01  0.64196494872E+01  0.51100000000E-03 0.  1.
        -12    1    3    3    0    0  0.49323346097E+01  0.16713018068E+01 -0.10292124279E-01  0.52078095548E+01  0.00000000000E+00 0.  1.
</event>
<event>
 7    1  0.1538805E-008  0.4614232E+02  0.7816164E-02  0.1320468E+00
        -11   -1    0    0    0    0  0.00000000000E+00  0.00000000000E+00  0.45593999997E+02  0.45594000000E+02  0.51100000000E-03 0.  1.
         11   -1    0    0    0    0 -0.00000000000E+00 -0.00000000000E+00 -0.45593999997E+02  0.45594000000E+02  0.51100000000E-03 0. -1.
    9900012    2    1    2    0    0 -0.23578528817E+02  0.37229699997E+02 -0.93335895636E+01  0.46142317885E+02  0.10000001132E+02 0.  0.
        -12    1    1    2    0    0  0.23578528817E+02 -0.37229699997E+02  0.93335895636E+01  0.45045682115E+02  0.00000000000E+00 0.  1.
         11    1    3    3    0    0 -0.36029353118E+01  0.93860195140E+01 -0.33273285965E+01  0.10590071814E+02  0.51100000000E-03 0. -1.
        -11    1    3    3    0    0 -0.39329114121E+01  0.23481744686E+01  0.85038247043E+00  0.46588481535E+01  0.51100000000E-03 0.  1.
        -12    1    3    3    0    0 -0.16042682093E+02  0.25495506014E+02 -0.68566434376E+01  0.30893397918E+02  0.00000000000E+00 0.  1.
</event>
<event>
 7    1  0.1538805E-008  0.4614232E+02  0.7816164E-02  0.1320468E+00
        -11   -1    0    0    0    0  0.00000000000E+00  0.00000000000E+00  0.45593999997E+02  0.45594000000E+02  0.51100000000E-03 0.  1.
         11   -1    0    0    0    0 -0.00000000000E+00 -0.00000000000E+00 -0.45593999997E+02  0.45594000000E+02  0.51100000000E-03 0. -1.
    9900012    2    1    2    0    0 -0.38760090244E+02 -0.16695230176E+02 -0.15749229170E+02  0.46142317345E+02  0.99999962085E+01 0.  0.
        -12    1    1    2    0    0  0.38760090244E+02  0.16695230176E+02  0.15749229170E+02  0.45045682655E+02  0.00000000000E+00 0.  1.
         11    1    3    3    0    0 -0.18505928862E+02 -0.97290268812E+01 -0.99500369206E+01  0.23154407833E+02  0.51100000000E-03 0. -1.
        -11    1    3    3    0    0 -0.30576234733E+01 -0.49696514490E+00  0.12065590765E+01  0.33244278795E+01  0.51100000000E-03 0.  1.
        -12    1    3    3    0    0 -0.17196537909E+02 -0.64692381500E+01 -0.70057513256E+01  0.19663481633E+02  0.00000000000E+00 0.  1.
</event>
<event>
 7    1  0.1538805E-008  0.4614232E+02  0.7816164E-02  0.1320468E+00
        -11   -1    0    0    0    0  0.00000000000E+00  0.00000000000E+00  0.45593999997E+02  0.45594000000E+02  0.51100000000E-03 0.  1.
         11   -1    0    0    0    0 -0.00000000000E+00 -0.00000000000E+00 -0.45593999997E+02  0.45594000000E+02  0.51100000000E-03 0. -1.
    9900012    2    1    2    0    0  0.26464626257E+02  0.32600229311E+02  0.16308351634E+02  0.46142315111E+02  0.99999758384E+01 0.  0.
        -12    1    1    2    0    0 -0.26464626257E+02 -0.32600229311E+02 -0.16308351634E+02  0.45045684889E+02  0.00000000000E+00 0.  1.
         11    1    3    3    0    0  0.79688998586E+01  0.17247357372E+02  0.61044410691E+01  0.19955923990E+02  0.51100000000E-03 0. -1.
        -11    1    3    3    0    0  0.17727185672E+02  0.15136703579E+02  0.97434025165E+01  0.25264734314E+02  0.51100000000E-03 0.  1.
         12    1    3    3    0    0  0.76854072654E+00  0.21616835992E+00  0.46050804805E+00  0.92165680733E+00  0.00000000000E+00 0. -1.
</event>
<event>
 7    1  0.1538805E-008  0.4614232E+02  0.7816164E-02  0.1320468E+00
        -11   -1    0    0    0    0  0.00000000000E+00  0.00000000000E+00  0.45593999997E+02  0.45594000000E+02  0.51100000000E-03 0.  1.
         11   -1    0    0    0    0 -0.00000000000E+00 -0.00000000000E+00 -0.45593999997E+02  0.45594000000E+02  0.51100000000E-03 0. -1.
    9900012    2    1    2    0    0 -0.34342324126E+01  0.98092885454E+01 -0.43830324350E+02  0.46142318446E+02  0.10000006243E+02 0.  0.
        -12    1    1    2    0    0  0.34342324126E+01 -0.98092885454E+01  0.43830324350E+02  0.45045681554E+02  0.00000000000E+00 0.  1.
         11    1    3    3    0    0 -0.44566924822E+00  0.87151182202E+01 -0.36857398391E+02  0.37876374207E+02  0.51100000000E-03 0. -1.
        -11    1    3    3    0    0 -0.28332110979E+01 -0.38585149538E+00 -0.53349161199E+01  0.60528750829E+01  0.51100000000E-03 0.  1.
        -12    1    3    3    0    0 -0.15535206652E+00  0.14800218206E+01 -0.16380098396E+01  0.22130691558E+01  0.00000000000E+00 0.  1.
</event>
<event>
 7    1  0.1538805E-008  0.4614232E+02  0.7816164E-02  0.1320468E+00
        -11   -1    0    0    0    0  0.00000000000E+00  0.00000000000E+00  0.45593999997E+02  0.45594000000E+02  0.51100000000E-03 0. -1.
         11   -1    0    0    0    0 -0.00000000000E+00 -0.00000000000E+00 -0.45593999997E+02  0.45594000000E+02  0.51100000000E-03 0.  1.
    9900012    2    1    2    0    0 -0.75183626661E+01  0.35339754871E+02  0.26901476269E+02  0.46142317888E+02  0.10000001156E+02 0.  0.
        -12    1    1    2    0    0  0.75183626661E+01 -0.35339754871E+02 -0.26901476269E+02  0.45045682112E+02  0.00000000000E+00 0.  1.
         11    1    3    3    0    0 -0.47830305413E+01  0.30627474631E+02  0.23365750462E+02  0.38818524937E+02  0.51100000000E-03 0. -1.
        -11    1    3    3    0    0 -0.34932892946E+01  0.42875275089E+01  0.28810394877E+01  0.62358921596E+01  0.51100000000E-03 0.  1.
         12    1    3    3    0    0  0.75795716990E+00  0.42475273123E+00  0.65468631948E+00  0.10879007910E+01  0.00000000000E+00 0. -1.
</event>
<event>
 7    1  0.1538805E-008  0.4614232E+02  0.7816164E-02  0.1320468E+00
        -11   -1    0    0    0    0  0.00000000000E+00  0.00000000000E+00  0.45593999997E+02  0.45594000000E+02  0.51100000000E-03 0. -1.
         11   -1    0    0    0    0 -0.00000000000E+00 -0.00000000000E+00 -0.45593999997E+02  0.45594000000E+02  0.51100000000E-03 0.  1.
    9900012    2    1    2    0    0  0.35054125036E+02  0.14259035957E+02  0.24433618750E+02  0.46142317480E+02  0.99999974360E+01 0.  0.
        -12    1    1    2    0    0 -0.35054125036E+02 -0.14259035957E+02 -0.24433618750E+02  0.45045682520E+02  0.00000000000E+00 0.  1.
         11    1    3    3    0    0 -0.91709492308E-01  0.77173407316E-01 -0.39952903610E+00  0.41712117854E+00  0.51100000000E-03 0.  1.
        -11    1    3    3    0    0  0.22398629945E+02  0.72304641852E+01  0.12364915518E+02  0.26587015097E+02  0.51100000000E-03 0. -1.
        -12    1    3    3    0    0  0.12747204584E+02  0.69513983646E+01  0.12468232268E+02  0.19138181205E+02  0.00000000000E+00 0.  1.
</event>
<event>
 7    1  0.1538805E-008  0.4614232E+02  0.7816164E-02  0.1320468E+00
        -11   -1    0    0    0    0  0.00000000000E+00  0.00000000000E+00  0.45593999997E+02  0.45594000000E+02  0.51100000000E-03 0.  1.
         11   -1    0    0    0    0 -0.00000000000E+00 -0.00000000000E+00 -0.45593999997E+02  0.45594000000E+02  0.51100000000E-03 0. -1.
    9900012    2    1    2    0    0 -0.30945541086E+02 -0.27553380095E+02 -0.17671962895E+02  0.46142317184E+02  0.99999947368E+01 0.  0.
        -12    1    1    2    0    0  0.30945541086E+02  0.27553380095E+02  0.17671962895E+02  0.45045682816E+02  0.00000000000E+00 0.  1.
         11    1    3    3    0    0 -0.16822477266E+02 -0.17954963920E+02 -0.61827331720E+01  0.25369325187E+02  0.51100000000E-03 0.  1.
        -11    1    3    3    0    0 -0.82537871167E+01 -0.40116558218E+01 -0.55288986708E+01  0.10713874415E+02  0.51100000000E-03 0. -1.
        -12    1    3    3    0    0 -0.58692767041E+01 -0.55867603536E+01 -0.59603310526E+01  0.10059117582E+02  0.00000000000E+00 0.  1.
</event>
<event>
 7    1  0.1538805E-008  0.4614232E+02  0.7816164E-02  0.1320468E+00
        -11   -1    0    0    0    0  0.00000000000E+00  0.00000000000E+00  0.45593999997E+02  0.45594000000E+02  0.51100000000E-03 0. -1.
         11   -1    0    0    0    0 -0.00000000000E+00 -0.00000000000E+00 -0.45593999997E+02  0.45594000000E+02  0.51100000000E-03 0.  1.
    9900012    2    1    2    0    0 -0.40032006502E+02 -0.18982124248E+02  0.81382368812E+01  0.46142317798E+02  0.10000000335E+02 0.  0.
        -12    1    1    2    0    0  0.40032006502E+02  0.18982124248E+02 -0.81382368812E+01  0.45045682202E+02  0.00000000000E+00 0.  1.
         11    1    3    3    0    0 -0.59382620298E+01 -0.12217222471E+01  0.94528202148E+00  0.61358878368E+01  0.51100000000E-03 0. -1.
        -11    1    3    3    0    0 -0.21790859811E+02 -0.75255077901E+01  0.66498576329E+01  0.23993654278E+02  0.51100000000E-03 0.  1.
        -12    1    3    3    0    0 -0.12302884661E+02 -0.10234894211E+02  0.54309722685E+00  0.16012775683E+02  0.00000000000E+00 0.  1.
</event>
<event>
 7    1  0.1538805E-008  0.4614232E+02  0.7816164E-02  0.1320468E+00
        -11   -1    0    0    0    0  0.00000000000E+00  0.00000000000E+00  0.45593999997E+02  0.45594000000E+02  0.51100000000E-03 0. -1.
         11   -1    0    0    0    0 -0.00000000000E+00 -0.00000000000E+00 -0.45593999997E+02  0.45594000000E+02  0.51100000000E-03 0.  1.
    9900012    2    1    2    0    0  0.28407379508E+02 -0.22010481767E+02  0.27160139497E+02  0.46142315461E+02  0.99999790249E+01 0.  0.
        -12    1    1    2    0    0 -0.28407379508E+02  0.22010481767E+02 -0.27160139497E+02  0.45045684539E+02  0.00000000000E+00 0.  1.
         11    1    3    3    0    0  0.20424555136E+02 -0.16805684305E+02  0.17567435013E+02  0.31752295203E+02  0.51100000000E-03 0. -1.
        -11    1    3    3    0    0  0.70358027370E+01 -0.19023382436E+01  0.66565726084E+01  0.98707330072E+01  0.51100000000E-03 0.  1.
        -12    1    3    3    0    0  0.94702163484E+00 -0.33024592183E+01  0.29361318750E+01  0.45192872505E+01  0.00000000000E+00 0.  1.
</event>
<event>
 7    1  0.1538805E-008  0.4614232E+02  0.7816164E-02  0.1320468E+00
        -11   -1    0    0    0    0  0.00000000000E+00  0.00000000000E+00  0.45593999997E+02  0.45594000000E+02  0.51100000000E-03 0. -1.
         11   -1    0    0    0    0 -0.00000000000E+00 -0.00000000000E+00 -0.45593999997E+02  0.45594000000E+02  0.51100000000E-03 0.  1.
    9900012    2    1    2    0    0 -0.29009297382E+02  0.33809670391E+02  0.66693589960E+01  0.46142317677E+02  0.99999992311E+01 0.  0.
        -12    1    1    2    0    0  0.29009297382E+02 -0.33809670391E+02 -0.66693589960E+01  0.45045682323E+02  0.00000000000E+00 0.  1.
         11    1    3    3    0    0 -0.45811407165E+01  0.10045452945E+02 -0.10575735623E+01  0.11091277529E+02  0.51100000000E-03 0. -1.
        -11    1    3    3    0    0 -0.69441846536E+01  0.55488579609E+01  0.11743318525E+01  0.89660794517E+01  0.51100000000E-03 0.  1.
         12    1    3    3    0    0 -0.17483972011E+02  0.18215359486E+02  0.65526007058E+01  0.26084960696E+02  0.00000000000E+00 0. -1.
</event>
<event>
 7    1  0.1538805E-008  0.4614232E+02  0.7816164E-02  0.1320468E+00
        -11   -1    0    0    0    0  0.00000000000E+00  0.00000000000E+00  0.45593999997E+02  0.45594000000E+02  0.51100000000E-03 0.  1.
         11   -1    0    0    0    0 -0.00000000000E+00 -0.00000000000E+00 -0.45593999997E+02  0.45594000000E+02  0.51100000000E-03 0. -1.
    9900012    2    1    2    0    0  0.98432665227E+01  0.43628360132E+02 -0.53656118799E+01  0.46142317693E+02  0.99999993799E+01 0.  0.
        -12    1    1    2    0    0 -0.98432665227E+01 -0.43628360132E+02  0.53656118799E+01  0.45045682307E+02  0.00000000000E+00 0.  1.
         11    1    3    3    0    0  0.94811159146E+01  0.23508394540E+02 -0.34241947864E+01  0.25578531683E+02  0.51100000000E-03 0. -1.
        -11    1    3    3    0    0 -0.12960916198E+01  0.85683596223E+01 -0.19999553169E+01  0.88936191527E+01  0.51100000000E-03 0.  1.
         12    1    3    3    0    0  0.16582422279E+01  0.11551605970E+02  0.58538223372E-01  0.11670166858E+02  0.00000000000E+00 0. -1.
</event>
<event>
 7    1  0.1538805E-008  0.4614232E+02  0.7816164E-02  0.1320468E+00
        -11   -1    0    0    0    0  0.00000000000E+00  0.00000000000E+00  0.45593999997E+02  0.45594000000E+02  0.51100000000E-03 0.  1.
         11   -1    0    0    0    0 -0.00000000000E+00 -0.00000000000E+00 -0.45593999997E+02  0.45594000000E+02  0.51100000000E-03 0. -1.
    9900012    2    1    2    0    0  0.31898244685E+02 -0.10693889508E+02 -0.29954235001E+02  0.46142317840E+02  0.10000000718E+02 0.  0.
        -12    1    1    2    0    0 -0.31898244685E+02  0.10693889508E+02  0.29954235001E+02  0.45045682160E+02  0.00000000000E+00 0.  1.
         11    1    3    3    0    0  0.11475407252E+02 -0.70292305393E+01 -0.76415456711E+01  0.15475408689E+02  0.51100000000E-03 0. -1.
        -11    1    3    3    0    0  0.12847548175E+02 -0.97480334564E+00 -0.12154094330E+02  0.17712474274E+02  0.51100000000E-03 0.  1.
        -12    1    3    3    0    0  0.75752892578E+01 -0.26898556234E+01 -0.10158594999E+02  0.12954434877E+02  0.00000000000E+00 0.  1.
</event>
<event>
 7    1  0.1538805E-008  0.4614232E+02  0.7816164E-02  0.1320468E+00
        -11   -1    0    0    0    0  0.00000000000E+00  0.00000000000E+00  0.45593999997E+02  0.45594000000E+02  0.51100000000E-03 0.  1.
         11   -1    0    0    0    0 -0.00000000000E+00 -0.00000000000E+00 -0.45593999997E+02  0.45594000000E+02  0.51100000000E-03 0. -1.
    9900012    2    1    2    0    0  0.30294319390E+02 -0.74890419479E+01 -0.32485102894E+02  0.46142318224E+02  0.10000004223E+02 0.  0.
        -12    1    1    2    0    0 -0.30294319390E+02  0.74890419479E+01  0.32485102894E+02  0.45045681776E+02  0.00000000000E+00 0.  1.
         11    1    3    3    0    0  0.23644289186E+02 -0.34899283083E+01 -0.28168322325E+02  0.36941662030E+02  0.51100000000E-03 0. -1.
        -11    1    3    3    0    0  0.69315955649E+00 -0.10539707942E+01 -0.15603306443E+01  0.20064786534E+01  0.51100000000E-03 0.  1.
         12    1    3    3    0    0  0.59568706482E+01 -0.29451428454E+01 -0.27564499248E+01  0.71941775407E+01  0.00000000000E+00 0. -1.
</event>
<event>
 7    1  0.1538805E-008  0.4614232E+02  0.7816164E-02  0.1320468E+00
        -11   -1    0    0    0    0  0.00000000000E+00  0.00000000000E+00  0.45593999997E+02  0.45594000000E+02  0.51100000000E-03 0. -1.
         11   -1    0    0    0    0 -0.00000000000E+00 -0.00000000000E+00 -0.45593999997E+02  0.45594000000E+02  0.51100000000E-03 0.  1.
    9900012    2    1    2    0    0  0.39864649098E+02 -0.17011226563E+02  0.12269531818E+02  0.46142317766E+02  0.10000000042E+02 0.  0.
        -12    1    1    2    0    0 -0.39864649098E+02  0.17011226563E+02 -0.12269531818E+02  0.45045682234E+02  0.00000000000E+00 0.  1.
         11    1    3    3    0    0  0.32665405942E+02 -0.14106409704E+02  0.10348141258E+02  0.37055412126E+02  0.51100000000E-03 0. -1.
        -11    1    3    3    0    0  0.25585337265E+01 -0.24146980735E+01 -0.90313648156E+00  0.36321505174E+01  0.51100000000E-03 0.  1.
         12    1    3    3    0    0  0.46407094303E+01 -0.49011878621E+00  0.28245270409E+01  0.54547551225E+01  0.00000000000E+00 0. -1.
</event>
<event>
 7    1  0.1538805E-008  0.4614232E+02  0.7816164E-02  0.1320468E+00
        -11   -1    0    0    0    0  0.00000000000E+00  0.00000000000E+00  0.45593999997E+02  0.45594000000E+02  0.51100000000E-03 0.  1.
         11   -1    0    0    0    0 -0.00000000000E+00 -0.00000000000E+00 -0.45593999997E+02  0.45594000000E+02  0.51100000000E-03 0. -1.
    9900012    2    1    2    0    0 -0.82208584484E+01  0.18006128233E+02 -0.40463691917E+02  0.46142317286E+02  0.99999956693E+01 0.  0.
        -12    1    1    2    0    0  0.82208584484E+01 -0.18006128233E+02  0.40463691917E+02  0.45045682714E+02  0.00000000000E+00 0.  1.
         11    1    3    3    0    0 -0.79676976871E+01  0.10021367520E+02 -0.18096813802E+02  0.22167694590E+02  0.51100000000E-03 0. -1.
        -11    1    3    3    0    0  0.58578053078E+00  0.76680861955E+01 -0.20690085194E+02  0.22073112837E+02  0.51100000000E-03 0.  1.
         12    1    3    3    0    0 -0.83894129207E+00  0.31667451783E+00 -0.16767929210E+01  0.19015098585E+01  0.00000000000E+00 0. -1.
</event>
<event>
 7    1  0.1538805E-008  0.4614232E+02  0.7816164E-02  0.1320468E+00
        -11   -1    0    0    0    0  0.00000000000E+00  0.00000000000E+00  0.45593999997E+02  0.45594000000E+02  0.51100000000E-03 0.  1.
         11   -1    0    0    0    0 -0.00000000000E+00 -0.00000000000E+00 -0.45593999997E+02  0.45594000000E+02  0.51100000000E-03 0. -1.
    9900012    2    1    2    0    0  0.41158665281E+02  0.13249459366E+02 -0.12630500049E+02  0.46142318380E+02  0.10000005639E+02 0.  0.
        -12    1    1    2    0    0 -0.41158665281E+02 -0.13249459366E+02  0.12630500049E+02  0.45045681620E+02  0.00000000000E+00 0.  1.
         11    1    3    3    0    0  0.17968936474E+02  0.80832157897E+01 -0.56220832753E+01  0.20489726111E+02  0.51100000000E-03 0. -1.
        -11    1    3    3    0    0  0.11522749697E+02  0.54089702990E+01 -0.55711676650E+01  0.13894913807E+02  0.51100000000E-03 0.  1.
        -12    1    3    3    0    0  0.11666979110E+02 -0.24272672305E+00 -0.14372491089E+01  0.11757678462E+02  0.00000000000E+00 0.  1.
</event>
<event>
 7    1  0.1538805E-008  0.4614232E+02  0.7816164E-02  0.1320468E+00
        -11   -1    0    0    0    0  0.00000000000E+00  0.00000000000E+00  0.45593999997E+02  0.45594000000E+02  0.51100000000E-03 0.  1.
         11   -1    0    0    0    0 -0.00000000000E+00 -0.00000000000E+00 -0.45593999997E+02  0.45594000000E+02  0.51100000000E-03 0. -1.
    9900012    2    1    2    0    0  0.18268722864E+02 -0.29112214444E+02 -0.29117799774E+02  0.46142317315E+02  0.99999959303E+01 0.  0.
        -12    1    1    2    0    0 -0.18268722864E+02  0.29112214444E+02  0.29117799774E+02  0.45045682685E+02  0.00000000000E+00 0.  1.
         11    1    3    3    0    0  0.14800985068E+02 -0.18191948697E+02 -0.17533391817E+02  0.29282007876E+02  0.51100000000E-03 0. -1.
        -11    1    3    3    0    0 -0.60306627114E+00 -0.49871707798E+01 -0.41732006890E+01  0.65307859838E+01  0.51100000000E-03 0.  1.
        -12    1    3    3    0    0  0.40708040665E+01 -0.59330949665E+01 -0.74112072680E+01  0.10329523455E+02  0.00000000000E+00 0.  1.
</event>
<event>
 7    1  0.1538805E-008  0.4614233E+02  0.7816164E-02  0.1320468E+00
        -11   -1    0    0    0    0  0.00000000000E+00  0.00000000000E+00  0.45593999997E+02  0.45594000000E+02  0.51100000000E-03 0. -1.
         11   -1    0    0    0    0 -0.00000000000E+00 -0.00000000000E+00 -0.45593999997E+02  0.45594000000E+02  0.51100000000E-03 0.  1.
    9900012    2    1    2    0    0 -0.17807967163E+02  0.14752341272E+02  0.38656914424E+02  0.46142330949E+02  0.10000120260E+02 0.  0.
        -12    1    1    2    0    0  0.17807967163E+02 -0.14752341272E+02 -0.38656914424E+02  0.45045669051E+02  0.00000000000E+00 0.  1.
         11    1    3    3    0    0 -0.28262099065E+01  0.32498194517E+01  0.10342623196E+02  0.11203510331E+02  0.51100000000E-03 0. -1.
        -11    1    3    3    0    0 -0.97619856081E+01  0.43815802993E+01  0.10178778638E+02  0.14768281679E+02  0.51100000000E-03 0.  1.
        -12    1    3    3    0    0 -0.52197716484E+01  0.71209415207E+01  0.18135512590E+02  0.20170538939E+02  0.00000000000E+00 0.  1.
</event>
<event>
 7    1  0.1538805E-008  0.4614232E+02  0.7816164E-02  0.1320468E+00
        -11   -1    0    0    0    0  0.00000000000E+00  0.00000000000E+00  0.45593999997E+02  0.45594000000E+02  0.51100000000E-03 0. -1.
         11   -1    0    0    0    0 -0.00000000000E+00 -0.00000000000E+00 -0.45593999997E+02  0.45594000000E+02  0.51100000000E-03 0.  1.
    9900012    2    1    2    0    0  0.43449793836E+02 -0.11636860457E+02  0.24109259535E+01  0.46142315749E+02  0.99999816506E+01 0.  0.
        -12    1    1    2    0    0 -0.43449793836E+02  0.11636860457E+02 -0.24109259535E+01  0.45045684251E+02  0.00000000000E+00 0.  1.
         11    1    3    3    0    0  0.38904153672E+02 -0.76632906505E+01  0.40879612995E+01  0.39861894390E+02  0.51100000000E-03 0. -1.
        -11    1    3    3    0    0  0.16279385602E+01 -0.15850104383E+01 -0.46018600603E+00  0.23182349895E+01  0.51100000000E-03 0.  1.
         12    1    3    3    0    0  0.29177016036E+01 -0.23885593687E+01 -0.12168493401E+01  0.39621863689E+01  0.00000000000E+00 0. -1.
</event>
<event>
 7    1  0.1538805E-008  0.4614232E+02  0.7816164E-02  0.1320468E+00
        -11   -1    0    0    0    0  0.00000000000E+00  0.00000000000E+00  0.45593999997E+02  0.45594000000E+02  0.51100000000E-03 0.  1.
         11   -1    0    0    0    0 -0.00000000000E+00 -0.00000000000E+00 -0.45593999997E+02  0.45594000000E+02  0.51100000000E-03 0. -1.
    9900012    2    1    2    0    0  0.27318197976E+02  0.28230590551E+02  0.22042306904E+02  0.46142317886E+02  0.10000001135E+02 0.  0.
        -12    1    1    2    0    0 -0.27318197976E+02 -0.28230590551E+02 -0.22042306904E+02  0.45045682114E+02  0.00000000000E+00 0.  1.
         11    1    3    3    0    0  0.12353303987E+02  0.10663349101E+02  0.45492070706E+01  0.16941263786E+02  0.51100000000E-03 0.  1.
        -11    1    3    3    0    0  0.15486418064E+01  0.40520123430E+01  0.32249492193E+01  0.54053115729E+01  0.51100000000E-03 0. -1.
         12    1    3    3    0    0  0.13416252183E+02  0.13515229106E+02  0.14268150614E+02  0.23795742526E+02  0.00000000000E+00 0. -1.
</event>
<event>
 7    1  0.1538805E-008  0.4614232E+02  0.7816164E-02  0.1320468E+00
        -11   -1    0    0    0    0  0.00000000000E+00  0.00000000000E+00  0.45593999997E+02  0.45594000000E+02  0.51100000000E-03 0.  1.
         11   -1    0    0    0    0 -0.00000000000E+00 -0.00000000000E+00 -0.45593999997E+02  0.45594000000E+02  0.51100000000E-03 0. -1.
    9900012    2    1    2    0    0  0.37732014325E+01  0.15588581021E+02 -0.42093617591E+02  0.46142317086E+02  0.99999938476E+01 0.  0.
        -12    1    1    2    0    0 -0.37732014325E+01 -0.15588581021E+02  0.42093617591E+02  0.45045682914E+02  0.00000000000E+00 0.  1.
         11    1    3    3    0    0  0.44225653035E+01  0.44723134841E+01 -0.18380627773E+02  0.19426995376E+02  0.51100000000E-03 0. -1.
        -11    1    3    3    0    0  0.76899781228E+00  0.15550356073E+01 -0.93364997057E+00  0.19700751011E+01  0.51100000000E-03 0.  1.
        -12    1    3    3    0    0 -0.14183616834E+01  0.95612319294E+01 -0.22779339847E+02  0.24745246609E+02  0.00000000000E+00 0.  1.
</event>
<event>
 7    1  0.1538805E-008  0.4614232E+02  0.7816164E-02  0.1320468E+00
        -11   -1    0    0    0    0  0.00000000000E+00  0.00000000000E+00  0.45593999997E+02  0.45594000000E+02  0.51100000000E-03 0.  1.
         11   -1    0    0    0    0 -0.00000000000E+00 -0.00000000000E+00 -0.45593999997E+02  0.45594000000E+02  0.51100000000E-03 0. -1.
    9900012    2    1    2    0    0  0.29809925350E+02 -0.32129405849E+02 -0.10401112552E+02  0.46142317500E+02  0.99999976168E+01 0.  0.
        -12    1    1    2    0    0 -0.29809925350E+02  0.32129405849E+02  0.10401112552E+02  0.45045682500E+02  0.00000000000E+00 0.  1.
         11    1    3    3    0    0  0.18387526864E+02 -0.24213483618E+02 -0.46675397126E+01  0.30760036741E+02  0.51100000000E-03 0. -1.
        -11    1    3    3    0    0  0.41737513681E+01 -0.10826997884E+01 -0.16981904557E+01  0.46342518706E+01  0.51100000000E-03 0.  1.
         12    1    3    3    0    0  0.72486471183E+01 -0.68332224422E+01 -0.40353823840E+01  0.10748028888E+02  0.00000000000E+00 0. -1.
</event>
<event>
 7    1  0.1538805E-008  0.4614232E+02  0.7816164E-02  0.1320468E+00
        -11   -1    0    0    0    0  0.00000000000E+00  0.00000000000E+00  0.45593999997E+02  0.45594000000E+02  0.51100000000E-03 0. -1.
         11   -1    0    0    0    0 -0.00000000000E+00 -0.00000000000E+00 -0.45593999997E+02  0.45594000000E+02  0.51100000000E-03 0.  1.
    9900012    2    1    2    0    0  0.24447141794E+02  0.28440217085E+02 -0.24952049524E+02  0.46142318019E+02  0.10000002348E+02 0.  0.
        -12    1    1    2    0    0 -0.24447141794E+02 -0.28440217085E+02  0.24952049524E+02  0.45045681981E+02  0.00000000000E+00 0.  1.
         11    1    3    3    0    0  0.89361364561E+01  0.14065850353E+02 -0.11542957344E+02  0.20271717870E+02  0.51100000000E-03 0. -1.
        -11    1    3    3    0    0  0.13149174206E+02  0.89455464147E+01 -0.77930478438E+01  0.17710312756E+02  0.51100000000E-03 0.  1.
        -12    1    3    3    0    0  0.23618311311E+01  0.54288203175E+01 -0.56160443367E+01  0.81602873922E+01  0.00000000000E+00 0.  1.
</event>
<event>
 7    1  0.1538805E-008  0.4614232E+02  0.7816164E-02  0.1320468E+00
        -11   -1    0    0    0    0  0.00000000000E+00  0.00000000000E+00  0.45593999997E+02  0.45594000000E+02  0.51100000000E-03 0. -1.
         11   -1    0    0    0    0 -0.00000000000E+00 -0.00000000000E+00 -0.45593999997E+02  0.45594000000E+02  0.51100000000E-03 0.  1.
    9900012    2    1    2    0    0  0.22760678481E+02 -0.72604022290E+01  0.38188371176E+02  0.46142316316E+02  0.99999868244E+01 0.  0.
        -12    1    1    2    0    0 -0.22760678481E+02  0.72604022290E+01 -0.38188371176E+02  0.45045683684E+02  0.00000000000E+00 0.  1.
         11    1    3    3    0    0  0.37754905799E+01  0.11991966467E+01  0.11167429302E+02  0.11849214286E+02  0.51100000000E-03 0. -1.
        -11    1    3    3    0    0  0.11626500394E+02 -0.33764646182E+01  0.14193703118E+02  0.18655756034E+02  0.51100000000E-03 0.  1.
         12    1    3    3    0    0  0.73586875071E+01 -0.50831342575E+01  0.12827238756E+02  0.15637345996E+02  0.00000000000E+00 0. -1.
</event>
<event>
 7    1  0.1538805E-008  0.4614231E+02  0.7816164E-02  0.1320468E+00
        -11   -1    0    0    0    0  0.00000000000E+00  0.00000000000E+00  0.45593999997E+02  0.45594000000E+02  0.51100000000E-03 0.  1.
         11   -1    0    0    0    0 -0.00000000000E+00 -0.00000000000E+00 -0.45593999997E+02  0.45594000000E+02  0.51100000000E-03 0. -1.
    9900012    2    1    2    0    0  0.20391740735E+02 -0.20708628621E+02 -0.34415748093E+02  0.46142310902E+02  0.99999374507E+01 0.  0.
        -12    1    1    2    0    0 -0.20391740735E+02  0.20708628621E+02  0.34415748093E+02  0.45045689098E+02  0.00000000000E+00 0.  1.
         11    1    3    3    0    0  0.80890021654E+00 -0.43524976069E+01 -0.32649395641E+01  0.55007622741E+01  0.51100000000E-03 0. -1.
        -11    1    3    3    0    0  0.12360630905E+02 -0.12057606247E+02 -0.17318940611E+02  0.24456425923E+02  0.51100000000E-03 0.  1.
        -12    1    3    3    0    0  0.72222096132E+01 -0.42985247667E+01 -0.13831867918E+02  0.16185122705E+02  0.00000000000E+00 0.  1.
</event>
<event>
 7    1  0.1538805E-008  0.4614232E+02  0.7816164E-02  0.1320468E+00
        -11   -1    0    0    0    0  0.00000000000E+00  0.00000000000E+00  0.45593999997E+02  0.45594000000E+02  0.51100000000E-03 0.  1.
         11   -1    0    0    0    0 -0.00000000000E+00 -0.00000000000E+00 -0.45593999997E+02  0.45594000000E+02  0.51100000000E-03 0. -1.
    9900012    2    1    2    0    0 -0.19791489692E+02 -0.26208738366E+01 -0.40379963708E+02  0.46142317488E+02  0.99999975128E+01 0.  0.
        -12    1    1    2    0    0  0.19791489692E+02  0.26208738366E+01  0.40379963708E+02  0.45045682512E+02  0.00000000000E+00 0.  1.
         11    1    3    3    0    0 -0.99282601902E+01 -0.38449263857E+01 -0.17780522028E+02  0.20724400429E+02  0.51100000000E-03 0.  1.
        -11    1    3    3    0    0 -0.65854690804E+01  0.15895656496E+00 -0.77385697161E+01  0.10162634093E+02  0.51100000000E-03 0. -1.
         12    1    3    3    0    0 -0.32777604210E+01  0.10650959842E+01 -0.14860871964E+02  0.15255282966E+02  0.00000000000E+00 0. -1.
</event>
<event>
 7    1  0.1538805E-008  0.4614232E+02  0.7816164E-02  0.1320468E+00
        -11   -1    0    0    0    0  0.00000000000E+00  0.00000000000E+00  0.45593999997E+02  0.45594000000E+02  0.51100000000E-03 0.  1.
         11   -1    0    0    0    0 -0.00000000000E+00 -0.00000000000E+00 -0.45593999997E+02  0.45594000000E+02  0.51100000000E-03 0. -1.
    9900012    2    1    2    0    0  0.40164377023E+02  0.71868414366E+01  0.19086265173E+02  0.46142318856E+02  0.10000009985E+02 0.  0.
        -12    1    1    2    0    0 -0.40164377023E+02 -0.71868414366E+01 -0.19086265173E+02  0.45045681144E+02  0.00000000000E+00 0.  1.
         11    1    3    3    0    0  0.71285881009E+01  0.18592602814E+01  0.25617375311E+01  0.77997510567E+01  0.51100000000E-03 0. -1.
        -11    1    3    3    0    0  0.14654799420E+01  0.35396150764E+00 -0.10804560503E+01  0.18548061211E+01  0.51100000000E-03 0.  1.
        -12    1    3    3    0    0  0.31570308980E+02  0.49736196476E+01  0.17604983692E+02  0.36487761678E+02  0.00000000000E+00 0.  1.
</event>
<event>
 7    1  0.1538805E-008  0.4614232E+02  0.7816164E-02  0.1320468E+00
        -11   -1    0    0    0    0  0.00000000000E+00  0.00000000000E+00  0.45593999997E+02  0.45594000000E+02  0.51100000000E-03 0. -1.
         11   -1    0    0    0    0 -0.00000000000E+00 -0.00000000000E+00 -0.45593999997E+02  0.45594000000E+02  0.51100000000E-03 0.  1.
    9900012    2    1    2    0    0 -0.14750840688E+02 -0.28311435386E+02  0.31780321051E+02  0.46142317846E+02  0.10000000775E+02 0.  0.
        -12    1    1    2    0    0  0.14750840688E+02  0.28311435386E+02 -0.31780321051E+02  0.45045682154E+02  0.00000000000E+00 0.  1.
         11    1    3    3    0    0 -0.82461476486E+01 -0.19254523744E+02  0.19527798674E+02  0.28636874078E+02  0.51100000000E-03 0. -1.
        -11    1    3    3    0    0 -0.35243037539E+01 -0.83124992013E+00  0.24803515495E+01  0.43890588342E+01  0.51100000000E-03 0.  1.
        -12    1    3    3    0    0 -0.29803892854E+01 -0.82256617222E+01  0.97721708270E+01  0.13116384934E+02  0.00000000000E+00 0.  1.
</event>
<event>
 7    1  0.1538805E-008  0.4614232E+02  0.7816164E-02  0.1320468E+00
        -11   -1    0    0    0    0  0.00000000000E+00  0.00000000000E+00  0.45593999997E+02  0.45594000000E+02  0.51100000000E-03 0. -1.
         11   -1    0    0    0    0 -0.00000000000E+00 -0.00000000000E+00 -0.45593999997E+02  0.45594000000E+02  0.51100000000E-03 0.  1.
    9900012    2    1    2    0    0  0.40260493765E+02 -0.65650306753E+01 -0.19107757538E+02  0.46142318919E+02  0.10000010555E+02 0.  0.
        -12    1    1    2    0    0 -0.40260493765E+02  0.65650306753E+01  0.19107757538E+02  0.45045681081E+02  0.00000000000E+00 0.  1.
         11    1    3    3    0    0  0.12107799089E+02 -0.60068351574E+00 -0.74564907784E+01  0.14232317958E+02  0.51100000000E-03 0. -1.
        -11    1    3    3    0    0  0.80357569769E+01 -0.39406541258E+01 -0.64537059313E+01  0.11034149974E+02  0.51100000000E-03 0.  1.
        -12    1    3    3    0    0  0.20116937699E+02 -0.20236930338E+01 -0.51975608287E+01  0.20875850987E+02  0.00000000000E+00 0.  1.
</event>
<event>
 7    1  0.1538805E-008  0.4614231E+02  0.7816164E-02  0.1320468E+00
        -11   -1    0    0    0    0  0.00000000000E+00  0.00000000000E+00  0.45593999997E+02  0.45594000000E+02  0.51100000000E-03 0.  1.
         11   -1    0    0    0    0 -0.00000000000E+00 -0.00000000000E+00 -0.45593999997E+02  0.45594000000E+02  0.51100000000E-03 0. -1.
    9900012    2    1    2    0    0 -0.15689487237E+02  0.31071827282E+01 -0.42110559877E+02  0.46142313776E+02  0.99999636584E+01 0.  0.
        -12    1    1    2    0    0  0.15689487237E+02 -0.31071827282E+01  0.42110559877E+02  0.45045686224E+02  0.00000000000E+00 0.  1.
         11    1    3    3    0    0 -0.10421309455E+02  0.61257617311E+01 -0.28994767845E+02  0.31413774211E+02  0.51100000000E-03 0. -1.
        -11    1    3    3    0    0 -0.21662321317E+00 -0.13705821121E+01 -0.27043056943E+01  0.30395214248E+01  0.51100000000E-03 0.  1.
         12    1    3    3    0    0 -0.50515545692E+01 -0.16479968908E+01 -0.10411486337E+02  0.11689018140E+02  0.00000000000E+00 0. -1.
</event>
<event>
 7    1  0.1538805E-008  0.4614232E+02  0.7816164E-02  0.1320468E+00
        -11   -1    0    0    0    0  0.00000000000E+00  0.00000000000E+00  0.45593999997E+02  0.45594000000E+02  0.51100000000E-03 0.  1.
         11   -1    0    0    0    0 -0.00000000000E+00 -0.00000000000E+00 -0.45593999997E+02  0.45594000000E+02  0.51100000000E-03 0. -1.
    9900012    2    1    2    0    0 -0.34156862547E+02 -0.29313406671E+02  0.17738013364E+01  0.46142318288E+02  0.10000004804E+02 0.  0.
        -12    1    1    2    0    0  0.34156862547E+02  0.29313406671E+02 -0.17738013364E+01  0.45045681712E+02  0.00000000000E+00 0.  1.
         11    1    3    3    0    0 -0.61140135625E+01 -0.93558108134E+01  0.13625482074E+01  0.11259169405E+02  0.51100000000E-03 0. -1.
        -11    1    3    3    0    0 -0.51845740241E+01 -0.66430860138E+01  0.19128462381E+00  0.84289376357E+01  0.51100000000E-03 0.  1.
        -12    1    3    3    0    0 -0.22858274961E+02 -0.13314509844E+02  0.21996850517E+00  0.26454211247E+02  0.00000000000E+00 0.  1.
</event>
<event>
 7    1  0.1538805E-008  0.4614232E+02  0.7816164E-02  0.1320468E+00
        -11   -1    0    0    0    0  0.00000000000E+00  0.00000000000E+00  0.45593999997E+02  0.45594000000E+02  0.51100000000E-03 0. -1.
         11   -1    0    0    0    0 -0.00000000000E+00 -0.00000000000E+00 -0.45593999997E+02  0.45594000000E+02  0.51100000000E-03 0.  1.
    9900012    2    1    2    0    0  0.32671298329E+02  0.32809183425E+01  0.30837240939E+02  0.46142316651E+02  0.99999898736E+01 0.  0.
        -12    1    1    2    0    0 -0.32671298329E+02 -0.32809183425E+01 -0.30837240939E+02  0.45045683349E+02  0.00000000000E+00 0.  1.
         11    1    3    3    0    0  0.13211169978E+02 -0.23776048229E+01  0.14839411787E+02  0.20009901532E+02  0.51100000000E-03 0. -1.
        -11    1    3    3    0    0  0.18429318281E+02  0.62143614322E+01  0.14665003251E+02  0.24358168669E+02  0.51100000000E-03 0.  1.
        -12    1    3    3    0    0  0.10308100705E+01 -0.55583826681E+00  0.13328259018E+01  0.17742464499E+01  0.00000000000E+00 0.  1.
</event>
<event>
 7    1  0.1538805E-008  0.4614232E+02  0.7816164E-02  0.1320468E+00
        -11   -1    0    0    0    0  0.00000000000E+00  0.00000000000E+00  0.45593999997E+02  0.45594000000E+02  0.51100000000E-03 0. -1.
         11   -1    0    0    0    0 -0.00000000000E+00 -0.00000000000E+00 -0.45593999997E+02  0.45594000000E+02  0.51100000000E-03 0.  1.
    9900012    2    1    2    0    0 -0.17155718820E+01 -0.35462278040E+02  0.27723583654E+02  0.46142318284E+02  0.10000004765E+02 0.  0.
        -12    1    1    2    0    0  0.17155718820E+01  0.35462278040E+02 -0.27723583654E+02  0.45045681716E+02  0.00000000000E+00 0.  1.
         11    1    3    3    0    0  0.12719865637E+01 -0.13198472602E+02  0.14558041654E+02  0.19691475463E+02  0.51100000000E-03 0. -1.
        -11    1    3    3    0    0 -0.10188273516E+01 -0.19595581025E+02  0.11096047152E+02  0.22542117637E+02  0.51100000000E-03 0.  1.
        -12    1    3    3    0    0 -0.19687310941E+01 -0.26682244133E+01  0.20694948471E+01  0.39087251838E+01  0.00000000000E+00 0.  1.
</event>
<event>
 7    1  0.1538805E-008  0.4614232E+02  0.7816164E-02  0.1320468E+00
        -11   -1    0    0    0    0  0.00000000000E+00  0.00000000000E+00  0.45593999997E+02  0.45594000000E+02  0.51100000000E-03 0.  1.
         11   -1    0    0    0    0 -0.00000000000E+00 -0.00000000000E+00 -0.45593999997E+02  0.45594000000E+02  0.51100000000E-03 0. -1.
    9900012    2    1    2    0    0  0.80630614881E+01  0.96100230303E+01 -0.43263702676E+02  0.46142317938E+02  0.10000001611E+02 0.  0.
        -12    1    1    2    0    0 -0.80630614881E+01 -0.96100230303E+01  0.43263702676E+02  0.45045682062E+02  0.00000000000E+00 0.  1.
         11    1    3    3    0    0  0.30900820054E+01  0.86160924410E+01 -0.29922163755E+02  0.31290917849E+02  0.51100000000E-03 0. -1.
        -11    1    3    3    0    0  0.10530816539E+01  0.29417222043E+00 -0.18936125685E+00  0.11096739214E+01  0.51100000000E-03 0.  1.
         12    1    3    3    0    0  0.39198978288E+01  0.69975836883E+00 -0.13152177664E+02  0.13741726168E+02  0.00000000000E+00 0. -1.
</event>
<event>
 7    1  0.1538805E-008  0.4614232E+02  0.7816164E-02  0.1320468E+00
        -11   -1    0    0    0    0  0.00000000000E+00  0.00000000000E+00  0.45593999997E+02  0.45594000000E+02  0.51100000000E-03 0.  1.
         11   -1    0    0    0    0 -0.00000000000E+00 -0.00000000000E+00 -0.45593999997E+02  0.45594000000E+02  0.51100000000E-03 0. -1.
    9900012    2    1    2    0    0 -0.15351783334E+02  0.15552680803E+02 -0.39389726815E+02  0.46142315298E+02  0.99999775413E+01 0.  0.
        -12    1    1    2    0    0  0.15351783334E+02 -0.15552680803E+02  0.39389726815E+02  0.45045684702E+02  0.00000000000E+00 0.  1.
         11    1    3    3    0    0 -0.92743083428E+01  0.94708513653E+01 -0.24103309589E+02  0.27507805333E+02  0.51100000000E-03 0. -1.
        -11    1    3    3    0    0 -0.17692929147E+01  0.55312522456E+01 -0.58323363270E+01  0.82305100762E+01  0.51100000000E-03 0.  1.
        -12    1    3    3    0    0 -0.43081820767E+01  0.55057719185E+00 -0.94540808985E+01  0.10403999889E+02  0.00000000000E+00 0.  1.
</event>
<event>
 7    1  0.1538805E-008  0.4614232E+02  0.7816164E-02  0.1320468E+00
        -11   -1    0    0    0    0  0.00000000000E+00  0.00000000000E+00  0.45593999997E+02  0.45594000000E+02  0.51100000000E-03 0. -1.
         11   -1    0    0    0    0 -0.00000000000E+00 -0.00000000000E+00 -0.45593999997E+02  0.45594000000E+02  0.51100000000E-03 0.  1.
    9900012    2    1    2    0    0  0.53655739560E+01  0.28657425577E+02  0.34337676482E+02  0.46142318179E+02  0.10000003807E+02 0.  0.
        -12    1    1    2    0    0 -0.53655739560E+01 -0.28657425577E+02 -0.34337676482E+02  0.45045681821E+02  0.00000000000E+00 0.  1.
         11    1    3    3    0    0  0.16862028659E+01  0.77102253615E+01  0.16486400333E+02  0.18278190595E+02  0.51100000000E-03 0. -1.
        -11    1    3    3    0    0  0.10264205973E+01  0.10947088862E+02  0.10182323575E+02  0.14985726791E+02  0.51100000000E-03 0.  1.
        -12    1    3    3    0    0  0.26529504929E+01  0.10000111354E+02  0.76689525739E+01  0.12878400793E+02  0.00000000000E+00 0.  1.
</event>
<event>
 7    1  0.1538805E-008  0.4614232E+02  0.7816164E-02  0.1320468E+00
        -11   -1    0    0    0    0  0.00000000000E+00  0.00000000000E+00  0.45593999997E+02  0.45594000000E+02  0.51100000000E-03 0. -1.
         11   -1    0    0    0    0 -0.00000000000E+00 -0.00000000000E+00 -0.45593999997E+02  0.45594000000E+02  0.51100000000E-03 0.  1.
    9900012    2    1    2    0    0 -0.15156094196E+02 -0.24291702778E+02  0.34775272403E+02  0.46142316679E+02  0.99999901347E+01 0.  0.
        -12    1    1    2    0    0  0.15156094196E+02  0.24291702778E+02 -0.34775272403E+02  0.45045683321E+02  0.00000000000E+00 0.  1.
         11    1    3    3    0    0 -0.16884918483E+01 -0.55003802547E+01  0.31633869571E+01  0.65659884990E+01  0.51100000000E-03 0. -1.
        -11    1    3    3    0    0 -0.27063190834E+01 -0.71299067770E+01  0.13426922561E+02  0.15441566739E+02  0.51100000000E-03 0.  1.
         12    1    3    3    0    0 -0.10761283265E+02 -0.11661415746E+02  0.18184962885E+02  0.24134761441E+02  0.00000000000E+00 0. -1.
</event>
<event>
 7    1  0.1538805E-008  0.4614232E+02  0.7816164E-02  0.1320468E+00
        -11   -1    0    0    0    0  0.00000000000E+00  0.00000000000E+00  0.45593999997E+02  0.45594000000E+02  0.51100000000E-03 0.  1.
         11   -1    0    0    0    0 -0.00000000000E+00 -0.00000000000E+00 -0.45593999997E+02  0.45594000000E+02  0.51100000000E-03 0. -1.
    9900012    2    1    2    0    0  0.41387419096E+02 -0.13886081058E+02 -0.11107261599E+02  0.46142323551E+02  0.10000052795E+02 0.  0.
        -12    1    1    2    0    0 -0.41387419096E+02  0.13886081058E+02  0.11107261599E+02  0.45045676449E+02  0.00000000000E+00 0.  1.
         11    1    3    3    0    0  0.22120941114E+02 -0.69375967305E+01 -0.82408385036E+01  0.24604424473E+02  0.51100000000E-03 0. -1.
        -11    1    3    3    0    0 -0.36349214181E+00 -0.48720532445E+00 -0.39432144675E+00  0.72455864485E+00  0.51100000000E-03 0.  1.
        -12    1    3    3    0    0  0.19629970124E+02 -0.64612790030E+01 -0.24721016487E+01  0.20813340433E+02  0.00000000000E+00 0.  1.
</event>
<event>
 7    1  0.1538805E-008  0.4614232E+02  0.7816164E-02  0.1320468E+00
        -11   -1    0    0    0    0  0.00000000000E+00  0.00000000000E+00  0.45593999997E+02  0.45594000000E+02  0.51100000000E-03 0.  1.
         11   -1    0    0    0    0 -0.00000000000E+00 -0.00000000000E+00 -0.45593999997E+02  0.45594000000E+02  0.51100000000E-03 0. -1.
    9900012    2    1    2    0    0 -0.20638751471E+02 -0.39367943875E+02  0.73020560793E+01  0.46142322181E+02  0.10000040300E+02 0.  0.
        -12    1    1    2    0    0  0.20638751471E+02  0.39367943875E+02 -0.73020560793E+01  0.45045677819E+02  0.00000000000E+00 0.  1.
         11    1    3    3    0    0 -0.10115645249E+02 -0.21276646529E+02 -0.53107025101E+00  0.23564889183E+02  0.51100000000E-03 0. -1.
        -11    1    3    3    0    0 -0.40391182812E+01 -0.91983001328E+01  0.49547890289E+01  0.11201479206E+02  0.51100000000E-03 0.  1.
         12    1    3    3    0    0 -0.64839879408E+01 -0.88929972128E+01  0.28783373014E+01  0.11375953791E+02  0.00000000000E+00 0. -1.
</event>
<event>
 7    1  0.1538805E-008  0.4614232E+02  0.7816164E-02  0.1320468E+00
        -11   -1    0    0    0    0  0.00000000000E+00  0.00000000000E+00  0.45593999997E+02  0.45594000000E+02  0.51100000000E-03 0. -1.
         11   -1    0    0    0    0 -0.00000000000E+00 -0.00000000000E+00 -0.45593999997E+02  0.45594000000E+02  0.51100000000E-03 0.  1.
    9900012    2    1    2    0    0  0.30641088718E+02  0.14254615921E+02  0.29783269507E+02  0.46142317239E+02  0.99999952408E+01 0.  0.
        -12    1    1    2    0    0 -0.30641088718E+02 -0.14254615921E+02 -0.29783269507E+02  0.45045682761E+02  0.00000000000E+00 0.  1.
         11    1    3    3    0    0  0.18537461530E+02  0.65722616771E+01  0.14791120062E+02  0.24609131161E+02  0.51100000000E-03 0. -1.
        -11    1    3    3    0    0  0.42362974336E+01  0.16578181980E+01  0.86355426356E+01  0.97604904588E+01  0.51100000000E-03 0.  1.
         12    1    3    3    0    0  0.78673297545E+01  0.60245360458E+01  0.63566068091E+01  0.11772695620E+02  0.00000000000E+00 0. -1.
</event>
<event>
 7    1  0.1538805E-008  0.4614232E+02  0.7816164E-02  0.1320468E+00
        -11   -1    0    0    0    0  0.00000000000E+00  0.00000000000E+00  0.45593999997E+02  0.45594000000E+02  0.51100000000E-03 0.  1.
         11   -1    0    0    0    0 -0.00000000000E+00 -0.00000000000E+00 -0.45593999997E+02  0.45594000000E+02  0.51100000000E-03 0. -1.
    9900012    2    1    2    0    0  0.86751967687E+00  0.37968505688E+02 -0.24222992047E+02  0.46142319205E+02  0.10000013168E+02 0.  0.
        -12    1    1    2    0    0 -0.86751967687E+00 -0.37968505688E+02  0.24222992047E+02  0.45045680795E+02  0.00000000000E+00 0.  1.
         11    1    3    3    0    0 -0.65305584720E+00  0.12879707149E+02 -0.69625421845E+01  0.14655726939E+02  0.51100000000E-03 0. -1.
        -11    1    3    3    0    0  0.26947486364E+00  0.68095888562E+01 -0.80945357700E+00  0.68628224840E+01  0.51100000000E-03 0.  1.
        -12    1    3    3    0    0  0.12511006604E+01  0.18279209682E+02 -0.16450996286E+02  0.24623769782E+02  0.00000000000E+00 0.  1.
</event>
<event>
 7    1  0.1538805E-008  0.4614232E+02  0.7816164E-02  0.1320468E+00
        -11   -1    0    0    0    0  0.00000000000E+00  0.00000000000E+00  0.45593999997E+02  0.45594000000E+02  0.51100000000E-03 0.  1.
         11   -1    0    0    0    0 -0.00000000000E+00 -0.00000000000E+00 -0.45593999997E+02  0.45594000000E+02  0.51100000000E-03 0. -1.
    9900012    2    1    2    0    0 -0.56659070117E+01 -0.37904002778E+02 -0.23670605650E+02  0.46142317624E+02  0.99999987508E+01 0.  0.
        -12    1    1    2    0    0  0.56659070117E+01  0.37904002778E+02  0.23670605650E+02  0.45045682376E+02  0.00000000000E+00 0.  1.
         11    1    3    3    0    0 -0.20011804372E+01 -0.41681727502E+01 -0.81250898434E+00  0.46945242921E+01  0.51100000000E-03 0. -1.
        -11    1    3    3    0    0 -0.28041668618E+01 -0.55059498594E+01 -0.56674827384E+01  0.83844616103E+01  0.51100000000E-03 0.  1.
         12    1    3    3    0    0 -0.86055971272E+00 -0.28229880168E+02 -0.17190613927E+02  0.33063331722E+02  0.00000000000E+00 0. -1.
</event>
<event>
 7    1  0.1538805E-008  0.4614232E+02  0.7816164E-02  0.1320468E+00
        -11   -1    0    0    0    0  0.00000000000E+00  0.00000000000E+00  0.45593999997E+02  0.45594000000E+02  0.51100000000E-03 0.  1.
         11   -1    0    0    0    0 -0.00000000000E+00 -0.00000000000E+00 -0.45593999997E+02  0.45594000000E+02  0.51100000000E-03 0. -1.
    9900012    2    1    2    0    0 -0.13761562371E+01 -0.20899400208E+02 -0.39880255621E+02  0.46142317372E+02  0.99999964530E+01 0.  0.
        -12    1    1    2    0    0  0.13761562371E+01  0.20899400208E+02  0.39880255621E+02  0.45045682628E+02  0.00000000000E+00 0.  1.
         11    1    3    3    0    0  0.10011616044E+01 -0.13744127036E+02 -0.18133621880E+02  0.22775679909E+02  0.51100000000E-03 0. -1.
        -11    1    3    3    0    0  0.38324525712E-01  0.46801054255E+00 -0.21591407810E+01  0.22096134980E+01  0.51100000000E-03 0.  1.
         12    1    3    3    0    0 -0.24156423672E+01 -0.76232837137E+01 -0.19587492960E+02  0.21157023966E+02  0.00000000000E+00 0. -1.
</event>
<event>
 7    1  0.1538805E-008  0.4614232E+02  0.7816164E-02  0.1320468E+00
        -11   -1    0    0    0    0  0.00000000000E+00  0.00000000000E+00  0.45593999997E+02  0.45594000000E+02  0.51100000000E-03 0.  1.
         11   -1    0    0    0    0 -0.00000000000E+00 -0.00000000000E+00 -0.45593999997E+02  0.45594000000E+02  0.51100000000E-03 0. -1.
    9900012    2    1    2    0    0  0.39832005256E+01 -0.43336672876E+02 -0.11626705395E+02  0.46142318956E+02  0.10000010897E+02 0.  0.
        -12    1    1    2    0    0 -0.39832005256E+01  0.43336672876E+02  0.11626705395E+02  0.45045681044E+02  0.00000000000E+00 0.  1.
         11    1    3    3    0    0  0.21331559277E+01 -0.30224458693E+02 -0.75767895239E+01  0.31232611118E+02  0.51100000000E-03 0. -1.
        -11    1    3    3    0    0 -0.12240141180E+01 -0.81715077635E+01 -0.95159765400E+00  0.83172885033E+01  0.51100000000E-03 0.  1.
        -12    1    3    3    0    0  0.30740587159E+01 -0.49407064192E+01 -0.30983182176E+01  0.65924193349E+01  0.00000000000E+00 0.  1.
</event>
<event>
 7    1  0.1538805E-008  0.4614232E+02  0.7816164E-02  0.1320468E+00
        -11   -1    0    0    0    0  0.00000000000E+00  0.00000000000E+00  0.45593999997E+02  0.45594000000E+02  0.51100000000E-03 0.  1.
         11   -1    0    0    0    0 -0.00000000000E+00 -0.00000000000E+00 -0.45593999997E+02  0.45594000000E+02  0.51100000000E-03 0. -1.
    9900012    2    1    2    0    0 -0.33207113946E+02  0.69787374327E+01 -0.29625968863E+02  0.46142320697E+02  0.10000026772E+02 0.  0.
        -12    1    1    2    0    0  0.33207113946E+02 -0.69787374327E+01  0.29625968863E+02  0.45045679303E+02  0.00000000000E+00 0.  1.
         11    1    3    3    0    0 -0.78933083657E+01  0.24887644736E+01 -0.11298618630E+02  0.14005607761E+02  0.51100000000E-03 0. -1.
        -11    1    3    3    0    0 -0.57165983935E+01 -0.14705420059E+01 -0.45100353848E+01  0.74284864149E+01  0.51100000000E-03 0.  1.
         12    1    3    3    0    0 -0.19597207187E+02  0.59605149650E+01 -0.13817314848E+02  0.24708226521E+02  0.00000000000E+00 0. -1.
</event>
<event>
 7    1  0.1538805E-008  0.4614232E+02  0.7816164E-02  0.1320468E+00
        -11   -1    0    0    0    0  0.00000000000E+00  0.00000000000E+00  0.45593999997E+02  0.45594000000E+02  0.51100000000E-03 0.  1.
         11   -1    0    0    0    0 -0.00000000000E+00 -0.00000000000E+00 -0.45593999997E+02  0.45594000000E+02  0.51100000000E-03 0. -1.
    9900012    2    1    2    0    0 -0.41622550930E+02 -0.17111855043E+02  0.19649774151E+01  0.46142318018E+02  0.10000002346E+02 0.  0.
        -12    1    1    2    0    0  0.41622550930E+02  0.17111855043E+02 -0.19649774151E+01  0.45045681982E+02  0.00000000000E+00 0.  1.
         11    1    3    3    0    0 -0.82042133349E+01 -0.49080687003E+01 -0.22456007848E+01  0.98204367498E+01  0.51100000000E-03 0. -1.
        -11    1    3    3    0    0 -0.21177902193E+02 -0.50515316909E+01  0.10520228952E+01  0.21797437147E+02  0.51100000000E-03 0.  1.
        -12    1    3    3    0    0 -0.12240435402E+02 -0.71522546514E+01  0.31585553047E+01  0.14524444122E+02  0.00000000000E+00 0.  1.
</event>
<event>
 7    1  0.1538805E-008  0.4614232E+02  0.7816164E-02  0.1320468E+00
        -11   -1    0    0    0    0  0.00000000000E+00  0.00000000000E+00  0.45593999997E+02  0.45594000000E+02  0.51100000000E-03 0. -1.
         11   -1    0    0    0    0 -0.00000000000E+00 -0.00000000000E+00 -0.45593999997E+02  0.45594000000E+02  0.51100000000E-03 0.  1.
    9900012    2    1    2    0    0 -0.14779429545E+02 -0.31986476468E+02  0.28063272141E+02  0.46142318101E+02  0.10000003096E+02 0.  0.
        -12    1    1    2    0    0  0.14779429545E+02  0.31986476468E+02 -0.28063272141E+02  0.45045681899E+02  0.00000000000E+00 0.  1.
         11    1    3    3    0    0 -0.57642481934E-02 -0.71215808516E+01  0.70262468298E+01  0.10004253687E+02  0.51100000000E-03 0. -1.
        -11    1    3    3    0    0 -0.53394129290E+01 -0.54135869938E+01  0.38661778571E+01  0.85301574458E+01  0.51100000000E-03 0.  1.
        -12    1    3    3    0    0 -0.94342523680E+01 -0.19451308622E+02  0.17170847454E+02  0.27607906968E+02  0.00000000000E+00 0.  1.
</event>
<event>
 7    1  0.1538805E-008  0.4614233E+02  0.7816164E-02  0.1320468E+00
        -11   -1    0    0    0    0  0.00000000000E+00  0.00000000000E+00  0.45593999997E+02  0.45594000000E+02  0.51100000000E-03 0.  1.
         11   -1    0    0    0    0 -0.00000000000E+00 -0.00000000000E+00 -0.45593999997E+02  0.45594000000E+02  0.51100000000E-03 0. -1.
    9900012    2    1    2    0    0  0.40886498312E+02  0.14289088556E+02 -0.12378554278E+02  0.46142329820E+02  0.10000109959E+02 0.  0.
        -12    1    1    2    0    0 -0.40886498312E+02 -0.14289088556E+02  0.12378554278E+02  0.45045670180E+02  0.00000000000E+00 0.  1.
         11    1    3    3    0    0  0.27950353729E+02  0.94595511547E+01 -0.10004883128E+02  0.31157712822E+02  0.51100000000E-03 0. -1.
        -11    1    3    3    0    0  0.78488540303E+01  0.40437230448E+01  0.91434846504E+00  0.88764992552E+01  0.51100000000E-03 0.  1.
        -12    1    3    3    0    0  0.50872905525E+01  0.78581435689E+00 -0.32880196145E+01  0.61081177423E+01  0.00000000000E+00 0.  1.
</event>
<event>
 7    1  0.1538805E-008  0.4614232E+02  0.7816164E-02  0.1320468E+00
        -11   -1    0    0    0    0  0.00000000000E+00  0.00000000000E+00  0.45593999997E+02  0.45594000000E+02  0.51100000000E-03 0.  1.
         11   -1    0    0    0    0 -0.00000000000E+00 -0.00000000000E+00 -0.45593999997E+02  0.45594000000E+02  0.51100000000E-03 0. -1.
    9900012    2    1    2    0    0 -0.30092756625E+02  0.31965982109E+02 -0.10085415992E+02  0.46142316197E+02  0.99999857399E+01 0.  0.
        -12    1    1    2    0    0  0.30092756625E+02 -0.31965982109E+02  0.10085415992E+02  0.45045683803E+02  0.00000000000E+00 0.  1.
         11    1    3    3    0    0 -0.22622573798E+02  0.27857995889E+02 -0.93147506898E+01  0.37075778628E+02  0.51100000000E-03 0. -1.
        -11    1    3    3    0    0 -0.14225273031E+01 -0.34568684918E+00 -0.51398984878E+00  0.15515376732E+01  0.51100000000E-03 0.  1.
        -12    1    3    3    0    0 -0.60476555244E+01  0.44536730694E+01 -0.25667545355E+00  0.75149998962E+01  0.00000000000E+00 0.  1.
</event>
<event>
 7    1  0.1538805E-008  0.4614232E+02  0.7816164E-02  0.1320468E+00
        -11   -1    0    0    0    0  0.00000000000E+00  0.00000000000E+00  0.45593999997E+02  0.45594000000E+02  0.51100000000E-03 0.  1.
         11   -1    0    0    0    0 -0.00000000000E+00 -0.00000000000E+00 -0.45593999997E+02  0.45594000000E+02  0.51100000000E-03 0. -1.
    9900012    2    1    2    0    0 -0.16439642218E+02 -0.24380341559E+02 -0.34124045845E+02  0.46142318790E+02  0.10000009384E+02 0.  0.
        -12    1    1    2    0    0  0.16439642218E+02  0.24380341559E+02  0.34124045845E+02  0.45045681210E+02  0.00000000000E+00 0.  1.
         11    1    3    3    0    0 -0.65214906393E+01 -0.48532114130E+01 -0.11982274716E+02  0.14479585933E+02  0.51100000000E-03 0. -1.
        -11    1    3    3    0    0 -0.16159924040E+01 -0.71897669550E+01 -0.10238879617E+02  0.12615024232E+02  0.51100000000E-03 0.  1.
         12    1    3    3    0    0 -0.83021591748E+01 -0.12337363191E+02 -0.11902891513E+02  0.19047708625E+02  0.00000000000E+00 0. -1.
</event>
<event>
 7    1  0.1538805E-008  0.4614232E+02  0.7816164E-02  0.1320468E+00
        -11   -1    0    0    0    0  0.00000000000E+00  0.00000000000E+00  0.45593999997E+02  0.45594000000E+02  0.51100000000E-03 0.  1.
         11   -1    0    0    0    0 -0.00000000000E+00 -0.00000000000E+00 -0.45593999997E+02  0.45594000000E+02  0.51100000000E-03 0. -1.
    9900012    2    1    2    0    0  0.18819175126E+02 -0.40740614573E+02 -0.38928823869E+01  0.46142316949E+02  0.99999925991E+01 0.  0.
        -12    1    1    2    0    0 -0.18819175126E+02  0.40740614573E+02  0.38928823869E+01  0.45045683051E+02  0.00000000000E+00 0.  1.
         11    1    3    3    0    0  0.80660320720E+01 -0.15196466792E+02  0.69154444357E+00  0.17218353880E+02  0.51100000000E-03 0. -1.
        -11    1    3    3    0    0  0.34202234766E+01 -0.34871851763E+01  0.10740065222E+01  0.50011877943E+01  0.51100000000E-03 0.  1.
         12    1    3    3    0    0  0.73329195773E+01 -0.22056962604E+02 -0.56584333527E+01  0.23922775275E+02  0.00000000000E+00 0. -1.
</event>
<event>
 7    1  0.1538805E-008  0.4614232E+02  0.7816164E-02  0.1320468E+00
        -11   -1    0    0    0    0  0.00000000000E+00  0.00000000000E+00  0.45593999997E+02  0.45594000000E+02  0.51100000000E-03 0.  1.
         11   -1    0    0    0    0 -0.00000000000E+00 -0.00000000000E+00 -0.45593999997E+02  0.45594000000E+02  0.51100000000E-03 0. -1.
    9900012    2    1    2    0    0  0.42396698552E+02 -0.34463297475E+01 -0.14824179070E+02  0.46142317389E+02  0.99999966043E+01 0.  0.
        -12    1    1    2    0    0 -0.42396698552E+02  0.34463297475E+01  0.14824179070E+02  0.45045682611E+02  0.00000000000E+00 0.  1.
         11    1    3    3    0    0  0.26555755897E+02  0.90765384722E+00 -0.63944199765E+01  0.27329848405E+02  0.51100000000E-03 0. -1.
        -11    1    3    3    0    0  0.78398911670E+01 -0.17691464819E+01 -0.60930638285E+01  0.10085593679E+02  0.51100000000E-03 0.  1.
         12    1    3    3    0    0  0.80010514882E+01 -0.25848371128E+01 -0.23366952646E+01  0.87268753043E+01  0.00000000000E+00 0. -1.
</event>
<event>
 7    1  0.1538805E-008  0.4614232E+02  0.7816164E-02  0.1320468E+00
        -11   -1    0    0    0    0  0.00000000000E+00  0.00000000000E+00  0.45593999997E+02  0.45594000000E+02  0.51100000000E-03 0.  1.
         11   -1    0    0    0    0 -0.00000000000E+00 -0.00000000000E+00 -0.45593999997E+02  0.45594000000E+02  0.51100000000E-03 0. -1.
    9900012    2    1    2    0    0  0.37805593118E+01 -0.51789733132E+01 -0.44586982217E+02  0.46142319003E+02  0.10000011325E+02 0.  0.
        -12    1    1    2    0    0 -0.37805593118E+01  0.51789733132E+01  0.44586982217E+02  0.45045680997E+02  0.00000000000E+00 0.  1.
         11    1    3    3    0    0 -0.28970228157E+00 -0.27991800945E+01 -0.87545221311E+01  0.91957052269E+01  0.51100000000E-03 0. -1.
        -11    1    3    3    0    0  0.34438443221E+01 -0.12908984862E+01 -0.56721941579E+01  0.67601974411E+01  0.51100000000E-03 0.  1.
        -12    1    3    3    0    0  0.62641727132E+00 -0.10888947324E+01 -0.30160265928E+02  0.30186416335E+02  0.00000000000E+00 0.  1.
</event>
<event>
 7    1  0.1538805E-008  0.4614232E+02  0.7816164E-02  0.1320468E+00
        -11   -1    0    0    0    0  0.00000000000E+00  0.00000000000E+00  0.45593999997E+02  0.45594000000E+02  0.51100000000E-03 0. -1.
         11   -1    0    0    0    0 -0.00000000000E+00 -0.00000000000E+00 -0.45593999997E+02  0.45594000000E+02  0.51100000000E-03 0.  1.
    9900012    2    1    2    0    0 -0.36521152992E+02  0.11985183793E+02  0.23487744398E+02  0.46142318927E+02  0.10000010632E+02 0.  0.
        -12    1    1    2    0    0  0.36521152992E+02 -0.11985183793E+02 -0.23487744398E+02  0.45045681073E+02  0.00000000000E+00 0.  1.
         11    1    3    3    0    0 -0.24156628516E+02  0.44138761135E+01  0.12836442117E+02  0.27709190716E+02  0.51100000000E-03 0. -1.
        -11    1    3    3    0    0 -0.76431088541E+01  0.64629143366E+01  0.84838383823E+01  0.13121047543E+02  0.51100000000E-03 0.  1.
        -12    1    3    3    0    0 -0.47214156213E+01  0.11083933427E+01  0.21674638989E+01  0.53120806680E+01  0.00000000000E+00 0.  1.
</event>
<event>
 7    1  0.1538805E-008  0.4614232E+02  0.7816164E-02  0.1320468E+00
        -11   -1    0    0    0    0  0.00000000000E+00  0.00000000000E+00  0.45593999997E+02  0.45594000000E+02  0.51100000000E-03 0.  1.
         11   -1    0    0    0    0 -0.00000000000E+00 -0.00000000000E+00 -0.45593999997E+02  0.45594000000E+02  0.51100000000E-03 0. -1.
    9900012    2    1    2    0    0  0.64551004376E+01  0.22499544691E+02 -0.38486565206E+02  0.46142317251E+02  0.99999953456E+01 0.  0.
        -12    1    1    2    0    0 -0.64551004376E+01 -0.22499544691E+02  0.38486565206E+02  0.45045682749E+02  0.00000000000E+00 0.  1.
         11    1    3    3    0    0  0.61401553845E+01  0.92594751745E+01 -0.13857206495E+02  0.17761237591E+02  0.51100000000E-03 0. -1.
        -11    1    3    3    0    0  0.53121140340E+00  0.52047784703E+01 -0.53014224923E+01  0.74482873993E+01  0.51100000000E-03 0.  1.
        -12    1    3    3    0    0 -0.21626635038E+00  0.80352910463E+01 -0.19327936219E+02  0.20932792260E+02  0.00000000000E+00 0.  1.
</event>
<event>
 7    1  0.1538805E-008  0.4614232E+02  0.7816164E-02  0.1320468E+00
        -11   -1    0    0    0    0  0.00000000000E+00  0.00000000000E+00  0.45593999997E+02  0.45594000000E+02  0.51100000000E-03 0. -1.
         11   -1    0    0    0    0 -0.00000000000E+00 -0.00000000000E+00 -0.45593999997E+02  0.45594000000E+02  0.51100000000E-03 0.  1.
    9900012    2    1    2    0    0  0.21269789844E+01 -0.43233712722E+02  0.12467388443E+02  0.46142315080E+02  0.99999755533E+01 0.  0.
        -12    1    1    2    0    0 -0.21269789844E+01  0.43233712722E+02 -0.12467388443E+02  0.45045684920E+02  0.00000000000E+00 0.  1.
         11    1    3    3    0    0  0.43242314053E+00 -0.13758959230E+01  0.38467842392E+00  0.14926677843E+01  0.51100000000E-03 0. -1.
        -11    1    3    3    0    0  0.53221413486E+01 -0.26411089221E+02  0.56485102230E+01  0.27527740379E+02  0.51100000000E-03 0.  1.
        -12    1    3    3    0    0 -0.36275855047E+01 -0.15446727578E+02  0.64341997959E+01  0.17121906917E+02  0.00000000000E+00 0.  1.
</event>
<event>
 7    1  0.1538805E-008  0.4614232E+02  0.7816164E-02  0.1320468E+00
        -11   -1    0    0    0    0  0.00000000000E+00  0.00000000000E+00  0.45593999997E+02  0.45594000000E+02  0.51100000000E-03 0. -1.
         11   -1    0    0    0    0 -0.00000000000E+00 -0.00000000000E+00 -0.45593999997E+02  0.45594000000E+02  0.51100000000E-03 0.  1.
    9900012    2    1    2    0    0 -0.16451909471E+02 -0.18979681784E+02  0.37392776731E+02  0.46142318770E+02  0.10000009197E+02 0.  0.
        -12    1    1    2    0    0  0.16451909471E+02  0.18979681784E+02 -0.37392776731E+02  0.45045681230E+02  0.00000000000E+00 0.  1.
         11    1    3    3    0    0 -0.80197850221E+01 -0.13520296189E+02  0.27426088076E+02  0.31611796347E+02  0.51100000000E-03 0. -1.
        -11    1    3    3    0    0 -0.14207582204E+01 -0.60861941268E+00  0.18801297138E+00  0.15570230085E+01  0.51100000000E-03 0.  1.
        -12    1    3    3    0    0 -0.70113662281E+01 -0.48507661824E+01  0.97786756832E+01  0.12973499415E+02  0.00000000000E+00 0.  1.
</event>
<event>
 7    1  0.1538805E-008  0.4614232E+02  0.7816164E-02  0.1320468E+00
        -11   -1    0    0    0    0  0.00000000000E+00  0.00000000000E+00  0.45593999997E+02  0.45594000000E+02  0.51100000000E-03 0. -1.
         11   -1    0    0    0    0 -0.00000000000E+00 -0.00000000000E+00 -0.45593999997E+02  0.45594000000E+02  0.51100000000E-03 0.  1.
    9900012    2    1    2    0    0  0.44063268821E+02 -0.93471600443E+01 -0.41522296414E+00  0.46142317962E+02  0.10000001835E+02 0.  0.
        -12    1    1    2    0    0 -0.44063268821E+02  0.93471600443E+01  0.41522296414E+00  0.45045682038E+02  0.00000000000E+00 0.  1.
         11    1    3    3    0    0  0.22814230604E+02 -0.64286074503E+01 -0.14347219030E+01  0.23746042596E+02  0.51100000000E-03 0. -1.
        -11    1    3    3    0    0  0.42059798036E+01  0.19642442271E+01  0.34183335780E+00  0.46546075879E+01  0.51100000000E-03 0.  1.
        -12    1    3    3    0    0  0.17043058414E+02 -0.48827968211E+01  0.67766558104E+00  0.17741667778E+02  0.00000000000E+00 0.  1.
</event>
<event>
 7    1  0.1538805E-008  0.4614232E+02  0.7816164E-02  0.1320468E+00
        -11   -1    0    0    0    0  0.00000000000E+00  0.00000000000E+00  0.45593999997E+02  0.45594000000E+02  0.51100000000E-03 0.  1.
         11   -1    0    0    0    0 -0.00000000000E+00 -0.00000000000E+00 -0.45593999997E+02  0.45594000000E+02  0.51100000000E-03 0. -1.
    9900012    2    1    2    0    0 -0.28872209703E+02  0.12134839521E+02 -0.32376762254E+02  0.46142316995E+02  0.99999930177E+01 0.  0.
        -12    1    1    2    0    0  0.28872209703E+02 -0.12134839521E+02  0.32376762254E+02  0.45045683005E+02  0.00000000000E+00 0.  1.
         11    1    3    3    0    0 -0.30662840432E+01  0.37424200326E+01 -0.63992146733E+01  0.80223284793E+01  0.51100000000E-03 0. -1.
        -11    1    3    3    0    0 -0.25049267452E+02  0.83021241133E+01 -0.26332002926E+02  0.37279557978E+02  0.51100000000E-03 0.  1.
         12    1    3    3    0    0 -0.75665820734E+00  0.90295374723E-01  0.35445534539E+00  0.84043053806E+00  0.00000000000E+00 0. -1.
</event>
<event>
 7    1  0.1538805E-008  0.4614232E+02  0.7816164E-02  0.1320468E+00
        -11   -1    0    0    0    0  0.00000000000E+00  0.00000000000E+00  0.45593999997E+02  0.45594000000E+02  0.51100000000E-03 0.  1.
         11   -1    0    0    0    0 -0.00000000000E+00 -0.00000000000E+00 -0.45593999997E+02  0.45594000000E+02  0.51100000000E-03 0. -1.
    9900012    2    1    2    0    0  0.62261568970E+01  0.51510217337E+01 -0.44314956195E+02  0.46142318773E+02  0.10000009229E+02 0.  0.
        -12    1    1    2    0    0 -0.62261568970E+01 -0.51510217337E+01  0.44314956195E+02  0.45045681227E+02  0.00000000000E+00 0.  1.
         11    1    3    3    0    0  0.14742032521E+01  0.35773495620E+01 -0.22998960858E+02  0.23322154830E+02  0.51100000000E-03 0.  1.
        -11    1    3    3    0    0  0.13845706529E+01 -0.36404336774E+00 -0.16808699956E+02  0.16869557135E+02  0.51100000000E-03 0. -1.
        -12    1    3    3    0    0  0.33673829919E+01  0.19377155394E+01 -0.45072953813E+01  0.59506068077E+01  0.00000000000E+00 0.  1.
</event>
<event>
 7    1  0.1538805E-008  0.4614232E+02  0.7816164E-02  0.1320468E+00
        -11   -1    0    0    0    0  0.00000000000E+00  0.00000000000E+00  0.45593999997E+02  0.45594000000E+02  0.51100000000E-03 0. -1.
         11   -1    0    0    0    0 -0.00000000000E+00 -0.00000000000E+00 -0.45593999997E+02  0.45594000000E+02  0.51100000000E-03 0.  1.
    9900012    2    1    2    0    0 -0.10144025142E+02 -0.43492578206E+02  0.58828600386E+01  0.46142315997E+02  0.99999839118E+01 0.  0.
        -12    1    1    2    0    0  0.10144025142E+02  0.43492578206E+02 -0.58828600386E+01  0.45045684003E+02  0.00000000000E+00 0.  1.
         11    1    3    3    0    0 -0.24173014949E+01 -0.47020361452E+01 -0.86427399094E+00  0.53571877156E+01  0.51100000000E-03 0. -1.
        -11    1    3    3    0    0 -0.58286636948E+01 -0.13913021763E+02  0.44629190453E+01  0.15730961245E+02  0.51100000000E-03 0.  1.
        -12    1    3    3    0    0 -0.18980599518E+01 -0.24877520298E+02  0.22842149843E+01  0.25054167036E+02  0.00000000000E+00 0.  1.
</event>
<event>
 7    1  0.1538805E-008  0.4614232E+02  0.7816164E-02  0.1320468E+00
        -11   -1    0    0    0    0  0.00000000000E+00  0.00000000000E+00  0.45593999997E+02  0.45594000000E+02  0.51100000000E-03 0.  1.
         11   -1    0    0    0    0 -0.00000000000E+00 -0.00000000000E+00 -0.45593999997E+02  0.45594000000E+02  0.51100000000E-03 0. -1.
    9900012    2    1    2    0    0  0.20943716865E+02  0.29754035880E+02 -0.26555067264E+02  0.46142317357E+02  0.99999963186E+01 0.  0.
        -12    1    1    2    0    0 -0.20943716865E+02 -0.29754035880E+02  0.26555067264E+02  0.45045682643E+02  0.00000000000E+00 0.  1.
         11    1    3    3    0    0  0.76115395913E+01  0.12980001234E+02 -0.16144292601E+02  0.22069303361E+02  0.51100000000E-03 0. -1.
        -11    1    3    3    0    0  0.20052803621E+01  0.47859164623E+01 -0.29760596710E+01  0.59818957815E+01  0.51100000000E-03 0.  1.
         12    1    3    3    0    0  0.11326896912E+02  0.11988118184E+02 -0.74347149928E+01  0.18091118215E+02  0.00000000000E+00 0. -1.
</event>
<event>
 7    1  0.1538805E-008  0.4614232E+02  0.7816164E-02  0.1320468E+00
        -11   -1    0    0    0    0  0.00000000000E+00  0.00000000000E+00  0.45593999997E+02  0.45594000000E+02  0.51100000000E-03 0.  1.
         11   -1    0    0    0    0 -0.00000000000E+00 -0.00000000000E+00 -0.45593999997E+02  0.45594000000E+02  0.51100000000E-03 0. -1.
    9900012    2    1    2    0    0  0.34860032357E+02 -0.21644547593E+02 -0.18585079986E+02  0.46142317693E+02  0.99999993815E+01 0.  0.
        -12    1    1    2    0    0 -0.34860032357E+02  0.21644547593E+02  0.18585079986E+02  0.45045682307E+02  0.00000000000E+00 0.  1.
         11    1    3    3    0    0  0.18101740374E+02 -0.10524498833E+02 -0.83963263716E+01  0.22559618283E+02  0.51100000000E-03 0. -1.
        -11    1    3    3    0    0  0.38796826038E+01  0.43820018694E+00 -0.25756269580E+01  0.46773722322E+01  0.51100000000E-03 0.  1.
         12    1    3    3    0    0  0.12878609379E+02 -0.11558248947E+02 -0.76131266562E+01  0.18905327179E+02  0.00000000000E+00 0. -1.
</event>
<event>
 7    1  0.1538805E-008  0.4614232E+02  0.7816164E-02  0.1320468E+00
        -11   -1    0    0    0    0  0.00000000000E+00  0.00000000000E+00  0.45593999997E+02  0.45594000000E+02  0.51100000000E-03 0.  1.
         11   -1    0    0    0    0 -0.00000000000E+00 -0.00000000000E+00 -0.45593999997E+02  0.45594000000E+02  0.51100000000E-03 0. -1.
    9900012    2    1    2    0    0 -0.15325233366E+02  0.33837602008E+02 -0.25480723795E+02  0.46142319047E+02  0.10000011722E+02 0.  0.
        -12    1    1    2    0    0  0.15325233366E+02 -0.33837602008E+02  0.25480723795E+02  0.45045680953E+02  0.00000000000E+00 0.  1.
         11    1    3    3    0    0 -0.42966192121E+01  0.15128433528E+02 -0.11281113290E+02  0.19354429855E+02  0.51100000000E-03 0. -1.
        -11    1    3    3    0    0 -0.31224767000E+01  0.32919563706E+01 -0.62543362458E+01  0.77268078548E+01  0.51100000000E-03 0.  1.
        -12    1    3    3    0    0 -0.79061374543E+01  0.15417212110E+02 -0.79452742595E+01  0.19061081337E+02  0.00000000000E+00 0.  1.
</event>
<event>
 7    1  0.1538805E-008  0.4614232E+02  0.7816164E-02  0.1320468E+00
        -11   -1    0    0    0    0  0.00000000000E+00  0.00000000000E+00  0.45593999997E+02  0.45594000000E+02  0.51100000000E-03 0.  1.
         11   -1    0    0    0    0 -0.00000000000E+00 -0.00000000000E+00 -0.45593999997E+02  0.45594000000E+02  0.51100000000E-03 0. -1.
    9900012    2    1    2    0    0  0.11748992226E+02 -0.41202161862E+02 -0.13908864240E+02  0.46142318022E+02  0.10000002376E+02 0.  0.
        -12    1    1    2    0    0 -0.11748992226E+02  0.41202161862E+02  0.13908864240E+02  0.45045681978E+02  0.00000000000E+00 0.  1.
         11    1    3    3    0    0  0.34345284139E+01 -0.13448376776E+02 -0.14349117954E+01  0.13953988514E+02  0.51100000000E-03 0. -1.
        -11    1    3    3    0    0  0.91498768578E+01 -0.21633157760E+02 -0.10160090134E+02  0.25591818869E+02  0.51100000000E-03 0.  1.
        -12    1    3    3    0    0 -0.83541304570E+00 -0.61206273260E+01 -0.23138623106E+01  0.65965106392E+01  0.00000000000E+00 0.  1.
</event>
<event>
 7    1  0.1538805E-008  0.4614232E+02  0.7816164E-02  0.1320468E+00
        -11   -1    0    0    0    0  0.00000000000E+00  0.00000000000E+00  0.45593999997E+02  0.45594000000E+02  0.51100000000E-03 0. -1.
         11   -1    0    0    0    0 -0.00000000000E+00 -0.00000000000E+00 -0.45593999997E+02  0.45594000000E+02  0.51100000000E-03 0.  1.
    9900012    2    1    2    0    0  0.30849007046E+02 -0.18653539469E+02 -0.27009216621E+02  0.46142317045E+02  0.99999934692E+01 0.  0.
        -12    1    1    2    0    0 -0.30849007046E+02  0.18653539469E+02  0.27009216621E+02  0.45045682955E+02  0.00000000000E+00 0.  1.
         11    1    3    3    0    0  0.10785988864E+02 -0.11129351421E+02 -0.82347869688E+01  0.17550263118E+02  0.51100000000E-03 0. -1.
        -11    1    3    3    0    0  0.16781078796E+02 -0.59863555620E+01 -0.14381040242E+02  0.22896623707E+02  0.51100000000E-03 0.  1.
         12    1    3    3    0    0  0.32819393859E+01 -0.15378324862E+01 -0.43933894096E+01  0.56954302202E+01  0.00000000000E+00 0. -1.
</event>
<event>
 7    1  0.1538805E-008  0.4614232E+02  0.7816164E-02  0.1320468E+00
        -11   -1    0    0    0    0  0.00000000000E+00  0.00000000000E+00  0.45593999997E+02  0.45594000000E+02  0.51100000000E-03 0.  1.
         11   -1    0    0    0    0 -0.00000000000E+00 -0.00000000000E+00 -0.45593999997E+02  0.45594000000E+02  0.51100000000E-03 0. -1.
    9900012    2    1    2    0    0  0.25913756576E+02  0.13839054039E+02 -0.34147786097E+02  0.46142317722E+02  0.99999996451E+01 0.  0.
        -12    1    1    2    0    0 -0.25913756576E+02 -0.13839054039E+02  0.34147786097E+02  0.45045682278E+02  0.00000000000E+00 0.  1.
         11    1    3    3    0    0  0.35133686888E+01  0.49334230897E+01 -0.43028331262E+01  0.74294546299E+01  0.51100000000E-03 0.  1.
        -11    1    3    3    0    0  0.11333147820E+02  0.17948961138E+01 -0.14823912977E+02  0.18745940568E+02  0.51100000000E-03 0. -1.
        -12    1    3    3    0    0  0.11067240067E+02  0.71107348350E+01 -0.15021039993E+02  0.19966922524E+02  0.00000000000E+00 0.  1.
</event>
<event>
 7    1  0.1538805E-008  0.4614232E+02  0.7816164E-02  0.1320468E+00
        -11   -1    0    0    0    0  0.00000000000E+00  0.00000000000E+00  0.45593999997E+02  0.45594000000E+02  0.51100000000E-03 0.  1.
         11   -1    0    0    0    0 -0.00000000000E+00 -0.00000000000E+00 -0.45593999997E+02  0.45594000000E+02  0.51100000000E-03 0. -1.
    9900012    2    1    2    0    0 -0.31680758346E+01 -0.94706056933E+01 -0.43924757657E+02  0.46142318609E+02  0.10000007734E+02 0.  0.
        -12    1    1    2    0    0  0.31680758346E+01  0.94706056933E+01  0.43924757657E+02  0.45045681391E+02  0.00000000000E+00 0.  1.
         11    1    3    3    0    0 -0.10389792744E+01 -0.50836975679E+01 -0.13326309020E+02  0.14300838131E+02  0.51100000000E-03 0. -1.
        -11    1    3    3    0    0  0.27379437123E+01 -0.13586230219E+01 -0.96124064715E+01  0.10086652107E+02  0.51100000000E-03 0.  1.
         12    1    3    3    0    0 -0.48670402725E+01 -0.30282851035E+01 -0.20986042166E+02  0.21754828372E+02  0.00000000000E+00 0. -1.
</event>
<event>
 7    1  0.1538805E-008  0.4614232E+02  0.7816164E-02  0.1320468E+00
        -11   -1    0    0    0    0  0.00000000000E+00  0.00000000000E+00  0.45593999997E+02  0.45594000000E+02  0.51100000000E-03 0.  1.
         11   -1    0    0    0    0 -0.00000000000E+00 -0.00000000000E+00 -0.45593999997E+02  0.45594000000E+02  0.51100000000E-03 0. -1.
    9900012    2    1    2    0    0  0.36044097228E+02 -0.26353300326E+02 -0.59531452099E+01  0.46142319620E+02  0.10000016948E+02 0.  0.
        -12    1    1    2    0    0 -0.36044097228E+02  0.26353300326E+02  0.59531452099E+01  0.45045680380E+02  0.00000000000E+00 0.  1.
         11    1    3    3    0    0  0.30756779658E+02 -0.22751250276E+02 -0.38108777131E+01  0.38446347983E+02  0.51100000000E-03 0. -1.
        -11    1    3    3    0    0  0.48656455952E+01 -0.29135206582E+01 -0.29378988412E+00  0.56788574943E+01  0.51100000000E-03 0.  1.
         12    1    3    3    0    0  0.42167197508E+00 -0.68852939102E+00 -0.18484776127E+01  0.20171141419E+01  0.00000000000E+00 0. -1.
</event>
<event>
 7    1  0.1538805E-008  0.4614232E+02  0.7816164E-02  0.1320468E+00
        -11   -1    0    0    0    0  0.00000000000E+00  0.00000000000E+00  0.45593999997E+02  0.45594000000E+02  0.51100000000E-03 0.  1.
         11   -1    0    0    0    0 -0.00000000000E+00 -0.00000000000E+00 -0.45593999997E+02  0.45594000000E+02  0.51100000000E-03 0. -1.
    9900012    2    1    2    0    0 -0.71508001900E+01  0.21029960605E+02 -0.39188269368E+02  0.46142316051E+02  0.99999844017E+01 0.  0.
        -12    1    1    2    0    0  0.71508001900E+01 -0.21029960605E+02  0.39188269368E+02  0.45045683949E+02  0.00000000000E+00 0.  1.
         11    1    3    3    0    0 -0.15399728974E+01  0.14109706776E+02 -0.19574474089E+02  0.24178820855E+02  0.51100000000E-03 0. -1.
        -11    1    3    3    0    0 -0.30942237542E+01  0.23518019896E+01 -0.12833946906E+02  0.13409525968E+02  0.51100000000E-03 0.  1.
        -12    1    3    3    0    0 -0.25166035384E+01  0.45684518398E+01 -0.67798483734E+01  0.85539692277E+01  0.00000000000E+00 0.  1.
</event>
<event>
 7    1  0.1538805E-008  0.4614232E+02  0.7816164E-02  0.1320468E+00
        -11   -1    0    0    0    0  0.00000000000E+00  0.00000000000E+00  0.45593999997E+02  0.45594000000E+02  0.51100000000E-03 0. -1.
         11   -1    0    0    0    0 -0.00000000000E+00 -0.00000000000E+00 -0.45593999997E+02  0.45594000000E+02  0.51100000000E-03 0.  1.
    9900012    2    1    2    0    0  0.21606836075E+02 -0.26981078050E+02 -0.28883896444E+02  0.46142318612E+02  0.10000007762E+02 0.  0.
        -12    1    1    2    0    0 -0.21606836075E+02  0.26981078050E+02  0.28883896444E+02  0.45045681388E+02  0.00000000000E+00 0.  1.
         11    1    3    3    0    0 -0.33288616368E+00 -0.61849632595E-01 -0.24149623826E+01  0.24385819948E+01  0.51100000000E-03 0.  1.
        -11    1    3    3    0    0  0.51875356313E+01 -0.73011699269E+01 -0.75221007536E+01  0.11696136466E+02  0.51100000000E-03 0. -1.
         12    1    3    3    0    0  0.16752186607E+02 -0.19618058490E+02 -0.18946833308E+02  0.32007600151E+02  0.00000000000E+00 0. -1.
</event>
<event>
 7    1  0.1538805E-008  0.4614232E+02  0.7816164E-02  0.1320468E+00
        -11   -1    0    0    0    0  0.00000000000E+00  0.00000000000E+00  0.45593999997E+02  0.45594000000E+02  0.51100000000E-03 0.  1.
         11   -1    0    0    0    0 -0.00000000000E+00 -0.00000000000E+00 -0.45593999997E+02  0.45594000000E+02  0.51100000000E-03 0. -1.
    9900012    2    1    2    0    0  0.25731922270E+02  0.99919061616E+01 -0.35596958679E+02  0.46142317858E+02  0.10000000884E+02 0.  0.
        -12    1    1    2    0    0 -0.25731922270E+02 -0.99919061616E+01  0.35596958679E+02  0.45045682142E+02  0.00000000000E+00 0.  1.
         11    1    3    3    0    0  0.14145540603E+02  0.42660368096E+01 -0.22714533140E+02  0.27096963022E+02  0.51100000000E-03 0. -1.
        -11    1    3    3    0    0  0.76694200017E+01  0.76870602658E+00 -0.69335117830E+01  0.10367473078E+02  0.51100000000E-03 0.  1.
         12    1    3    3    0    0  0.39169616649E+01  0.49571633254E+01 -0.59489137560E+01  0.86778817575E+01  0.00000000000E+00 0. -1.
</event>
<event>
 7    1  0.1538805E-008  0.4614232E+02  0.7816164E-02  0.1320468E+00
        -11   -1    0    0    0    0  0.00000000000E+00  0.00000000000E+00  0.45593999997E+02  0.45594000000E+02  0.51100000000E-03 0. -1.
         11   -1    0    0    0    0 -0.00000000000E+00 -0.00000000000E+00 -0.45593999997E+02  0.45594000000E+02  0.51100000000E-03 0.  1.
    9900012    2    1    2    0    0  0.81626110166E+01 -0.41390044859E+02  0.15790806460E+02  0.46142316515E+02  0.99999886333E+01 0.  0.
        -12    1    1    2    0    0 -0.81626110166E+01  0.41390044859E+02 -0.15790806460E+02  0.45045683485E+02  0.00000000000E+00 0.  1.
         11    1    3    3    0    0  0.76365259057E+01 -0.37465470071E+02  0.15205328342E+02  0.41148268321E+02  0.51100000000E-03 0. -1.
        -11    1    3    3    0    0  0.11444662229E+01 -0.18593148524E+01 -0.91514115956E+00  0.23673483602E+01  0.51100000000E-03 0.  1.
        -12    1    3    3    0    0 -0.61838111193E+00 -0.20652599349E+01  0.15006192773E+01  0.26266998332E+01  0.00000000000E+00 0.  1.
</event>
<event>
 7    1  0.1538805E-008  0.4614232E+02  0.7816164E-02  0.1320468E+00
        -11   -1    0    0    0    0  0.00000000000E+00  0.00000000000E+00  0.45593999997E+02  0.45594000000E+02  0.51100000000E-03 0.  1.
         11   -1    0    0    0    0 -0.00000000000E+00 -0.00000000000E+00 -0.45593999997E+02  0.45594000000E+02  0.51100000000E-03 0. -1.
    9900012    2    1    2    0    0  0.31779104366E+02 -0.64234016843E+01 -0.31272063041E+02  0.46142317739E+02  0.99999998023E+01 0.  0.
        -12    1    1    2    0    0 -0.31779104366E+02  0.64234016843E+01  0.31272063041E+02  0.45045682261E+02  0.00000000000E+00 0.  1.
         11    1    3    3    0    0  0.12863751509E+02  0.14215593383E+01 -0.13316547490E+02  0.18569528027E+02  0.51100000000E-03 0. -1.
        -11    1    3    3    0    0  0.63528365941E+01 -0.22353716853E+01 -0.34003772733E+01  0.75444009189E+01  0.51100000000E-03 0.  1.
         12    1    3    3    0    0  0.12562516263E+02 -0.56095893372E+01 -0.14555138277E+02  0.20028388793E+02  0.00000000000E+00 0. -1.
</event>
<event>
 7    1  0.1538805E-008  0.4614232E+02  0.7816164E-02  0.1320468E+00
        -11   -1    0    0    0    0  0.00000000000E+00  0.00000000000E+00  0.45593999997E+02  0.45594000000E+02  0.51100000000E-03 0. -1.
         11   -1    0    0    0    0 -0.00000000000E+00 -0.00000000000E+00 -0.45593999997E+02  0.45594000000E+02  0.51100000000E-03 0.  1.
    9900012    2    1    2    0    0  0.38215880475E+01 -0.43744786228E+02 -0.10045024525E+02  0.46142319019E+02  0.10000011469E+02 0.  0.
        -12    1    1    2    0    0 -0.38215880475E+01  0.43744786228E+02  0.10045024525E+02  0.45045680981E+02  0.00000000000E+00 0.  1.
         11    1    3    3    0    0  0.32147357567E+01 -0.68508132368E+01 -0.51916672506E+00  0.75853610553E+01  0.51100000000E-03 0. -1.
        -11    1    3    3    0    0 -0.19960678669E+00 -0.31349414362E+02 -0.10070098024E+02  0.32927685892E+02  0.51100000000E-03 0.  1.
        -12    1    3    3    0    0  0.80645907752E+00 -0.55445586290E+01  0.54424022365E+00  0.56292720715E+01  0.00000000000E+00 0.  1.
</event>
<event>
 7    1  0.1538805E-008  0.4614232E+02  0.7816164E-02  0.1320468E+00
        -11   -1    0    0    0    0  0.00000000000E+00  0.00000000000E+00  0.45593999997E+02  0.45594000000E+02  0.51100000000E-03 0.  1.
         11   -1    0    0    0    0 -0.00000000000E+00 -0.00000000000E+00 -0.45593999997E+02  0.45594000000E+02  0.51100000000E-03 0. -1.
    9900012    2    1    2    0    0  0.25768350956E+02  0.29205312709E+01 -0.36831728159E+02  0.46142316377E+02  0.99999873747E+01 0.  0.
        -12    1    1    2    0    0 -0.25768350956E+02 -0.29205312709E+01  0.36831728159E+02  0.45045683623E+02  0.00000000000E+00 0.  1.
         11    1    3    3    0    0  0.24602590906E+02  0.17119441266E+01 -0.29135194698E+02  0.38171688492E+02  0.51100000000E-03 0. -1.
        -11    1    3    3    0    0  0.67582613798E+00  0.73475971942E+00 -0.66311757465E+01  0.67059007490E+01  0.51100000000E-03 0.  1.
         12    1    3    3    0    0  0.48993391216E+00  0.47382742486E+00 -0.10653577148E+01  0.12647271355E+01  0.00000000000E+00 0. -1.
</event>
<event>
 7    1  0.1538805E-008  0.4614232E+02  0.7816164E-02  0.1320468E+00
        -11   -1    0    0    0    0  0.00000000000E+00  0.00000000000E+00  0.45593999997E+02  0.45594000000E+02  0.51100000000E-03 0. -1.
         11   -1    0    0    0    0 -0.00000000000E+00 -0.00000000000E+00 -0.45593999997E+02  0.45594000000E+02  0.51100000000E-03 0.  1.
    9900012    2    1    2    0    0 -0.75699820362E+01  0.40159172453E+02  0.18948607137E+02  0.46142317936E+02  0.10000001595E+02 0.  0.
        -12    1    1    2    0    0  0.75699820362E+01 -0.40159172453E+02 -0.18948607137E+02  0.45045682064E+02  0.00000000000E+00 0.  1.
         11    1    3    3    0    0 -0.17723019389E+01  0.28083845468E+02  0.12261448033E+02  0.30695057234E+02  0.51100000000E-03 0. -1.
        -11    1    3    3    0    0 -0.61550510011E+01  0.11343435186E+02  0.55500094253E+01  0.14048515207E+02  0.51100000000E-03 0.  1.
        -12    1    3    3    0    0  0.35737090376E+00  0.73189179957E+00  0.11371496788E+01  0.13987454955E+01  0.00000000000E+00 0.  1.
</event>
<event>
 7    1  0.1538805E-008  0.4614232E+02  0.7816164E-02  0.1320468E+00
        -11   -1    0    0    0    0  0.00000000000E+00  0.00000000000E+00  0.45593999997E+02  0.45594000000E+02  0.51100000000E-03 0.  1.
         11   -1    0    0    0    0 -0.00000000000E+00 -0.00000000000E+00 -0.45593999997E+02  0.45594000000E+02  0.51100000000E-03 0. -1.
    9900012    2    1    2    0    0  0.46175970800E+01 -0.27604512257E+02 -0.35295642924E+02  0.46142315310E+02  0.99999776532E+01 0.  0.
        -12    1    1    2    0    0 -0.46175970800E+01  0.27604512257E+02  0.35295642924E+02  0.45045684690E+02  0.00000000000E+00 0.  1.
         11    1    3    3    0    0  0.13802201458E+01 -0.53502486511E+01 -0.10658184779E+02  0.12005293471E+02  0.51100000000E-03 0. -1.
        -11    1    3    3    0    0 -0.17849014311E+01 -0.23053036244E+01 -0.44114427696E+01  0.52878280503E+01  0.51100000000E-03 0.  1.
         12    1    3    3    0    0  0.50222783653E+01 -0.19948959982E+02 -0.20226015375E+02  0.28849193789E+02  0.00000000000E+00 0. -1.
</event>
<event>
 7    1  0.1538805E-008  0.4614232E+02  0.7816164E-02  0.1320468E+00
        -11   -1    0    0    0    0  0.00000000000E+00  0.00000000000E+00  0.45593999997E+02  0.45594000000E+02  0.51100000000E-03 0.  1.
         11   -1    0    0    0    0 -0.00000000000E+00 -0.00000000000E+00 -0.45593999997E+02  0.45594000000E+02  0.51100000000E-03 0. -1.
    9900012    2    1    2    0    0 -0.58022132099E+01  0.55207157236E+01 -0.44327976594E+02  0.46142317753E+02  0.99999999236E+01 0.  0.
        -12    1    1    2    0    0  0.58022132099E+01 -0.55207157236E+01  0.44327976594E+02  0.45045682247E+02  0.00000000000E+00 0.  1.
         11    1    3    3    0    0 -0.93798082873E+00  0.23724148250E+01 -0.66995736053E+01  0.71688525505E+01  0.51100000000E-03 0.  1.
        -11    1    3    3    0    0 -0.19727116988E+01  0.49803741910E+01 -0.31514412807E+02  0.31966450122E+02  0.51100000000E-03 0. -1.
        -12    1    3    3    0    0 -0.28915206823E+01 -0.18320732924E+01 -0.61139901810E+01  0.70070150805E+01  0.00000000000E+00 0.  1.
</event>
<event>
 7    1  0.1538805E-008  0.4614232E+02  0.7816164E-02  0.1320468E+00
        -11   -1    0    0    0    0  0.00000000000E+00  0.00000000000E+00  0.45593999997E+02  0.45594000000E+02  0.51100000000E-03 0. -1.
         11   -1    0    0    0    0 -0.00000000000E+00 -0.00000000000E+00 -0.45593999997E+02  0.45594000000E+02  0.51100000000E-03 0.  1.
    9900012    2    1    2    0    0  0.68165024003E+01 -0.44199669844E+02  0.53886910239E+01  0.46142317519E+02  0.99999977899E+01 0.  0.
        -12    1    1    2    0    0 -0.68165024003E+01  0.44199669844E+02 -0.53886910239E+01  0.45045682481E+02  0.00000000000E+00 0.  1.
         11    1    3    3    0    0  0.37368362440E+01 -0.18950541728E+02  0.59251004691E+01  0.20203806392E+02  0.51100000000E-03 0. -1.
        -11    1    3    3    0    0  0.13066789377E+01 -0.23141391985E+02 -0.43315232026E+00  0.23182300448E+02  0.51100000000E-03 0.  1.
        -12    1    3    3    0    0  0.17729872186E+01 -0.21077361306E+01 -0.10325712494E+00  0.27562106791E+01  0.00000000000E+00 0.  1.
</event>
<event>
 7    1  0.1538805E-008  0.4614232E+02  0.7816164E-02  0.1320468E+00
        -11   -1    0    0    0    0  0.00000000000E+00  0.00000000000E+00  0.45593999997E+02  0.45594000000E+02  0.51100000000E-03 0. -1.
         11   -1    0    0    0    0 -0.00000000000E+00 -0.00000000000E+00 -0.45593999997E+02  0.45594000000E+02  0.51100000000E-03 0.  1.
    9900012    2    1    2    0    0  0.37408092474E+02  0.17122763361E+01  0.25036300457E+02  0.46142316374E+02  0.99999873515E+01 0.  0.
        -12    1    1    2    0    0 -0.37408092474E+02 -0.17122763361E+01 -0.25036300457E+02  0.45045683626E+02  0.00000000000E+00 0.  1.
         11    1    3    3    0    0  0.17022633514E+02  0.26714552703E+01  0.96160183163E+01  0.19732575441E+02  0.51100000000E-03 0. -1.
        -11    1    3    3    0    0  0.87592921324E+01 -0.29566491464E+01  0.93273117694E+01  0.13132620376E+02  0.51100000000E-03 0.  1.
        -12    1    3    3    0    0  0.11626166828E+02  0.19974702122E+01  0.60929703712E+01  0.13277120557E+02  0.00000000000E+00 0.  1.
</event>
<event>
 7    1  0.1538805E-008  0.4614232E+02  0.7816164E-02  0.1320468E+00
        -11   -1    0    0    0    0  0.00000000000E+00  0.00000000000E+00  0.45593999997E+02  0.45594000000E+02  0.51100000000E-03 0.  1.
         11   -1    0    0    0    0 -0.00000000000E+00 -0.00000000000E+00 -0.45593999997E+02  0.45594000000E+02  0.51100000000E-03 0. -1.
    9900012    2    1    2    0    0 -0.58335825165E+01 -0.18669910552E+02 -0.40577300154E+02  0.46142317268E+02  0.99999955076E+01 0.  0.
        -12    1    1    2    0    0  0.58335825165E+01  0.18669910552E+02  0.40577300154E+02  0.45045682732E+02  0.00000000000E+00 0.  1.
         11    1    3    3    0    0 -0.32555120202E+00 -0.26411913952E+01 -0.89634973065E+01  0.93501957090E+01  0.51100000000E-03 0. -1.
        -11    1    3    3    0    0 -0.28803872023E+01 -0.39172792734E+00 -0.60102027528E+01  0.66762728071E+01  0.51100000000E-03 0.  1.
        -12    1    3    3    0    0 -0.26276441121E+01 -0.15636991229E+02 -0.25603600094E+02  0.30115848752E+02  0.00000000000E+00 0.  1.
</event>
<event>
 7    1  0.1538805E-008  0.4614232E+02  0.7816164E-02  0.1320468E+00
        -11   -1    0    0    0    0  0.00000000000E+00  0.00000000000E+00  0.45593999997E+02  0.45594000000E+02  0.51100000000E-03 0.  1.
         11   -1    0    0    0    0 -0.00000000000E+00 -0.00000000000E+00 -0.45593999997E+02  0.45594000000E+02  0.51100000000E-03 0. -1.
    9900012    2    1    2    0    0 -0.25585937426E+02 -0.91794193243E+00 -0.37062522945E+02  0.46142318537E+02  0.10000007078E+02 0.  0.
        -12    1    1    2    0    0  0.25585937426E+02  0.91794193243E+00  0.37062522945E+02  0.45045681463E+02  0.00000000000E+00 0.  1.
         11    1    3    3    0    0 -0.44583425666E+01 -0.24334476655E+01 -0.31792577237E+01  0.59921753910E+01  0.51100000000E-03 0. -1.
        -11    1    3    3    0    0 -0.20977276946E+02  0.14666213449E+01 -0.32192292554E+02  0.38451798740E+02  0.51100000000E-03 0.  1.
        -12    1    3    3    0    0 -0.15031791397E+00  0.48884388141E-01 -0.16909726679E+01  0.16983444062E+01  0.00000000000E+00 0.  1.
</event>
<event>
 7    1  0.1538805E-008  0.4614231E+02  0.7816164E-02  0.1320468E+00
        -11   -1    0    0    0    0  0.00000000000E+00  0.00000000000E+00  0.45593999997E+02  0.45594000000E+02  0.51100000000E-03 0. -1.
         11   -1    0    0    0    0 -0.00000000000E+00 -0.00000000000E+00 -0.45593999997E+02  0.45594000000E+02  0.51100000000E-03 0.  1.
    9900012    2    1    2    0    0  0.41533475818E+02  0.16497340407E+02  0.56500149956E+01  0.46142306271E+02  0.99998952257E+01 0.  0.
        -12    1    1    2    0    0 -0.41533475818E+02 -0.16497340407E+02 -0.56500149956E+01  0.45045693729E+02  0.00000000000E+00 0.  1.
         11    1    3    3    0    0  0.20419327168E+02  0.11753038187E+02  0.60765319340E+01  0.24331195393E+02  0.51100000000E-03 0. -1.
        -11    1    3    3    0    0  0.21684028176E+01 -0.26700951684E+00  0.27017183939E+00  0.22014218009E+01  0.51100000000E-03 0.  1.
         12    1    3    3    0    0  0.18945745833E+02  0.50113117365E+01 -0.69668877778E+00  0.19609689078E+02  0.00000000000E+00 0. -1.
</event>
<event>
 7    1  0.1538805E-008  0.4614232E+02  0.7816164E-02  0.1320468E+00
        -11   -1    0    0    0    0  0.00000000000E+00  0.00000000000E+00  0.45593999997E+02  0.45594000000E+02  0.51100000000E-03 0.  1.
         11   -1    0    0    0    0 -0.00000000000E+00 -0.00000000000E+00 -0.45593999997E+02  0.45594000000E+02  0.51100000000E-03 0. -1.
    9900012    2    1    2    0    0  0.32445349941E+02 -0.26320202898E+02 -0.16842199014E+02  0.46142317843E+02  0.10000000745E+02 0.  0.
        -12    1    1    2    0    0 -0.32445349941E+02  0.26320202898E+02  0.16842199014E+02  0.45045682157E+02  0.00000000000E+00 0.  1.
         11    1    3    3    0    0  0.99439085126E+01 -0.83021162448E+01 -0.57379087548E+01  0.14167923200E+02  0.51100000000E-03 0. -1.
        -11    1    3    3    0    0  0.11655975878E+02 -0.91816083145E+01 -0.13070710450E+01  0.14895373104E+02  0.51100000000E-03 0.  1.
        -12    1    3    3    0    0  0.10845465550E+02 -0.88364783387E+01 -0.97972192140E+01  0.17079021540E+02  0.00000000000E+00 0.  1.
</event>
<event>
 7    1  0.1538805E-008  0.4614232E+02  0.7816164E-02  0.1320468E+00
        -11   -1    0    0    0    0  0.00000000000E+00  0.00000000000E+00  0.45593999997E+02  0.45594000000E+02  0.51100000000E-03 0.  1.
         11   -1    0    0    0    0 -0.00000000000E+00 -0.00000000000E+00 -0.45593999997E+02  0.45594000000E+02  0.51100000000E-03 0. -1.
    9900012    2    1    2    0    0 -0.23078645970E+02 -0.70926628263E+01 -0.38028722822E+02  0.46142317352E+02  0.99999962671E+01 0.  0.
        -12    1    1    2    0    0  0.23078645970E+02  0.70926628263E+01  0.38028722822E+02  0.45045682648E+02  0.00000000000E+00 0.  1.
         11    1    3    3    0    0  0.37192929258E-01  0.12860222161E-01  0.34957957028E+00  0.35178805605E+00  0.51100000000E-03 0. -1.
        -11    1    3    3    0    0 -0.40814459054E+01  0.27972152849E+00 -0.10226850580E+02  0.11014759092E+02  0.51100000000E-03 0.  1.
         12    1    3    3    0    0 -0.19034392994E+02 -0.73852445769E+01 -0.28151451812E+02  0.34775770203E+02  0.00000000000E+00 0. -1.
</event>
<event>
 7    1  0.1538805E-008  0.4614232E+02  0.7816164E-02  0.1320468E+00
        -11   -1    0    0    0    0  0.00000000000E+00  0.00000000000E+00  0.45593999997E+02  0.45594000000E+02  0.51100000000E-03 0.  1.
         11   -1    0    0    0    0 -0.00000000000E+00 -0.00000000000E+00 -0.45593999997E+02  0.45594000000E+02  0.51100000000E-03 0. -1.
    9900012    2    1    2    0    0  0.12782583176E+02 -0.29403536089E+02 -0.31640973374E+02  0.46142316930E+02  0.99999924186E+01 0.  0.
        -12    1    1    2    0    0 -0.12782583176E+02  0.29403536089E+02  0.31640973374E+02  0.45045683070E+02  0.00000000000E+00 0.  1.
         11    1    3    3    0    0  0.90922017200E+00 -0.43628825852E+00 -0.84781601379E+00  0.13175056053E+01  0.51100000000E-03 0.  1.
        -11    1    3    3    0    0  0.11928348034E+02 -0.19681663015E+02 -0.19201637869E+02  0.29972591529E+02  0.51100000000E-03 0. -1.
        -12    1    3    3    0    0 -0.54985030328E-01 -0.92855848153E+01 -0.11591519492E+02  0.14852219795E+02  0.00000000000E+00 0.  1.
</event>
<event>
 7    1  0.1538805E-008  0.4614232E+02  0.7816164E-02  0.1320468E+00
        -11   -1    0    0    0    0  0.00000000000E+00  0.00000000000E+00  0.45593999997E+02  0.45594000000E+02  0.51100000000E-03 0.  1.
         11   -1    0    0    0    0 -0.00000000000E+00 -0.00000000000E+00 -0.45593999997E+02  0.45594000000E+02  0.51100000000E-03 0. -1.
    9900012    2    1    2    0    0  0.25488575414E+02  0.22350745490E+02 -0.29662944612E+02  0.46142316704E+02  0.99999903590E+01 0.  0.
        -12    1    1    2    0    0 -0.25488575414E+02 -0.22350745490E+02  0.29662944612E+02  0.45045683296E+02  0.00000000000E+00 0.  1.
         11    1    3    3    0    0  0.14577586999E+02  0.15520623506E+02 -0.19518357018E+02  0.28885325992E+02  0.51100000000E-03 0. -1.
        -11    1    3    3    0    0  0.97628617623E+01  0.60554651303E+01 -0.61538196194E+01  0.13032713605E+02  0.51100000000E-03 0.  1.
         12    1    3    3    0    0  0.11481266524E+01  0.77465685380E+00 -0.39907679746E+01  0.42242771072E+01  0.00000000000E+00 0. -1.
</event>
<event>
 7    1  0.1538805E-008  0.4614232E+02  0.7816164E-02  0.1320468E+00
        -11   -1    0    0    0    0  0.00000000000E+00  0.00000000000E+00  0.45593999997E+02  0.45594000000E+02  0.51100000000E-03 0.  1.
         11   -1    0    0    0    0 -0.00000000000E+00 -0.00000000000E+00 -0.45593999997E+02  0.45594000000E+02  0.51100000000E-03 0. -1.
    9900012    2    1    2    0    0  0.15079047534E+02 -0.15597641758E+01 -0.42418192679E+02  0.46142316422E+02  0.99999877933E+01 0.  0.
        -12    1    1    2    0    0 -0.15079047534E+02  0.15597641758E+01  0.42418192679E+02  0.45045683578E+02  0.00000000000E+00 0.  1.
         11    1    3    3    0    0  0.10931121588E+02  0.17752179992E+01 -0.29747791334E+02  0.31742273196E+02  0.51100000000E-03 0. -1.
        -11    1    3    3    0    0  0.39011691864E+01 -0.36951087141E+01 -0.75822286330E+01  0.92931771066E+01  0.51100000000E-03 0.  1.
        -12    1    3    3    0    0  0.24675675952E+00  0.36012653917E+00 -0.50881727120E+01  0.51068661203E+01  0.00000000000E+00 0.  1.
</event>
<event>
 7    1  0.1538805E-008  0.4614231E+02  0.7816164E-02  0.1320468E+00
        -11   -1    0    0    0    0  0.00000000000E+00  0.00000000000E+00  0.45593999997E+02  0.45594000000E+02  0.51100000000E-03 0.  1.
         11   -1    0    0    0    0 -0.00000000000E+00 -0.00000000000E+00 -0.45593999997E+02  0.45594000000E+02  0.51100000000E-03 0. -1.
    9900012    2    1    2    0    0 -0.26879062457E+02  0.28227912634E+02 -0.22579077064E+02  0.46142314621E+02  0.99999713639E+01 0.  0.
        -12    1    1    2    0    0  0.26879062457E+02 -0.28227912634E+02  0.22579077064E+02  0.45045685379E+02  0.00000000000E+00 0.  1.
         11    1    3    3    0    0 -0.10152542341E+02  0.68355804160E+01 -0.74515280903E+01  0.14329150245E+02  0.51100000000E-03 0. -1.
        -11    1    3    3    0    0 -0.10217704297E+02  0.10335091750E+02 -0.46839796706E+01  0.15269422661E+02  0.51100000000E-03 0.  1.
         12    1    3    3    0    0 -0.65088158184E+01  0.11057240468E+02 -0.10443569303E+02  0.16543741714E+02  0.00000000000E+00 0. -1.
</event>
<event>
 7    1  0.1538805E-008  0.4614232E+02  0.7816164E-02  0.1320468E+00
        -11   -1    0    0    0    0  0.00000000000E+00  0.00000000000E+00  0.45593999997E+02  0.45594000000E+02  0.51100000000E-03 0.  1.
         11   -1    0    0    0    0 -0.00000000000E+00 -0.00000000000E+00 -0.45593999997E+02  0.45594000000E+02  0.51100000000E-03 0. -1.
    9900012    2    1    2    0    0  0.21467921990E+00  0.28580512280E+02 -0.34816974188E+02  0.46142318066E+02  0.10000002777E+02 0.  0.
        -12    1    1    2    0    0 -0.21467921990E+00 -0.28580512280E+02  0.34816974188E+02  0.45045681934E+02  0.00000000000E+00 0.  1.
         11    1    3    3    0    0  0.12424565633E+01  0.17799704534E+02 -0.16913790127E+02  0.24585554224E+02  0.51100000000E-03 0. -1.
        -11    1    3    3    0    0  0.32031596660E+00  0.37898582967E+01 -0.11003632835E+02  0.11642403706E+02  0.51100000000E-03 0.  1.
        -12    1    3    3    0    0 -0.13480933100E+01  0.69909494493E+01 -0.68995512263E+01  0.99143601356E+01  0.00000000000E+00 0.  1.
</event>
<event>
 7    1  0.1538805E-008  0.4614232E+02  0.7816164E-02  0.1320468E+00
        -11   -1    0    0    0    0  0.00000000000E+00  0.00000000000E+00  0.45593999997E+02  0.45594000000E+02  0.51100000000E-03 0.  1.
         11   -1    0    0    0    0 -0.00000000000E+00 -0.00000000000E+00 -0.45593999997E+02  0.45594000000E+02  0.51100000000E-03 0. -1.
    9900012    2    1    2    0    0  0.27943945751E+02 -0.33489103422E+02 -0.11257412184E+02  0.46142317840E+02  0.10000000720E+02 0.  0.
        -12    1    1    2    0    0 -0.27943945751E+02  0.33489103422E+02  0.11257412184E+02  0.45045682160E+02  0.00000000000E+00 0.  1.
         11    1    3    3    0    0  0.61983468266E+01 -0.10146915128E+02 -0.13155231306E+01  0.11962858829E+02  0.51100000000E-03 0. -1.
        -11    1    3    3    0    0  0.43000980379E+01 -0.56228009327E+01  0.73783877403E+00  0.71169614149E+01  0.51100000000E-03 0.  1.
        -12    1    3    3    0    0  0.17445500887E+02 -0.17719387361E+02 -0.10679727828E+02  0.27062497596E+02  0.00000000000E+00 0.  1.
</event>
<event>
 7    1  0.1538805E-008  0.4614232E+02  0.7816164E-02  0.1320468E+00
        -11   -1    0    0    0    0  0.00000000000E+00  0.00000000000E+00  0.45593999997E+02  0.45594000000E+02  0.51100000000E-03 0.  1.
         11   -1    0    0    0    0 -0.00000000000E+00 -0.00000000000E+00 -0.45593999997E+02  0.45594000000E+02  0.51100000000E-03 0. -1.
    9900012    2    1    2    0    0  0.18784782776E+02  0.10492097337E+01 -0.40928531268E+02  0.46142316780E+02  0.99999910527E+01 0.  0.
        -12    1    1    2    0    0 -0.18784782776E+02 -0.10492097337E+01  0.40928531268E+02  0.45045683220E+02  0.00000000000E+00 0.  1.
         11    1    3    3    0    0  0.13967066087E+02 -0.23860498535E+01 -0.29172378804E+02  0.32431463956E+02  0.51100000000E-03 0. -1.
        -11    1    3    3    0    0  0.28269203025E+01  0.82111130234E+00 -0.24117422004E+01  0.38055489578E+01  0.51100000000E-03 0.  1.
        -12    1    3    3    0    0  0.19907963866E+01  0.26141482848E+01 -0.93444102640E+01  0.99053038666E+01  0.00000000000E+00 0.  1.
</event>
<event>
 7    1  0.1538805E-008  0.4614232E+02  0.7816164E-02  0.1320468E+00
        -11   -1    0    0    0    0  0.00000000000E+00  0.00000000000E+00  0.45593999997E+02  0.45594000000E+02  0.51100000000E-03 0.  1.
         11   -1    0    0    0    0 -0.00000000000E+00 -0.00000000000E+00 -0.45593999997E+02  0.45594000000E+02  0.51100000000E-03 0. -1.
    9900012    2    1    2    0    0  0.26710889726E+02 -0.21845049040E+01 -0.36205935963E+02  0.46142317737E+02  0.99999997768E+01 0.  0.
        -12    1    1    2    0    0 -0.26710889726E+02  0.21845049040E+01  0.36205935963E+02  0.45045682263E+02  0.00000000000E+00 0.  1.
         11    1    3    3    0    0  0.93570484397E+01  0.22307622419E+01 -0.14414305544E+02  0.17329248693E+02  0.51100000000E-03 0.  1.
        -11    1    3    3    0    0  0.96953318184E+01 -0.17419355399E+01 -0.75034787668E+01  0.12382891115E+02  0.51100000000E-03 0. -1.
         12    1    3    3    0    0  0.76585094674E+01 -0.26733316061E+01 -0.14288151653E+02  0.16430177929E+02  0.00000000000E+00 0. -1.
</event>
<event>
 7    1  0.1538805E-008  0.4614232E+02  0.7816164E-02  0.1320468E+00
        -11   -1    0    0    0    0  0.00000000000E+00  0.00000000000E+00  0.45593999997E+02  0.45594000000E+02  0.51100000000E-03 0.  1.
         11   -1    0    0    0    0 -0.00000000000E+00 -0.00000000000E+00 -0.45593999997E+02  0.45594000000E+02  0.51100000000E-03 0. -1.
    9900012    2    1    2    0    0 -0.36073052540E+02  0.22764668342E+02 -0.14478186174E+02  0.46142321859E+02  0.10000037369E+02 0.  0.
        -12    1    1    2    0    0  0.36073052540E+02 -0.22764668342E+02  0.14478186174E+02  0.45045678141E+02  0.00000000000E+00 0.  1.
         11    1    3    3    0    0 -0.15762953508E+02  0.47528801435E+01 -0.40159564588E+01  0.16946636230E+02  0.51100000000E-03 0. -1.
        -11    1    3    3    0    0 -0.37741396307E+01  0.46954370939E+01 -0.24325200808E+01  0.64968002632E+01  0.51100000000E-03 0.  1.
         12    1    3    3    0    0 -0.16535959401E+02  0.13316351104E+02 -0.80297096346E+01  0.22698885366E+02  0.00000000000E+00 0. -1.
</event>
<event>
 7    1  0.1538805E-008  0.4614232E+02  0.7816164E-02  0.1320468E+00
        -11   -1    0    0    0    0  0.00000000000E+00  0.00000000000E+00  0.45593999997E+02  0.45594000000E+02  0.51100000000E-03 0.  1.
         11   -1    0    0    0    0 -0.00000000000E+00 -0.00000000000E+00 -0.45593999997E+02  0.45594000000E+02  0.51100000000E-03 0. -1.
    9900012    2    1    2    0    0  0.30759606296E+02 -0.12164719900E+00 -0.32908132371E+02  0.46142319256E+02  0.10000013631E+02 0.  0.
        -12    1    1    2    0    0 -0.30759606296E+02  0.12164719900E+00  0.32908132371E+02  0.45045680744E+02  0.00000000000E+00 0.  1.
         11    1    3    3    0    0  0.40158752907E+01  0.17117117466E+01 -0.72467053372E+01  0.84600206832E+01  0.51100000000E-03 0. -1.
        -11    1    3    3    0    0  0.18577767104E+02 -0.49890697015E+00 -0.13488587644E+02  0.22963543621E+02  0.51100000000E-03 0.  1.
        -12    1    3    3    0    0  0.81659639013E+01 -0.13344519755E+01 -0.12172839390E+02  0.14718754952E+02  0.00000000000E+00 0.  1.
</event>
<event>
 7    1  0.1538805E-008  0.4614232E+02  0.7816164E-02  0.1320468E+00
        -11   -1    0    0    0    0  0.00000000000E+00  0.00000000000E+00  0.45593999997E+02  0.45594000000E+02  0.51100000000E-03 0.  1.
         11   -1    0    0    0    0 -0.00000000000E+00 -0.00000000000E+00 -0.45593999997E+02  0.45594000000E+02  0.51100000000E-03 0. -1.
    9900012    2    1    2    0    0 -0.37903645195E+01 -0.10495629129E+02 -0.43641590447E+02  0.46142317513E+02  0.99999977370E+01 0.  0.
        -12    1    1    2    0    0  0.37903645195E+01  0.10495629129E+02  0.43641590447E+02  0.45045682487E+02  0.00000000000E+00 0.  1.
         11    1    3    3    0    0  0.11336192832E+00 -0.60632719394E+01 -0.12527478191E+02  0.13918111496E+02  0.51100000000E-03 0. -1.
        -11    1    3    3    0    0 -0.27355982642E+01 -0.43802200882E+00 -0.22362861950E+02  0.22533818052E+02  0.51100000000E-03 0.  1.
        -12    1    3    3    0    0 -0.11681281837E+01 -0.39943351812E+01 -0.87512503059E+01  0.96903879649E+01  0.00000000000E+00 0.  1.
</event>
<event>
 7    1  0.1538805E-008  0.4614232E+02  0.7816164E-02  0.1320468E+00
        -11   -1    0    0    0    0  0.00000000000E+00  0.00000000000E+00  0.45593999997E+02  0.45594000000E+02  0.51100000000E-03 0. -1.
         11   -1    0    0    0    0 -0.00000000000E+00 -0.00000000000E+00 -0.45593999997E+02  0.45594000000E+02  0.51100000000E-03 0.  1.
    9900012    2    1    2    0    0 -0.34212893947E+01 -0.42827109092E+02  0.13536870546E+02  0.46142319203E+02  0.10000013145E+02 0.  0.
        -12    1    1    2    0    0  0.34212893947E+01  0.42827109092E+02 -0.13536870546E+02  0.45045680797E+02  0.00000000000E+00 0.  1.
         11    1    3    3    0    0  0.14510276121E+01 -0.18771546875E+01  0.24090580127E+01  0.33812352213E+01  0.51100000000E-03 0. -1.
        -11    1    3    3    0    0 -0.33124894188E+01 -0.22489613405E+02  0.53275267684E+01  0.23348187060E+02  0.51100000000E-03 0.  1.
         12    1    3    3    0    0 -0.15598275880E+01 -0.18460340999E+02  0.58002857654E+01  0.19412896921E+02  0.00000000000E+00 0. -1.
</event>
<event>
 7    1  0.1538805E-008  0.4614232E+02  0.7816164E-02  0.1320468E+00
        -11   -1    0    0    0    0  0.00000000000E+00  0.00000000000E+00  0.45593999997E+02  0.45594000000E+02  0.51100000000E-03 0. -1.
         11   -1    0    0    0    0 -0.00000000000E+00 -0.00000000000E+00 -0.45593999997E+02  0.45594000000E+02  0.51100000000E-03 0.  1.
    9900012    2    1    2    0    0 -0.40632121257E+02  0.18635108507E+02  0.55567036110E+01  0.46142317610E+02  0.99999986249E+01 0.  0.
        -12    1    1    2    0    0  0.40632121257E+02 -0.18635108507E+02 -0.55567036110E+01  0.45045682390E+02  0.00000000000E+00 0.  1.
         11    1    3    3    0    0 -0.89559795698E+01  0.42045991681E+01  0.21129043844E+01  0.10116945657E+02  0.51100000000E-03 0. -1.
        -11    1    3    3    0    0 -0.54929924775E+01  0.14453488124E+01  0.37345494211E+01  0.67977098487E+01  0.51100000000E-03 0.  1.
        -12    1    3    3    0    0 -0.26183149210E+02  0.12985160527E+02 -0.29075019456E+00  0.29227662105E+02  0.00000000000E+00 0.  1.
</event>
<event>
 7    1  0.1538805E-008  0.4614232E+02  0.7816164E-02  0.1320468E+00
        -11   -1    0    0    0    0  0.00000000000E+00  0.00000000000E+00  0.45593999997E+02  0.45594000000E+02  0.51100000000E-03 0.  1.
         11   -1    0    0    0    0 -0.00000000000E+00 -0.00000000000E+00 -0.45593999997E+02  0.45594000000E+02  0.51100000000E-03 0. -1.
    9900012    2    1    2    0    0  0.15980883791E+02  0.27598085555E+02 -0.31813055797E+02  0.46142317719E+02  0.99999996174E+01 0.  0.
        -12    1    1    2    0    0 -0.15980883791E+02 -0.27598085555E+02  0.31813055797E+02  0.45045682281E+02  0.00000000000E+00 0.  1.
         11    1    3    3    0    0  0.96489103234E+01  0.84442334099E+01 -0.11077809055E+02  0.16944745558E+02  0.51100000000E-03 0. -1.
        -11    1    3    3    0    0  0.25100621694E+01  0.96985409950E+01 -0.76364930735E+01  0.12596751020E+02  0.51100000000E-03 0.  1.
         12    1    3    3    0    0  0.38219112982E+01  0.94553111496E+01 -0.13098753668E+02  0.16600821142E+02  0.00000000000E+00 0. -1.
</event>
<event>
 7    1  0.1538805E-008  0.4614232E+02  0.7816164E-02  0.1320468E+00
        -11   -1    0    0    0    0  0.00000000000E+00  0.00000000000E+00  0.45593999997E+02  0.45594000000E+02  0.51100000000E-03 0.  1.
         11   -1    0    0    0    0 -0.00000000000E+00 -0.00000000000E+00 -0.45593999997E+02  0.45594000000E+02  0.51100000000E-03 0. -1.
    9900012    2    1    2    0    0  0.97092467625E+01  0.33827481010E+02 -0.28116638460E+02  0.46142319825E+02  0.10000018819E+02 0.  0.
        -12    1    1    2    0    0 -0.97092467625E+01 -0.33827481010E+02  0.28116638460E+02  0.45045680175E+02  0.00000000000E+00 0.  1.
         11    1    3    3    0    0  0.60757253718E+01  0.15285380129E+02 -0.16687388675E+02  0.23431308660E+02  0.51100000000E-03 0.  1.
        -11    1    3    3    0    0  0.12295313512E+01  0.27939354644E+01 -0.42619995288E+01  0.52423718838E+01  0.51100000000E-03 0. -1.
         12    1    3    3    0    0  0.24039900396E+01  0.15748165417E+02 -0.71672502562E+01  0.17468639281E+02  0.00000000000E+00 0. -1.
</event>
<event>
 7    1  0.1538805E-008  0.4614232E+02  0.7816164E-02  0.1320468E+00
        -11   -1    0    0    0    0  0.00000000000E+00  0.00000000000E+00  0.45593999997E+02  0.45594000000E+02  0.51100000000E-03 0. -1.
         11   -1    0    0    0    0 -0.00000000000E+00 -0.00000000000E+00 -0.45593999997E+02  0.45594000000E+02  0.51100000000E-03 0.  1.
    9900012    2    1    2    0    0  0.21010555490E+02 -0.18153581800E+02  0.35469953701E+02  0.46142316637E+02  0.99999897451E+01 0.  0.
        -12    1    1    2    0    0 -0.21010555490E+02  0.18153581800E+02 -0.35469953701E+02  0.45045683363E+02  0.00000000000E+00 0.  1.
         11    1    3    3    0    0  0.16502251182E+02 -0.12604838650E+02  0.24830401797E+02  0.32369045478E+02  0.51100000000E-03 0. -1.
        -11    1    3    3    0    0 -0.91540525952E+00  0.91257277515E-01  0.10322624342E+01  0.13827005005E+01  0.51100000000E-03 0.  1.
         12    1    3    3    0    0  0.54237095668E+01 -0.56400004277E+01  0.96072894692E+01  0.12390570658E+02  0.00000000000E+00 0. -1.
</event>
<event>
 7    1  0.1538805E-008  0.4614232E+02  0.7816164E-02  0.1320468E+00
        -11   -1    0    0    0    0  0.00000000000E+00  0.00000000000E+00  0.45593999997E+02  0.45594000000E+02  0.51100000000E-03 0.  1.
         11   -1    0    0    0    0 -0.00000000000E+00 -0.00000000000E+00 -0.45593999997E+02  0.45594000000E+02  0.51100000000E-03 0. -1.
    9900012    2    1    2    0    0 -0.36726889066E+02 -0.14491087995E+02 -0.21685419749E+02  0.46142318283E+02  0.10000004755E+02 0.  0.
        -12    1    1    2    0    0  0.36726889066E+02  0.14491087995E+02  0.21685419749E+02  0.45045681717E+02  0.00000000000E+00 0.  1.
         11    1    3    3    0    0 -0.18436358430E+02 -0.95759640837E+01 -0.77194537281E+01  0.22162769827E+02  0.51100000000E-03 0. -1.
        -11    1    3    3    0    0 -0.98471296631E+01 -0.50700069724E+00 -0.83615834613E+01  0.12928228438E+02  0.51100000000E-03 0.  1.
         12    1    3    3    0    0 -0.84434009730E+01 -0.44081232138E+01 -0.56043825593E+01  0.11051320018E+02  0.00000000000E+00 0. -1.
</event>
<event>
 7    1  0.1538805E-008  0.4614232E+02  0.7816164E-02  0.1320468E+00
        -11   -1    0    0    0    0  0.00000000000E+00  0.00000000000E+00  0.45593999997E+02  0.45594000000E+02  0.51100000000E-03 0.  1.
         11   -1    0    0    0    0 -0.00000000000E+00 -0.00000000000E+00 -0.45593999997E+02  0.45594000000E+02  0.51100000000E-03 0. -1.
    9900012    2    1    2    0    0  0.34812812147E+01 -0.18216739399E+02 -0.41050511780E+02  0.46142318402E+02  0.10000005840E+02 0.  0.
        -12    1    1    2    0    0 -0.34812812147E+01  0.18216739399E+02  0.41050511780E+02  0.45045681598E+02  0.00000000000E+00 0.  1.
         11    1    3    3    0    0 -0.14383141102E+01 -0.25336825637E+01 -0.79322764534E+01  0.84504026418E+01  0.51100000000E-03 0. -1.
        -11    1    3    3    0    0  0.55548767872E+01 -0.10883614213E+02 -0.17524484403E+02  0.21363924459E+02  0.51100000000E-03 0.  1.
        -12    1    3    3    0    0 -0.63528146239E+00 -0.47994426226E+01 -0.15593750924E+02  0.16327991301E+02  0.00000000000E+00 0.  1.
</event>
<event>
 7    1  0.1538805E-008  0.4614232E+02  0.7816164E-02  0.1320468E+00
        -11   -1    0    0    0    0  0.00000000000E+00  0.00000000000E+00  0.45593999997E+02  0.45594000000E+02  0.51100000000E-03 0. -1.
         11   -1    0    0    0    0 -0.00000000000E+00 -0.00000000000E+00 -0.45593999997E+02  0.45594000000E+02  0.51100000000E-03 0.  1.
    9900012    2    1    2    0    0  0.26319683879E+02  0.16906063664E+02  0.32412541201E+02  0.46142316797E+02  0.99999912058E+01 0.  0.
        -12    1    1    2    0    0 -0.26319683879E+02 -0.16906063664E+02 -0.32412541201E+02  0.45045683203E+02  0.00000000000E+00 0.  1.
         11    1    3    3    0    0  0.30777331429E+00  0.34613100516E+00  0.21894945304E+01  0.22379494287E+01  0.51100000000E-03 0. -1.
        -11    1    3    3    0    0  0.40422999542E+01  0.40543137205E+01  0.10033714658E+02  0.11552189349E+02  0.51100000000E-03 0.  1.
         12    1    3    3    0    0  0.21969610611E+02  0.12505618939E+02  0.20189332013E+02  0.32352178019E+02  0.00000000000E+00 0. -1.
</event>
<event>
 7    1  0.1538805E-008  0.4614232E+02  0.7816164E-02  0.1320468E+00
        -11   -1    0    0    0    0  0.00000000000E+00  0.00000000000E+00  0.45593999997E+02  0.45594000000E+02  0.51100000000E-03 0.  1.
         11   -1    0    0    0    0 -0.00000000000E+00 -0.00000000000E+00 -0.45593999997E+02  0.45594000000E+02  0.51100000000E-03 0. -1.
    9900012    2    1    2    0    0  0.15446573459E+02 -0.37978681458E+02 -0.18658420525E+02  0.46142317261E+02  0.99999954423E+01 0.  0.
        -12    1    1    2    0    0 -0.15446573459E+02  0.37978681458E+02  0.18658420525E+02  0.45045682739E+02  0.00000000000E+00 0.  1.
         11    1    3    3    0    0  0.63752723397E+00 -0.43312810267E+01 -0.54722507112E+01  0.70079928948E+01  0.51100000000E-03 0.  1.
        -11    1    3    3    0    0  0.13956624930E+02 -0.30988401694E+02 -0.12793824039E+02  0.36314602473E+02  0.51100000000E-03 0. -1.
         12    1    3    3    0    0  0.85242129476E+00 -0.26589987371E+01 -0.39234577522E+00  0.28197218932E+01  0.00000000000E+00 0. -1.
</event>
<event>
 7    1  0.1538805E-008  0.4614232E+02  0.7816164E-02  0.1320468E+00
        -11   -1    0    0    0    0  0.00000000000E+00  0.00000000000E+00  0.45593999997E+02  0.45594000000E+02  0.51100000000E-03 0.  1.
         11   -1    0    0    0    0 -0.00000000000E+00 -0.00000000000E+00 -0.45593999997E+02  0.45594000000E+02  0.51100000000E-03 0. -1.
    9900012    2    1    2    0    0  0.24054409270E+02  0.37429967995E+02 -0.70353702518E+01  0.46142317143E+02  0.99999943653E+01 0.  0.
        -12    1    1    2    0    0 -0.24054409270E+02 -0.37429967995E+02  0.70353702518E+01  0.45045682857E+02  0.00000000000E+00 0.  1.
         11    1    3    3    0    0  0.29978456374E+01  0.16459552084E+01  0.87908939509E+00  0.35311535564E+01  0.51100000000E-03 0. -1.
        -11    1    3    3    0    0  0.58714189626E+01  0.62156115936E+01 -0.26894341679E+01  0.89632831330E+01  0.51100000000E-03 0.  1.
         12    1    3    3    0    0  0.15185144670E+02  0.29568401193E+02 -0.52250254789E+01  0.33647880454E+02  0.00000000000E+00 0. -1.
</event>
<event>
 7    1  0.1538805E-008  0.4614232E+02  0.7816164E-02  0.1320468E+00
        -11   -1    0    0    0    0  0.00000000000E+00  0.00000000000E+00  0.45593999997E+02  0.45594000000E+02  0.51100000000E-03 0.  1.
         11   -1    0    0    0    0 -0.00000000000E+00 -0.00000000000E+00 -0.45593999997E+02  0.45594000000E+02  0.51100000000E-03 0. -1.
    9900012    2    1    2    0    0 -0.18749367742E+02  0.39114709530E+02 -0.12149657954E+02  0.46142317846E+02  0.10000000772E+02 0.  0.
        -12    1    1    2    0    0  0.18749367742E+02 -0.39114709530E+02  0.12149657954E+02  0.45045682154E+02  0.00000000000E+00 0.  1.
         11    1    3    3    0    0 -0.47518761740E+01  0.52213743970E+01  0.17088430407E+00  0.70620308320E+01  0.51100000000E-03 0. -1.
        -11    1    3    3    0    0 -0.33960315114E+00 -0.26910534612E-01  0.23976000235E+00  0.41658084088E+00  0.51100000000E-03 0.  1.
         12    1    3    3    0    0 -0.13657888417E+02  0.33920245667E+02 -0.12560302260E+02  0.38663706173E+02  0.00000000000E+00 0. -1.
</event>
<event>
 7    1  0.1538805E-008  0.4614232E+02  0.7816164E-02  0.1320468E+00
        -11   -1    0    0    0    0  0.00000000000E+00  0.00000000000E+00  0.45593999997E+02  0.45594000000E+02  0.51100000000E-03 0.  1.
         11   -1    0    0    0    0 -0.00000000000E+00 -0.00000000000E+00 -0.45593999997E+02  0.45594000000E+02  0.51100000000E-03 0. -1.
    9900012    2    1    2    0    0 -0.23159865021E+02  0.14635883480E+02 -0.35756465819E+02  0.46142320064E+02  0.10000021000E+02 0.  0.
        -12    1    1    2    0    0  0.23159865021E+02 -0.14635883480E+02  0.35756465819E+02  0.45045679936E+02  0.00000000000E+00 0.  1.
         11    1    3    3    0    0 -0.12684480720E+02  0.31123949440E+01 -0.15596963907E+02  0.20343262688E+02  0.51100000000E-03 0.  1.
        -11    1    3    3    0    0 -0.91464776538E+01  0.10771070701E+02 -0.19621144506E+02  0.24179812437E+02  0.51100000000E-03 0. -1.
        -12    1    3    3    0    0 -0.13289066470E+01  0.75241783468E+00 -0.53835740617E+00  0.16192449386E+01  0.00000000000E+00 0.  1.
</event>
<event>
 7    1  0.1538805E-008  0.4614233E+02  0.7816164E-02  0.1320468E+00
        -11   -1    0    0    0    0  0.00000000000E+00  0.00000000000E+00  0.45593999997E+02  0.45594000000E+02  0.51100000000E-03 0.  1.
         11   -1    0    0    0    0 -0.00000000000E+00 -0.00000000000E+00 -0.45593999997E+02  0.45594000000E+02  0.51100000000E-03 0. -1.
    9900012    2    1    2    0    0  0.87418378049E+00 -0.20069288459E+02 -0.40318383473E+02  0.46142327817E+02  0.10000091699E+02 0.  0.
        -12    1    1    2    0    0 -0.87418378049E+00  0.20069288459E+02  0.40318383473E+02  0.45045672183E+02  0.00000000000E+00 0.  1.
         11    1    3    3    0    0  0.12306591184E+01 -0.33237981763E+01 -0.14852956164E+01  0.38429493247E+01  0.51100000000E-03 0. -1.
        -11    1    3    3    0    0 -0.33964194375E+00 -0.49969940672E+01 -0.12376610122E+02  0.13351621053E+02  0.51100000000E-03 0.  1.
         12    1    3    3    0    0 -0.16833394141E-01 -0.11748496215E+02 -0.26456477734E+02  0.28947757440E+02  0.00000000000E+00 0. -1.
</event>
<event>
 7    1  0.1538805E-008  0.4614230E+02  0.7816164E-02  0.1320468E+00
        -11   -1    0    0    0    0  0.00000000000E+00  0.00000000000E+00  0.45593999997E+02  0.45594000000E+02  0.51100000000E-03 0. -1.
         11   -1    0    0    0    0 -0.00000000000E+00 -0.00000000000E+00 -0.45593999997E+02  0.45594000000E+02  0.51100000000E-03 0.  1.
    9900012    2    1    2    0    0 -0.36349519290E+02  0.14344432826E+02 -0.22406792258E+02  0.46142304923E+02  0.99998829273E+01 0.  0.
        -12    1    1    2    0    0  0.36349519290E+02 -0.14344432826E+02  0.22406792258E+02  0.45045695077E+02  0.00000000000E+00 0.  1.
         11    1    3    3    0    0 -0.31953859646E+02  0.12030123115E+02 -0.15933707544E+02  0.37678323275E+02  0.51100000000E-03 0. -1.
        -11    1    3    3    0    0 -0.45053972874E+01  0.25028965768E+01 -0.64316041866E+01  0.82418825923E+01  0.51100000000E-03 0.  1.
         12    1    3    3    0    0  0.10973764339E+00 -0.18858686566E+00 -0.41480527056E-01  0.22209905538E+00  0.00000000000E+00 0. -1.
</event>
<event>
 7    1  0.1538805E-008  0.4614232E+02  0.7816164E-02  0.1320468E+00
        -11   -1    0    0    0    0  0.00000000000E+00  0.00000000000E+00  0.45593999997E+02  0.45594000000E+02  0.51100000000E-03 0. -1.
         11   -1    0    0    0    0 -0.00000000000E+00 -0.00000000000E+00 -0.45593999997E+02  0.45594000000E+02  0.51100000000E-03 0.  1.
    9900012    2    1    2    0    0 -0.29936971600E+02 -0.25485167625E+02  0.21986302687E+02  0.46142317152E+02  0.99999944446E+01 0.  0.
        -12    1    1    2    0    0  0.29936971600E+02  0.25485167625E+02 -0.21986302687E+02  0.45045682848E+02  0.00000000000E+00 0.  1.
         11    1    3    3    0    0 -0.64151083328E+01 -0.78044738480E+01  0.40405846852E+01  0.10880705484E+02  0.51100000000E-03 0. -1.
        -11    1    3    3    0    0 -0.12803243273E+02 -0.64001164357E+01  0.11726621340E+02  0.18504004351E+02  0.51100000000E-03 0.  1.
        -12    1    3    3    0    0 -0.10718619994E+02 -0.11280577341E+02  0.62190966620E+01  0.16757607317E+02  0.00000000000E+00 0.  1.
</event>
<event>
 7    1  0.1538805E-008  0.4614232E+02  0.7816164E-02  0.1320468E+00
        -11   -1    0    0    0    0  0.00000000000E+00  0.00000000000E+00  0.45593999997E+02  0.45594000000E+02  0.51100000000E-03 0. -1.
         11   -1    0    0    0    0 -0.00000000000E+00 -0.00000000000E+00 -0.45593999997E+02  0.45594000000E+02  0.51100000000E-03 0.  1.
    9900012    2    1    2    0    0 -0.55806281750E+01 -0.33647854881E+02  0.29424342813E+02  0.46142317644E+02  0.99999989324E+01 0.  0.
        -12    1    1    2    0    0  0.55806281750E+01  0.33647854881E+02 -0.29424342813E+02  0.45045682356E+02  0.00000000000E+00 0.  1.
         11    1    3    3    0    0 -0.38775782777E+00 -0.65009198129E+01  0.74809040230E+01  0.99184797126E+01  0.51100000000E-03 0. -1.
        -11    1    3    3    0    0 -0.55693902089E+01 -0.16604085778E+02  0.95481114248E+01  0.19946934698E+02  0.51100000000E-03 0.  1.
        -12    1    3    3    0    0  0.37651986167E+00 -0.10542849290E+02  0.12395327366E+02  0.16276903233E+02  0.00000000000E+00 0.  1.
</event>
<event>
 7    1  0.1538805E-008  0.4614232E+02  0.7816164E-02  0.1320468E+00
        -11   -1    0    0    0    0  0.00000000000E+00  0.00000000000E+00  0.45593999997E+02  0.45594000000E+02  0.51100000000E-03 0.  1.
         11   -1    0    0    0    0 -0.00000000000E+00 -0.00000000000E+00 -0.45593999997E+02  0.45594000000E+02  0.51100000000E-03 0. -1.
    9900012    2    1    2    0    0 -0.33279984160E+02  0.25510481493E+02 -0.16455136850E+02  0.46142317183E+02  0.99999947305E+01 0.  0.
        -12    1    1    2    0    0  0.33279984160E+02 -0.25510481493E+02  0.16455136850E+02  0.45045682817E+02  0.00000000000E+00 0.  1.
         11    1    3    3    0    0 -0.46106556601E+01  0.11991211490E+01 -0.19157175386E+01  0.51347844253E+01  0.51100000000E-03 0. -1.
        -11    1    3    3    0    0 -0.10957403880E+01  0.20764598373E+01  0.69528031394E+00  0.24486215366E+01  0.51100000000E-03 0.  1.
        -12    1    3    3    0    0 -0.27573588112E+02  0.22234900506E+02 -0.15234699625E+02  0.38558911221E+02  0.00000000000E+00 0.  1.
</event>
<event>
 7    1  0.1538805E-008  0.4614232E+02  0.7816164E-02  0.1320468E+00
        -11   -1    0    0    0    0  0.00000000000E+00  0.00000000000E+00  0.45593999997E+02  0.45594000000E+02  0.51100000000E-03 0.  1.
         11   -1    0    0    0    0 -0.00000000000E+00 -0.00000000000E+00 -0.45593999997E+02  0.45594000000E+02  0.51100000000E-03 0. -1.
    9900012    2    1    2    0    0  0.17016946087E+02  0.20485094680E+01 -0.41657419918E+02  0.46142317860E+02  0.10000000905E+02 0.  0.
        -12    1    1    2    0    0 -0.17016946087E+02 -0.20485094680E+01  0.41657419918E+02  0.45045682140E+02  0.00000000000E+00 0.  1.
         11    1    3    3    0    0 -0.12129170509E+01  0.26214421364E+00 -0.40388642878E+01  0.42251996825E+01  0.51100000000E-03 0. -1.
        -11    1    3    3    0    0  0.90883348024E+01  0.45266729605E+00 -0.15984630003E+02  0.18393236087E+02  0.51100000000E-03 0.  1.
         12    1    3    3    0    0  0.91415283355E+01  0.13336979583E+01 -0.21633925628E+02  0.23523882091E+02  0.00000000000E+00 0. -1.
</event>
<event>
 7    1  0.1538805E-008  0.4614232E+02  0.7816164E-02  0.1320468E+00
        -11   -1    0    0    0    0  0.00000000000E+00  0.00000000000E+00  0.45593999997E+02  0.45594000000E+02  0.51100000000E-03 0.  1.
         11   -1    0    0    0    0 -0.00000000000E+00 -0.00000000000E+00 -0.45593999997E+02  0.45594000000E+02  0.51100000000E-03 0. -1.
    9900012    2    1    2    0    0 -0.39548350611E+02 -0.18996487369E+02 -0.10206610469E+02  0.46142318013E+02  0.10000002299E+02 0.  0.
        -12    1    1    2    0    0  0.39548350611E+02  0.18996487369E+02  0.10206610469E+02  0.45045681987E+02  0.00000000000E+00 0.  1.
         11    1    3    3    0    0 -0.12668495999E+02 -0.46121810617E+01  0.21334764279E+00  0.13483639067E+02  0.51100000000E-03 0.  1.
        -11    1    3    3    0    0 -0.22859446442E+02 -0.14232159550E+02 -0.89930505483E+01  0.28389850572E+02  0.51100000000E-03 0. -1.
        -12    1    3    3    0    0 -0.40204081704E+01 -0.15214675729E+00 -0.14269075636E+01  0.42688283741E+01  0.00000000000E+00 0.  1.
</event>
<event>
 7    1  0.1538805E-008  0.4614232E+02  0.7816164E-02  0.1320468E+00
        -11   -1    0    0    0    0  0.00000000000E+00  0.00000000000E+00  0.45593999997E+02  0.45594000000E+02  0.51100000000E-03 0.  1.
         11   -1    0    0    0    0 -0.00000000000E+00 -0.00000000000E+00 -0.45593999997E+02  0.45594000000E+02  0.51100000000E-03 0. -1.
    9900012    2    1    2    0    0 -0.27552579215E+02 -0.31838347429E+02  0.16009014800E+02  0.46142317151E+02  0.99999944406E+01 0.  0.
        -12    1    1    2    0    0  0.27552579215E+02  0.31838347429E+02 -0.16009014800E+02  0.45045682849E+02  0.00000000000E+00 0.  1.
         11    1    3    3    0    0 -0.71125297570E+01 -0.10557699121E+02  0.52908262694E+01  0.13785714822E+02  0.51100000000E-03 0. -1.
        -11    1    3    3    0    0 -0.81755471867E+01 -0.10065602197E+02  0.77622370224E+00  0.12990706020E+02  0.51100000000E-03 0.  1.
         12    1    3    3    0    0 -0.12264502271E+02 -0.11215046111E+02  0.99419648286E+01  0.19365896310E+02  0.00000000000E+00 0. -1.
</event>
<event>
 7    1  0.1538805E-008  0.4614232E+02  0.7816164E-02  0.1320468E+00
        -11   -1    0    0    0    0  0.00000000000E+00  0.00000000000E+00  0.45593999997E+02  0.45594000000E+02  0.51100000000E-03 0.  1.
         11   -1    0    0    0    0 -0.00000000000E+00 -0.00000000000E+00 -0.45593999997E+02  0.45594000000E+02  0.51100000000E-03 0. -1.
    9900012    2    1    2    0    0  0.12607659714E+02  0.10088776731E+02 -0.42052075068E+02  0.46142317444E+02  0.99999971069E+01 0.  0.
        -12    1    1    2    0    0 -0.12607659714E+02 -0.10088776731E+02  0.42052075068E+02  0.45045682556E+02  0.00000000000E+00 0.  1.
         11    1    3    3    0    0  0.12352902414E+02  0.55495803926E+01 -0.27817297040E+02  0.30938552899E+02  0.51100000000E-03 0. -1.
        -11    1    3    3    0    0  0.10398487819E+01  0.38295673606E+01 -0.86120676502E+01  0.94823299421E+01  0.51100000000E-03 0.  1.
         12    1    3    3    0    0 -0.78509148216E+00  0.70962897830E+00 -0.56227103777E+01  0.57214346028E+01  0.00000000000E+00 0. -1.
</event>
<event>
 7    1  0.1538805E-008  0.4614232E+02  0.7816164E-02  0.1320468E+00
        -11   -1    0    0    0    0  0.00000000000E+00  0.00000000000E+00  0.45593999997E+02  0.45594000000E+02  0.51100000000E-03 0.  1.
         11   -1    0    0    0    0 -0.00000000000E+00 -0.00000000000E+00 -0.45593999997E+02  0.45594000000E+02  0.51100000000E-03 0. -1.
    9900012    2    1    2    0    0  0.12048908647E+00  0.34994735378E+02 -0.28363135883E+02  0.46142317644E+02  0.99999989301E+01 0.  0.
        -12    1    1    2    0    0 -0.12048908647E+00 -0.34994735378E+02  0.28363135883E+02  0.45045682356E+02  0.00000000000E+00 0.  1.
         11    1    3    3    0    0 -0.29554013121E+01  0.14381016814E+02 -0.16152208608E+02  0.21827548757E+02  0.51100000000E-03 0. -1.
        -11    1    3    3    0    0  0.28358872219E+01  0.17316371124E+02 -0.90613502135E+01  0.19748595727E+02  0.51100000000E-03 0.  1.
        -12    1    3    3    0    0  0.24000317671E+00  0.32973474404E+01 -0.31495770613E+01  0.45661731606E+01  0.00000000000E+00 0.  1.
</event>
<event>
 7    1  0.1538805E-008  0.4614232E+02  0.7816164E-02  0.1320468E+00
        -11   -1    0    0    0    0  0.00000000000E+00  0.00000000000E+00  0.45593999997E+02  0.45594000000E+02  0.51100000000E-03 0. -1.
         11   -1    0    0    0    0 -0.00000000000E+00 -0.00000000000E+00 -0.45593999997E+02  0.45594000000E+02  0.51100000000E-03 0.  1.
    9900012    2    1    2    0    0  0.17645803820E+02 -0.41027667669E+02 -0.58710782765E+01  0.46142317999E+02  0.10000002170E+02 0.  0.
        -12    1    1    2    0    0 -0.17645803820E+02  0.41027667669E+02  0.58710782765E+01  0.45045682001E+02  0.00000000000E+00 0.  1.
         11    1    3    3    0    0  0.79441121931E+01 -0.21972567192E+02 -0.69684516277E+01  0.24381590307E+02  0.51100000000E-03 0. -1.
        -11    1    3    3    0    0  0.77642006480E+01 -0.11773715249E+02  0.16824191627E+01  0.14203299510E+02  0.51100000000E-03 0.  1.
        -12    1    3    3    0    0  0.19374909788E+01 -0.72813852275E+01 -0.58504581155E+00  0.75574281820E+01  0.00000000000E+00 0.  1.
</event>
<event>
 7    1  0.1538805E-008  0.4614233E+02  0.7816164E-02  0.1320468E+00
        -11   -1    0    0    0    0  0.00000000000E+00  0.00000000000E+00  0.45593999997E+02  0.45594000000E+02  0.51100000000E-03 0. -1.
         11   -1    0    0    0    0 -0.00000000000E+00 -0.00000000000E+00 -0.45593999997E+02  0.45594000000E+02  0.51100000000E-03 0.  1.
    9900012    2    1    2    0    0  0.69269716052E+01  0.21703677087E+02  0.38859743741E+02  0.46142331859E+02  0.10000128551E+02 0.  0.
        -12    1    1    2    0    0 -0.69269716052E+01 -0.21703677087E+02 -0.38859743741E+02  0.45045668141E+02  0.00000000000E+00 0.  1.
         11    1    3    3    0    0  0.24421053803E+01  0.15221826120E+02  0.20508176342E+02  0.25656444926E+02  0.51100000000E-03 0. -1.
        -11    1    3    3    0    0 -0.80052481200E+00  0.86942479124E+00  0.12147993201E+01  0.16948383674E+01  0.51100000000E-03 0.  1.
         12    1    3    3    0    0  0.52853910369E+01  0.56124261757E+01  0.17136768079E+02  0.18791048565E+02  0.00000000000E+00 0. -1.
</event>
<event>
 7    1  0.1538805E-008  0.4614231E+02  0.7816164E-02  0.1320468E+00
        -11   -1    0    0    0    0  0.00000000000E+00  0.00000000000E+00  0.45593999997E+02  0.45594000000E+02  0.51100000000E-03 0.  1.
         11   -1    0    0    0    0 -0.00000000000E+00 -0.00000000000E+00 -0.45593999997E+02  0.45594000000E+02  0.51100000000E-03 0. -1.
    9900012    2    1    2    0    0  0.33483502846E+02 -0.27561103854E+02 -0.12180080917E+02  0.46142314528E+02  0.99999705222E+01 0.  0.
        -12    1    1    2    0    0 -0.33483502846E+02  0.27561103854E+02  0.12180080917E+02  0.45045685472E+02  0.00000000000E+00 0.  1.
         11    1    3    3    0    0  0.87979686093E+01 -0.83882195916E+01 -0.20652852694E+01  0.12330120967E+02  0.51100000000E-03 0. -1.
        -11    1    3    3    0    0  0.14124666581E+01  0.57858599476E+00 -0.13916339878E+01  0.20655433258E+01  0.51100000000E-03 0.  1.
        -12    1    3    3    0    0  0.23273067578E+02 -0.19751470257E+02 -0.87231616594E+01  0.31746650235E+02  0.00000000000E+00 0.  1.
</event>
<event>
 7    1  0.1538805E-008  0.4614232E+02  0.7816164E-02  0.1320468E+00
        -11   -1    0    0    0    0  0.00000000000E+00  0.00000000000E+00  0.45593999997E+02  0.45594000000E+02  0.51100000000E-03 0.  1.
         11   -1    0    0    0    0 -0.00000000000E+00 -0.00000000000E+00 -0.45593999997E+02  0.45594000000E+02  0.51100000000E-03 0. -1.
    9900012    2    1    2    0    0 -0.39409334119E+02 -0.15630575649E+02 -0.15221795483E+02  0.46142316871E+02  0.99999918854E+01 0.  0.
        -12    1    1    2    0    0  0.39409334119E+02  0.15630575649E+02  0.15221795483E+02  0.45045683129E+02  0.00000000000E+00 0.  1.
         11    1    3    3    0    0 -0.20321083135E+02 -0.52166044936E+01 -0.39563442327E+01  0.21349755084E+02  0.51100000000E-03 0. -1.
        -11    1    3    3    0    0 -0.12894720644E+02 -0.60758577123E+01 -0.91575776487E+01  0.16942582332E+02  0.51100000000E-03 0.  1.
        -12    1    3    3    0    0 -0.61935303397E+01 -0.43381134434E+01 -0.21078736013E+01  0.78499794545E+01  0.00000000000E+00 0.  1.
</event>
<event>
 7    1  0.1538805E-008  0.4614232E+02  0.7816164E-02  0.1320468E+00
        -11   -1    0    0    0    0  0.00000000000E+00  0.00000000000E+00  0.45593999997E+02  0.45594000000E+02  0.51100000000E-03 0.  1.
         11   -1    0    0    0    0 -0.00000000000E+00 -0.00000000000E+00 -0.45593999997E+02  0.45594000000E+02  0.51100000000E-03 0. -1.
    9900012    2    1    2    0    0  0.37282767911E+02  0.18766364458E+01 -0.25210851527E+02  0.46142316720E+02  0.99999905026E+01 0.  0.
        -12    1    1    2    0    0 -0.37282767911E+02 -0.18766364458E+01  0.25210851527E+02  0.45045683280E+02  0.00000000000E+00 0.  1.
         11    1    3    3    0    0  0.27209402347E+02 -0.25534434810E+01 -0.17503156910E+02  0.32453538355E+02  0.51100000000E-03 0. -1.
        -11    1    3    3    0    0  0.56033206857E+00  0.10519873196E+01 -0.54357328907E+00  0.13100082173E+01  0.51100000000E-03 0.  1.
         12    1    3    3    0    0  0.95130334963E+01  0.33780926072E+01 -0.71641213275E+01  0.12378770147E+02  0.00000000000E+00 0. -1.
</event>
<event>
 7    1  0.1538805E-008  0.4614232E+02  0.7816164E-02  0.1320468E+00
        -11   -1    0    0    0    0  0.00000000000E+00  0.00000000000E+00  0.45593999997E+02  0.45594000000E+02  0.51100000000E-03 0.  1.
         11   -1    0    0    0    0 -0.00000000000E+00 -0.00000000000E+00 -0.45593999997E+02  0.45594000000E+02  0.51100000000E-03 0. -1.
    9900012    2    1    2    0    0 -0.34120241583E+02 -0.24616619194E+02  0.16091758474E+02  0.46142317443E+02  0.99999970973E+01 0.  0.
        -12    1    1    2    0    0  0.34120241583E+02  0.24616619194E+02 -0.16091758474E+02  0.45045682557E+02  0.00000000000E+00 0.  1.
         11    1    3    3    0    0 -0.23679322493E+01 -0.15848140175E+01  0.30906930239E+01  0.42037033954E+01  0.51100000000E-03 0.  1.
        -11    1    3    3    0    0 -0.11641993467E+02 -0.94926615066E+01  0.14715422789E+01  0.15093444647E+02  0.51100000000E-03 0. -1.
         12    1    3    3    0    0 -0.20110315867E+02 -0.13539143670E+02  0.11529523172E+02  0.26845169401E+02  0.00000000000E+00 0. -1.
</event>
<event>
 7    1  0.1538805E-008  0.4614232E+02  0.7816164E-02  0.1320468E+00
        -11   -1    0    0    0    0  0.00000000000E+00  0.00000000000E+00  0.45593999997E+02  0.45594000000E+02  0.51100000000E-03 0.  1.
         11   -1    0    0    0    0 -0.00000000000E+00 -0.00000000000E+00 -0.45593999997E+02  0.45594000000E+02  0.51100000000E-03 0. -1.
    9900012    2    1    2    0    0 -0.12198850268E+02  0.24761489259E+01 -0.43291688095E+02  0.46142317415E+02  0.99999968479E+01 0.  0.
        -12    1    1    2    0    0  0.12198850268E+02 -0.24761489259E+01  0.43291688095E+02  0.45045682585E+02  0.00000000000E+00 0.  1.
         11    1    3    3    0    0 -0.47536408512E+01 -0.11260687426E+00 -0.12267866151E+02  0.13157139576E+02  0.51100000000E-03 0. -1.
        -11    1    3    3    0    0 -0.53501842509E+01  0.49320132608E+01 -0.26469498120E+02  0.27451476414E+02  0.51100000000E-03 0.  1.
        -12    1    3    3    0    0 -0.20950251664E+01 -0.23432574606E+01 -0.45543238239E+01  0.55337014256E+01  0.00000000000E+00 0.  1.
</event>
<event>
 7    1  0.1538805E-008  0.4614233E+02  0.7816164E-02  0.1320468E+00
        -11   -1    0    0    0    0  0.00000000000E+00  0.00000000000E+00  0.45593999997E+02  0.45594000000E+02  0.51100000000E-03 0. -1.
         11   -1    0    0    0    0 -0.00000000000E+00 -0.00000000000E+00 -0.45593999997E+02  0.45594000000E+02  0.51100000000E-03 0.  1.
    9900012    2    1    2    0    0 -0.40308150133E+02  0.19953031903E+02  0.24984016891E+01  0.46142329173E+02  0.10000104061E+02 0.  0.
        -12    1    1    2    0    0  0.40308150133E+02 -0.19953031903E+02 -0.24984016891E+01  0.45045670827E+02  0.00000000000E+00 0.  1.
         11    1    3    3    0    0 -0.24169574724E+02  0.12448448263E+02  0.34318367610E+01  0.27402731804E+02  0.51100000000E-03 0. -1.
        -11    1    3    3    0    0 -0.48682696154E+01  0.47695697440E+01 -0.19743642259E+01  0.70955591005E+01  0.51100000000E-03 0.  1.
         12    1    3    3    0    0 -0.11270305794E+02  0.27350138958E+01  0.10409291540E+01  0.11644038268E+02  0.00000000000E+00 0. -1.
</event>
<event>
 7    1  0.1538805E-008  0.4614232E+02  0.7816164E-02  0.1320468E+00
        -11   -1    0    0    0    0  0.00000000000E+00  0.00000000000E+00  0.45593999997E+02  0.45594000000E+02  0.51100000000E-03 0. -1.
         11   -1    0    0    0    0 -0.00000000000E+00 -0.00000000000E+00 -0.45593999997E+02  0.45594000000E+02  0.51100000000E-03 0.  1.
    9900012    2    1    2    0    0  0.36889173981E+02 -0.16826610257E+02  0.19625685120E+02  0.46142317786E+02  0.10000000225E+02 0.  0.
        -12    1    1    2    0    0 -0.36889173981E+02  0.16826610257E+02 -0.19625685120E+02  0.45045682214E+02  0.00000000000E+00 0.  1.
         11    1    3    3    0    0  0.32963720561E+02 -0.16660821444E+02  0.17189788087E+02  0.40739153884E+02  0.51100000000E-03 0. -1.
        -11    1    3    3    0    0  0.49053329089E+00 -0.61061077939E+00 -0.44253941905E+00  0.89961649158E+00  0.51100000000E-03 0.  1.
         12    1    3    3    0    0  0.34349201288E+01  0.44482196629E+00  0.28784364520E+01  0.45035474107E+01  0.00000000000E+00 0. -1.
</event>
<event>
 7    1  0.1538805E-008  0.4614232E+02  0.7816164E-02  0.1320468E+00
        -11   -1    0    0    0    0  0.00000000000E+00  0.00000000000E+00  0.45593999997E+02  0.45594000000E+02  0.51100000000E-03 0.  1.
         11   -1    0    0    0    0 -0.00000000000E+00 -0.00000000000E+00 -0.45593999997E+02  0.45594000000E+02  0.51100000000E-03 0. -1.
    9900012    2    1    2    0    0 -0.53768890613E+01 -0.18936189036E+02 -0.40516950687E+02  0.46142317808E+02  0.10000000426E+02 0.  0.
        -12    1    1    2    0    0  0.53768890613E+01  0.18936189036E+02  0.40516950687E+02  0.45045682192E+02  0.00000000000E+00 0.  1.
         11    1    3    3    0    0  0.53037415786E-01 -0.19519954658E+01 -0.74667641948E+01  0.77178797003E+01  0.51100000000E-03 0. -1.
        -11    1    3    3    0    0 -0.66484298306E+00 -0.84938282046E+01 -0.85935869054E+01  0.12101110277E+02  0.51100000000E-03 0.  1.
        -12    1    3    3    0    0 -0.47650834941E+01 -0.84903653652E+01 -0.24456599587E+02  0.26323327831E+02  0.00000000000E+00 0.  1.
</event>
<event>
 7    1  0.1538805E-008  0.4614232E+02  0.7816164E-02  0.1320468E+00
        -11   -1    0    0    0    0  0.00000000000E+00  0.00000000000E+00  0.45593999997E+02  0.45594000000E+02  0.51100000000E-03 0.  1.
         11   -1    0    0    0    0 -0.00000000000E+00 -0.00000000000E+00 -0.45593999997E+02  0.45594000000E+02  0.51100000000E-03 0. -1.
    9900012    2    1    2    0    0  0.38800491383E+02  0.18490449846E+02 -0.13481048099E+02  0.46142317356E+02  0.99999963037E+01 0.  0.
        -12    1    1    2    0    0 -0.38800491383E+02 -0.18490449846E+02  0.13481048099E+02  0.45045682644E+02  0.00000000000E+00 0.  1.
         11    1    3    3    0    0  0.22469414636E+02  0.86231492136E+01 -0.45921633932E+01  0.24501454270E+02  0.51100000000E-03 0.  1.
        -11    1    3    3    0    0  0.10478061617E+02  0.66191511216E+01 -0.83104624016E+01  0.14922021392E+02  0.51100000000E-03 0. -1.
         12    1    3    3    0    0  0.58530151292E+01  0.32481495112E+01 -0.57842230379E+00  0.67188416942E+01  0.00000000000E+00 0. -1.
</event>
<event>
 7    1  0.1538805E-008  0.4614232E+02  0.7816164E-02  0.1320468E+00
        -11   -1    0    0    0    0  0.00000000000E+00  0.00000000000E+00  0.45593999997E+02  0.45594000000E+02  0.51100000000E-03 0.  1.
         11   -1    0    0    0    0 -0.00000000000E+00 -0.00000000000E+00 -0.45593999997E+02  0.45594000000E+02  0.51100000000E-03 0. -1.
    9900012    2    1    2    0    0  0.76741951708E+01 -0.43047485944E+02 -0.10822858593E+02  0.46142316680E+02  0.99999901403E+01 0.  0.
        -12    1    1    2    0    0 -0.76741951708E+01  0.43047485944E+02  0.10822858593E+02  0.45045683320E+02  0.00000000000E+00 0.  1.
         11    1    3    3    0    0  0.42776998704E+01 -0.27063938900E+02 -0.30007404219E+01  0.27563743365E+02  0.51100000000E-03 0. -1.
        -11    1    3    3    0    0  0.21467324086E+01 -0.48461072506E+01 -0.43169678377E+01  0.68358925600E+01  0.51100000000E-03 0.  1.
         12    1    3    3    0    0  0.12497628918E+01 -0.11137439794E+02 -0.35051503332E+01  0.11742680755E+02  0.00000000000E+00 0. -1.
</event>
<event>
 7    1  0.1538805E-008  0.4614232E+02  0.7816164E-02  0.1320468E+00
        -11   -1    0    0    0    0  0.00000000000E+00  0.00000000000E+00  0.45593999997E+02  0.45594000000E+02  0.51100000000E-03 0.  1.
         11   -1    0    0    0    0 -0.00000000000E+00 -0.00000000000E+00 -0.45593999997E+02  0.45594000000E+02  0.51100000000E-03 0. -1.
    9900012    2    1    2    0    0  0.50961063876E+01 -0.39648879611E+02 -0.20763177583E+02  0.46142317654E+02  0.99999990194E+01 0.  0.
        -12    1    1    2    0    0 -0.50961063876E+01  0.39648879611E+02  0.20763177583E+02  0.45045682346E+02  0.00000000000E+00 0.  1.
         11    1    3    3    0    0  0.93827448532E+00 -0.12028469081E+01 -0.21324976877E+01  0.26219737495E+01  0.51100000000E-03 0.  1.
        -11    1    3    3    0    0  0.48054024883E+01 -0.34318049574E+02 -0.18626934013E+02  0.39341874519E+02  0.51100000000E-03 0. -1.
        -12    1    3    3    0    0 -0.64757058601E+00 -0.41279831283E+01 -0.37458823154E-02  0.41784693852E+01  0.00000000000E+00 0.  1.
</event>
<event>
 7    1  0.1538805E-008  0.4614232E+02  0.7816164E-02  0.1320468E+00
        -11   -1    0    0    0    0  0.00000000000E+00  0.00000000000E+00  0.45593999997E+02  0.45594000000E+02  0.51100000000E-03 0. -1.
         11   -1    0    0    0    0 -0.00000000000E+00 -0.00000000000E+00 -0.45593999997E+02  0.45594000000E+02  0.51100000000E-03 0.  1.
    9900012    2    1    2    0    0 -0.39503053093E+02  0.14972627823E+01  0.21595849659E+02  0.46142315168E+02  0.99999763530E+01 0.  0.
        -12    1    1    2    0    0  0.39503053093E+02 -0.14972627823E+01 -0.21595849659E+02  0.45045684832E+02  0.00000000000E+00 0.  1.
         11    1    3    3    0    0 -0.15120138776E+02  0.12058683805E+01  0.13773770039E+02  0.20488764153E+02  0.51100000000E-03 0.  1.
        -11    1    3    3    0    0 -0.19085191429E+02 -0.38315733896E-01  0.67092691392E+01  0.20230182713E+02  0.51100000000E-03 0. -1.
        -12    1    3    3    0    0 -0.52977228882E+01  0.32971013568E+00  0.11128104809E+01  0.54233683020E+01  0.00000000000E+00 0.  1.
</event>
<event>
 7    1  0.1538805E-008  0.4614232E+02  0.7816164E-02  0.1320468E+00
        -11   -1    0    0    0    0  0.00000000000E+00  0.00000000000E+00  0.45593999997E+02  0.45594000000E+02  0.51100000000E-03 0.  1.
         11   -1    0    0    0    0 -0.00000000000E+00 -0.00000000000E+00 -0.45593999997E+02  0.45594000000E+02  0.51100000000E-03 0. -1.
    9900012    2    1    2    0    0 -0.37897689591E+02 -0.13249434119E+02 -0.20428674592E+02  0.46142321779E+02  0.10000036642E+02 0.  0.
        -12    1    1    2    0    0  0.37897689591E+02  0.13249434119E+02  0.20428674592E+02  0.45045678221E+02  0.00000000000E+00 0.  1.
         11    1    3    3    0    0 -0.17460174065E+02 -0.95807143652E+01 -0.13419770329E+02  0.24015370122E+02  0.51100000000E-03 0. -1.
        -11    1    3    3    0    0 -0.10013022975E+02 -0.29458681325E+00 -0.29551141935E+01  0.10444142408E+02  0.51100000000E-03 0.  1.
         12    1    3    3    0    0 -0.10424492551E+02 -0.33741329401E+01 -0.40537900692E+01  0.11682809249E+02  0.00000000000E+00 0. -1.
</event>
<event>
 7    1  0.1538805E-008  0.4614232E+02  0.7816164E-02  0.1320468E+00
        -11   -1    0    0    0    0  0.00000000000E+00  0.00000000000E+00  0.45593999997E+02  0.45594000000E+02  0.51100000000E-03 0.  1.
         11   -1    0    0    0    0 -0.00000000000E+00 -0.00000000000E+00 -0.45593999997E+02  0.45594000000E+02  0.51100000000E-03 0. -1.
    9900012    2    1    2    0    0 -0.42535910324E+02 -0.14259799228E+02 -0.40580211752E+01  0.46142322328E+02  0.10000041641E+02 0.  0.
        -12    1    1    2    0    0  0.42535910324E+02  0.14259799228E+02  0.40580211752E+01  0.45045677672E+02  0.00000000000E+00 0.  1.
         11    1    3    3    0    0 -0.19364160925E+02 -0.61580801988E+01 -0.61728266879E+01  0.21236677463E+02  0.51100000000E-03 0. -1.
        -11    1    3    3    0    0 -0.15509454392E+02 -0.54694046822E+01  0.31288566894E+01  0.16740588626E+02  0.51100000000E-03 0.  1.
         12    1    3    3    0    0 -0.76622950066E+01 -0.26323143466E+01 -0.10140511767E+01  0.81650562384E+01  0.00000000000E+00 0. -1.
</event>
<event>
 7    1  0.1538805E-008  0.4614232E+02  0.7816164E-02  0.1320468E+00
        -11   -1    0    0    0    0  0.00000000000E+00  0.00000000000E+00  0.45593999997E+02  0.45594000000E+02  0.51100000000E-03 0.  1.
         11   -1    0    0    0    0 -0.00000000000E+00 -0.00000000000E+00 -0.45593999997E+02  0.45594000000E+02  0.51100000000E-03 0. -1.
    9900012    2    1    2    0    0  0.42074677949E+02 -0.14884051319E+00 -0.16087658902E+02  0.46142318221E+02  0.10000004190E+02 0.  0.
        -12    1    1    2    0    0 -0.42074677949E+02  0.14884051319E+00  0.16087658902E+02  0.45045681779E+02  0.00000000000E+00 0.  1.
         11    1    3    3    0    0  0.46125424511E+01  0.13161627055E+01 -0.17795533669E+01  0.51161159660E+01  0.51100000000E-03 0. -1.
        -11    1    3    3    0    0  0.27407530859E+02  0.14489101973E+00 -0.14143825579E+02  0.30842203933E+02  0.51100000000E-03 0.  1.
        -12    1    3    3    0    0  0.10054604639E+02 -0.16098942385E+01 -0.16427995662E+00  0.10183998321E+02  0.00000000000E+00 0.  1.
</event>
<event>
 7    1  0.1538805E-008  0.4614231E+02  0.7816164E-02  0.1320468E+00
        -11   -1    0    0    0    0  0.00000000000E+00  0.00000000000E+00  0.45593999997E+02  0.45594000000E+02  0.51100000000E-03 0.  1.
         11   -1    0    0    0    0 -0.00000000000E+00 -0.00000000000E+00 -0.45593999997E+02  0.45594000000E+02  0.51100000000E-03 0. -1.
    9900012    2    1    2    0    0 -0.16811567293E+02 -0.33027199300E+02 -0.25606426114E+02  0.46142314892E+02  0.99999738406E+01 0.  0.
        -12    1    1    2    0    0  0.16811567293E+02  0.33027199300E+02  0.25606426114E+02  0.45045685108E+02  0.00000000000E+00 0.  1.
         11    1    3    3    0    0 -0.49118615077E+01 -0.10603034423E+02 -0.88858287227E+01  0.14680213718E+02  0.51100000000E-03 0. -1.
        -11    1    3    3    0    0 -0.36645879467E+01 -0.14560786871E+02 -0.73584857392E+01  0.16721035607E+02  0.51100000000E-03 0.  1.
        -12    1    3    3    0    0 -0.82351178389E+01 -0.78633780056E+01 -0.93621116523E+01  0.14741065568E+02  0.00000000000E+00 0.  1.
</event>
<event>
 7    1  0.1538805E-008  0.4614232E+02  0.7816164E-02  0.1320468E+00
        -11   -1    0    0    0    0  0.00000000000E+00  0.00000000000E+00  0.45593999997E+02  0.45594000000E+02  0.51100000000E-03 0.  1.
         11   -1    0    0    0    0 -0.00000000000E+00 -0.00000000000E+00 -0.45593999997E+02  0.45594000000E+02  0.51100000000E-03 0. -1.
    9900012    2    1    2    0    0 -0.27819804428E+02 -0.31067383945E+02 -0.17029078110E+02  0.46142319132E+02  0.10000012498E+02 0.  0.
        -12    1    1    2    0    0  0.27819804428E+02  0.31067383945E+02  0.17029078110E+02  0.45045680868E+02  0.00000000000E+00 0.  1.
         11    1    3    3    0    0 -0.13006578995E+02 -0.18890998735E+02 -0.67184471954E+01  0.23899340228E+02  0.51100000000E-03 0. -1.
        -11    1    3    3    0    0 -0.12074170711E+02 -0.11352628262E+02 -0.73609636909E+01  0.18134264626E+02  0.51100000000E-03 0.  1.
        -12    1    3    3    0    0 -0.27390547218E+01 -0.82375694786E+00 -0.29496672241E+01  0.41087142772E+01  0.00000000000E+00 0.  1.
</event>
<event>
 7    1  0.1538805E-008  0.4614232E+02  0.7816164E-02  0.1320468E+00
        -11   -1    0    0    0    0  0.00000000000E+00  0.00000000000E+00  0.45593999997E+02  0.45594000000E+02  0.51100000000E-03 0.  1.
         11   -1    0    0    0    0 -0.00000000000E+00 -0.00000000000E+00 -0.45593999997E+02  0.45594000000E+02  0.51100000000E-03 0. -1.
    9900012    2    1    2    0    0  0.97448663404E+01 -0.29889716506E+02 -0.32260747642E+02  0.46142318617E+02  0.10000007807E+02 0.  0.
        -12    1    1    2    0    0 -0.97448663404E+01  0.29889716506E+02  0.32260747642E+02  0.45045681383E+02  0.00000000000E+00 0.  1.
         11    1    3    3    0    0  0.34107566407E+01 -0.57946427623E+01 -0.68491114671E+01  0.95979932150E+01  0.51100000000E-03 0. -1.
        -11    1    3    3    0    0  0.69417099539E+01 -0.12803564678E+02 -0.17373626080E+02  0.22670718758E+02  0.51100000000E-03 0.  1.
        -12    1    3    3    0    0 -0.60760025426E+00 -0.11291509066E+02 -0.80380100948E+01  0.13873606645E+02  0.00000000000E+00 0.  1.
</event>
<event>
 7    1  0.1538805E-008  0.4614232E+02  0.7816164E-02  0.1320468E+00
        -11   -1    0    0    0    0  0.00000000000E+00  0.00000000000E+00  0.45593999997E+02  0.45594000000E+02  0.51100000000E-03 0.  1.
         11   -1    0    0    0    0 -0.00000000000E+00 -0.00000000000E+00 -0.45593999997E+02  0.45594000000E+02  0.51100000000E-03 0. -1.
    9900012    2    1    2    0    0 -0.41993796093E+02  0.13574499907E+02 -0.90203962539E+01  0.46142317559E+02  0.99999981569E+01 0.  0.
        -12    1    1    2    0    0  0.41993796093E+02 -0.13574499907E+02  0.90203962539E+01  0.45045682441E+02  0.00000000000E+00 0.  1.
         11    1    3    3    0    0 -0.96777373884E+00  0.88293554601E+00 -0.17910027184E+01  0.22189754813E+01  0.51100000000E-03 0. -1.
        -11    1    3    3    0    0 -0.18932297533E+02  0.81305970161E+01 -0.15661062197E+01  0.20663765065E+02  0.51100000000E-03 0.  1.
         12    1    3    3    0    0 -0.22093724821E+02  0.45609673447E+01 -0.56632873158E+01  0.23259577013E+02  0.00000000000E+00 0. -1.
</event>
<event>
 7    1  0.1538805E-008  0.4614232E+02  0.7816164E-02  0.1320468E+00
        -11   -1    0    0    0    0  0.00000000000E+00  0.00000000000E+00  0.45593999997E+02  0.45594000000E+02  0.51100000000E-03 0.  1.
         11   -1    0    0    0    0 -0.00000000000E+00 -0.00000000000E+00 -0.45593999997E+02  0.45594000000E+02  0.51100000000E-03 0. -1.
    9900012    2    1    2    0    0  0.37446334671E+01 -0.16594172159E+02 -0.41710005457E+02  0.46142318912E+02  0.10000010494E+02 0.  0.
        -12    1    1    2    0    0 -0.37446334671E+01  0.16594172159E+02  0.41710005457E+02  0.45045681088E+02  0.00000000000E+00 0.  1.
         11    1    3    3    0    0  0.47818326122E+01 -0.24010393975E+01 -0.11545300722E+02  0.12724970818E+02  0.51100000000E-03 0. -1.
        -11    1    3    3    0    0 -0.10572518829E+01 -0.64060754496E+01 -0.15703804861E+02  0.16993088936E+02  0.51100000000E-03 0.  1.
         12    1    3    3    0    0  0.20052737776E-01 -0.77870573117E+01 -0.14460899875E+02  0.16424259158E+02  0.00000000000E+00 0. -1.
</event>
<event>
 7    1  0.1538805E-008  0.4614232E+02  0.7816164E-02  0.1320468E+00
        -11   -1    0    0    0    0  0.00000000000E+00  0.00000000000E+00  0.45593999997E+02  0.45594000000E+02  0.51100000000E-03 0.  1.
         11   -1    0    0    0    0 -0.00000000000E+00 -0.00000000000E+00 -0.45593999997E+02  0.45594000000E+02  0.51100000000E-03 0. -1.
    9900012    2    1    2    0    0 -0.40882872670E+02 -0.16165670586E+02 -0.98170904974E+01  0.46142318197E+02  0.10000003979E+02 0.  0.
        -12    1    1    2    0    0  0.40882872670E+02  0.16165670586E+02  0.98170904974E+01  0.45045681803E+02  0.00000000000E+00 0.  1.
         11    1    3    3    0    0 -0.10855685044E+01  0.83126910430E+00  0.75259549333E+00  0.15607266062E+01  0.51100000000E-03 0.  1.
        -11    1    3    3    0    0 -0.25019123748E+02 -0.10999205345E+02 -0.74916994573E+01  0.28338395021E+02  0.51100000000E-03 0. -1.
        -12    1    3    3    0    0 -0.14778180417E+02 -0.59977343455E+01 -0.30779865334E+01  0.16243196570E+02  0.00000000000E+00 0.  1.
</event>
<event>
 7    1  0.1538805E-008  0.4614232E+02  0.7816164E-02  0.1320468E+00
        -11   -1    0    0    0    0  0.00000000000E+00  0.00000000000E+00  0.45593999997E+02  0.45594000000E+02  0.51100000000E-03 0. -1.
         11   -1    0    0    0    0 -0.00000000000E+00 -0.00000000000E+00 -0.45593999997E+02  0.45594000000E+02  0.51100000000E-03 0.  1.
    9900012    2    1    2    0    0  0.16629321501E+02 -0.55727721985E+01  0.41491243932E+02  0.46142318225E+02  0.10000004230E+02 0.  0.
        -12    1    1    2    0    0 -0.16629321501E+02  0.55727721985E+01 -0.41491243932E+02  0.45045681775E+02  0.00000000000E+00 0.  1.
         11    1    3    3    0    0  0.87843406464E+01  0.48196491532E+00  0.14855105997E+02  0.17264735886E+02  0.51100000000E-03 0. -1.
        -11    1    3    3    0    0  0.58646872244E+01 -0.59422357905E+01  0.15889155241E+02  0.17949094043E+02  0.51100000000E-03 0.  1.
        -12    1    3    3    0    0  0.19802936303E+01 -0.11250132339E+00  0.10746982695E+02  0.10928488297E+02  0.00000000000E+00 0.  1.
</event>
<event>
 7    1  0.1538805E-008  0.4614232E+02  0.7816164E-02  0.1320468E+00
        -11   -1    0    0    0    0  0.00000000000E+00  0.00000000000E+00  0.45593999997E+02  0.45594000000E+02  0.51100000000E-03 0.  1.
         11   -1    0    0    0    0 -0.00000000000E+00 -0.00000000000E+00 -0.45593999997E+02  0.45594000000E+02  0.51100000000E-03 0. -1.
    9900012    2    1    2    0    0  0.37159762186E+02 -0.18254542067E+02 -0.17749288925E+02  0.46142317753E+02  0.99999999244E+01 0.  0.
        -12    1    1    2    0    0 -0.37159762186E+02  0.18254542067E+02  0.17749288925E+02  0.45045682247E+02  0.00000000000E+00 0.  1.
         11    1    3    3    0    0  0.12860120825E+02 -0.36318567226E+01 -0.71903667725E+01  0.15174797048E+02  0.51100000000E-03 0. -1.
        -11    1    3    3    0    0  0.50134734512E+01 -0.10166537854E+01 -0.11642477524E-01  0.51155289828E+01  0.51100000000E-03 0.  1.
         12    1    3    3    0    0  0.19286167910E+02 -0.13606031559E+02 -0.10547279675E+02  0.25851991722E+02  0.00000000000E+00 0. -1.
</event>
<event>
 7    1  0.1538805E-008  0.4614232E+02  0.7816164E-02  0.1320468E+00
        -11   -1    0    0    0    0  0.00000000000E+00  0.00000000000E+00  0.45593999997E+02  0.45594000000E+02  0.51100000000E-03 0. -1.
         11   -1    0    0    0    0 -0.00000000000E+00 -0.00000000000E+00 -0.45593999997E+02  0.45594000000E+02  0.51100000000E-03 0.  1.
    9900012    2    1    2    0    0 -0.36338516565E+02  0.25066416105E+02  0.89610533869E+01  0.46142317851E+02  0.10000000815E+02 0.  0.
        -12    1    1    2    0    0  0.36338516565E+02 -0.25066416105E+02 -0.89610533869E+01  0.45045682149E+02  0.00000000000E+00 0.  1.
         11    1    3    3    0    0 -0.29081064919E+02  0.18415221590E+02  0.79299226830E+01  0.35322972653E+02  0.51100000000E-03 0. -1.
        -11    1    3    3    0    0 -0.36982912801E+01  0.38591331093E+01  0.27116997452E+01  0.59936284934E+01  0.51100000000E-03 0.  1.
         12    1    3    3    0    0 -0.35591603659E+01  0.27920614057E+01 -0.16805690413E+01  0.48257167038E+01  0.00000000000E+00 0. -1.
</event>
<event>
 7    1  0.1538805E-008  0.4614232E+02  0.7816164E-02  0.1320468E+00
        -11   -1    0    0    0    0  0.00000000000E+00  0.00000000000E+00  0.45593999997E+02  0.45594000000E+02  0.51100000000E-03 0. -1.
         11   -1    0    0    0    0 -0.00000000000E+00 -0.00000000000E+00 -0.45593999997E+02  0.45594000000E+02  0.51100000000E-03 0.  1.
    9900012    2    1    2    0    0 -0.11081998039E+02  0.42821649221E+00  0.43659130611E+02  0.46142315017E+02  0.99999749739E+01 0.  0.
        -12    1    1    2    0    0  0.11081998039E+02 -0.42821649221E+00 -0.43659130611E+02  0.45045684983E+02  0.00000000000E+00 0.  1.
         11    1    3    3    0    0 -0.89768366692E+01 -0.16317005177E+01  0.39727552853E+02  0.40761801961E+02  0.51100000000E-03 0. -1.
        -11    1    3    3    0    0 -0.11763784440E+01  0.23088236119E+01  0.34216489697E+01  0.42921107451E+01  0.51100000000E-03 0.  1.
         12    1    3    3    0    0 -0.92878292620E+00 -0.24890660206E+00  0.50992878833E+00  0.10884023106E+01  0.00000000000E+00 0. -1.
</event>
<event>
 7    1  0.1538805E-008  0.4614232E+02  0.7816164E-02  0.1320468E+00
        -11   -1    0    0    0    0  0.00000000000E+00  0.00000000000E+00  0.45593999997E+02  0.45594000000E+02  0.51100000000E-03 0.  1.
         11   -1    0    0    0    0 -0.00000000000E+00 -0.00000000000E+00 -0.45593999997E+02  0.45594000000E+02  0.51100000000E-03 0. -1.
    9900012    2    1    2    0    0 -0.11403192163E+02 -0.87807248139E+01 -0.42684652725E+02  0.46142317654E+02  0.99999990191E+01 0.  0.
        -12    1    1    2    0    0  0.11403192163E+02  0.87807248139E+01  0.42684652725E+02  0.45045682346E+02  0.00000000000E+00 0.  1.
         11    1    3    3    0    0 -0.30824301572E+01 -0.53507416855E+00 -0.11377546016E+02  0.11799840408E+02  0.51100000000E-03 0. -1.
        -11    1    3    3    0    0  0.12226084445E+00  0.12381013228E+01 -0.15357948016E+01  0.19764889409E+01  0.51100000000E-03 0.  1.
        -12    1    3    3    0    0 -0.84430228504E+01 -0.94837519681E+01 -0.29771311908E+02  0.32365988305E+02  0.00000000000E+00 0.  1.
</event>
<event>
 7    1  0.1538805E-008  0.4614232E+02  0.7816164E-02  0.1320468E+00
        -11   -1    0    0    0    0  0.00000000000E+00  0.00000000000E+00  0.45593999997E+02  0.45594000000E+02  0.51100000000E-03 0.  1.
         11   -1    0    0    0    0 -0.00000000000E+00 -0.00000000000E+00 -0.45593999997E+02  0.45594000000E+02  0.51100000000E-03 0. -1.
    9900012    2    1    2    0    0  0.36856632062E+02 -0.73955162253E+01 -0.24819516802E+02  0.46142318726E+02  0.10000008798E+02 0.  0.
        -12    1    1    2    0    0 -0.36856632062E+02  0.73955162253E+01  0.24819516802E+02  0.45045681274E+02  0.00000000000E+00 0.  1.
         11    1    3    3    0    0  0.22924622042E+02 -0.51246202372E+01 -0.20288921981E+02  0.31039336072E+02  0.51100000000E-03 0. -1.
        -11    1    3    3    0    0  0.12825302853E+00 -0.46869853017E+00 -0.12838353424E+00  0.50260296905E+00  0.51100000000E-03 0.  1.
         12    1    3    3    0    0  0.13803756991E+02 -0.18021974580E+01 -0.44022112866E+01  0.14600379685E+02  0.00000000000E+00 0. -1.
</event>
<event>
 7    1  0.1538805E-008  0.4614232E+02  0.7816164E-02  0.1320468E+00
        -11   -1    0    0    0    0  0.00000000000E+00  0.00000000000E+00  0.45593999997E+02  0.45594000000E+02  0.51100000000E-03 0.  1.
         11   -1    0    0    0    0 -0.00000000000E+00 -0.00000000000E+00 -0.45593999997E+02  0.45594000000E+02  0.51100000000E-03 0. -1.
    9900012    2    1    2    0    0  0.45709466427E+01  0.13731307469E+02 -0.42657603854E+02  0.46142317359E+02  0.99999963319E+01 0.  0.
        -12    1    1    2    0    0 -0.45709466427E+01 -0.13731307469E+02  0.42657603854E+02  0.45045682641E+02  0.00000000000E+00 0.  1.
         11    1    3    3    0    0  0.44280317610E+01  0.44962717502E+01 -0.15193908502E+02  0.16452318400E+02  0.51100000000E-03 0. -1.
        -11    1    3    3    0    0 -0.29301669225E+00  0.31098501814E+01 -0.25547922373E+01  0.40353426830E+01  0.51100000000E-03 0.  1.
         12    1    3    3    0    0  0.43593157403E+00  0.61251855370E+01 -0.24908903115E+02  0.25654656275E+02  0.00000000000E+00 0. -1.
</event>
<event>
 7    1  0.1538805E-008  0.4614232E+02  0.7816164E-02  0.1320468E+00
        -11   -1    0    0    0    0  0.00000000000E+00  0.00000000000E+00  0.45593999997E+02  0.45594000000E+02  0.51100000000E-03 0.  1.
         11   -1    0    0    0    0 -0.00000000000E+00 -0.00000000000E+00 -0.45593999997E+02  0.45594000000E+02  0.51100000000E-03 0. -1.
    9900012    2    1    2    0    0 -0.28661550759E+02 -0.19141810225E+01 -0.34698196989E+02  0.46142318130E+02  0.10000003360E+02 0.  0.
        -12    1    1    2    0    0  0.28661550759E+02  0.19141810225E+01  0.34698196989E+02  0.45045681870E+02  0.00000000000E+00 0.  1.
         11    1    3    3    0    0 -0.10460864146E+02 -0.24099607554E+01 -0.10517808020E+02  0.15028701718E+02  0.51100000000E-03 0. -1.
        -11    1    3    3    0    0 -0.36885822577E+01 -0.25722492585E+01 -0.36848706931E+01  0.58138092165E+01  0.51100000000E-03 0.  1.
        -12    1    3    3    0    0 -0.14512104355E+02  0.30680289914E+01 -0.20495518276E+02  0.25299807195E+02  0.00000000000E+00 0.  1.
</event>
<event>
 7    1  0.1538805E-008  0.4614232E+02  0.7816164E-02  0.1320468E+00
        -11   -1    0    0    0    0  0.00000000000E+00  0.00000000000E+00  0.45593999997E+02  0.45594000000E+02  0.51100000000E-03 0.  1.
         11   -1    0    0    0    0 -0.00000000000E+00 -0.00000000000E+00 -0.45593999997E+02  0.45594000000E+02  0.51100000000E-03 0. -1.
    9900012    2    1    2    0    0  0.28197748083E+02 -0.21464852890E+02 -0.27807564171E+02  0.46142317280E+02  0.99999956158E+01 0.  0.
        -12    1    1    2    0    0 -0.28197748083E+02  0.21464852890E+02  0.27807564171E+02  0.45045682720E+02  0.00000000000E+00 0.  1.
         11    1    3    3    0    0  0.15066467084E+02 -0.58597419123E+01 -0.13415336627E+02  0.21007290705E+02  0.51100000000E-03 0. -1.
        -11    1    3    3    0    0  0.32805153696E+01 -0.25856395115E+01 -0.39906396333E+01  0.57768951624E+01  0.51100000000E-03 0.  1.
         12    1    3    3    0    0  0.98507656291E+01 -0.13019471466E+02 -0.10401587911E+02  0.19358131413E+02  0.00000000000E+00 0. -1.
</event>
<event>
 7    1  0.1538805E-008  0.4614232E+02  0.7816164E-02  0.1320468E+00
        -11   -1    0    0    0    0  0.00000000000E+00  0.00000000000E+00  0.45593999997E+02  0.45594000000E+02  0.51100000000E-03 0.  1.
         11   -1    0    0    0    0 -0.00000000000E+00 -0.00000000000E+00 -0.45593999997E+02  0.45594000000E+02  0.51100000000E-03 0. -1.
    9900012    2    1    2    0    0 -0.33239424083E+02 -0.16516350153E+02 -0.25523801111E+02  0.46142316978E+02  0.99999928621E+01 0.  0.
        -12    1    1    2    0    0  0.33239424083E+02  0.16516350153E+02  0.25523801111E+02  0.45045683022E+02  0.00000000000E+00 0.  1.
         11    1    3    3    0    0 -0.39654868400E+01 -0.37617833761E+01 -0.21350132047E+01  0.58680816024E+01  0.51100000000E-03 0. -1.
        -11    1    3    3    0    0 -0.16164869432E+02 -0.50873734148E+01 -0.83142069463E+01  0.18876186305E+02  0.51100000000E-03 0.  1.
        -12    1    3    3    0    0 -0.13109067811E+02 -0.76671933626E+01 -0.15074580960E+02  0.21398049071E+02  0.00000000000E+00 0.  1.
</event>
<event>
 7    1  0.1538805E-008  0.4614231E+02  0.7816164E-02  0.1320468E+00
        -11   -1    0    0    0    0  0.00000000000E+00  0.00000000000E+00  0.45593999997E+02  0.45594000000E+02  0.51100000000E-03 0. -1.
         11   -1    0    0    0    0 -0.00000000000E+00 -0.00000000000E+00 -0.45593999997E+02  0.45594000000E+02  0.51100000000E-03 0.  1.
    9900012    2    1    2    0    0 -0.30997089491E+02 -0.96291842650E+01  0.31234169886E+02  0.46142310806E+02  0.99999365771E+01 0.  0.
        -12    1    1    2    0    0  0.30997089491E+02  0.96291842650E+01 -0.31234169886E+02  0.45045689194E+02  0.00000000000E+00 0.  1.
         11    1    3    3    0    0 -0.22286325142E+02 -0.35083137014E+01  0.19428497430E+02  0.29773395272E+02  0.51100000000E-03 0. -1.
        -11    1    3    3    0    0 -0.29885753467E+01 -0.39334710170E+01  0.35258139273E+01  0.60691960716E+01  0.51100000000E-03 0.  1.
         12    1    3    3    0    0 -0.57221890019E+01 -0.21873995465E+01  0.82798585289E+01  0.10299719463E+02  0.00000000000E+00 0. -1.
</event>
<event>
 7    1  0.1538805E-008  0.4614232E+02  0.7816164E-02  0.1320468E+00
        -11   -1    0    0    0    0  0.00000000000E+00  0.00000000000E+00  0.45593999997E+02  0.45594000000E+02  0.51100000000E-03 0. -1.
         11   -1    0    0    0    0 -0.00000000000E+00 -0.00000000000E+00 -0.45593999997E+02  0.45594000000E+02  0.51100000000E-03 0.  1.
    9900012    2    1    2    0    0 -0.10783367569E+02 -0.42929078335E+02 -0.83622169892E+01  0.46142318122E+02  0.10000003294E+02 0.  0.
        -12    1    1    2    0    0  0.10783367569E+02  0.42929078335E+02  0.83622169892E+01  0.45045681878E+02  0.00000000000E+00 0.  1.
         11    1    3    3    0    0 -0.13827786238E+01 -0.98000771530E+01 -0.17806680662E+01  0.10056061254E+02  0.51100000000E-03 0. -1.
        -11    1    3    3    0    0 -0.15893309015E+01 -0.54198244214E+00  0.65712568523E+00  0.18032005183E+01  0.51100000000E-03 0.  1.
        -12    1    3    3    0    0 -0.78112580435E+01 -0.32587018740E+02 -0.72386746083E+01  0.34283056350E+02  0.00000000000E+00 0.  1.
</event>
<event>
 7    1  0.1538805E-008  0.4614232E+02  0.7816164E-02  0.1320468E+00
        -11   -1    0    0    0    0  0.00000000000E+00  0.00000000000E+00  0.45593999997E+02  0.45594000000E+02  0.51100000000E-03 0.  1.
         11   -1    0    0    0    0 -0.00000000000E+00 -0.00000000000E+00 -0.45593999997E+02  0.45594000000E+02  0.51100000000E-03 0. -1.
    9900012    2    1    2    0    0 -0.21938807013E+02 -0.27967421747E+02 -0.27669940377E+02  0.46142317267E+02  0.99999954970E+01 0.  0.
        -12    1    1    2    0    0  0.21938807013E+02  0.27967421747E+02  0.27669940377E+02  0.45045682733E+02  0.00000000000E+00 0.  1.
         11    1    3    3    0    0 -0.13029458107E+02 -0.10050133728E+02 -0.11220383750E+02  0.19916550361E+02  0.51100000000E-03 0. -1.
        -11    1    3    3    0    0 -0.89911901945E+01 -0.16936228711E+02 -0.16413808842E+02  0.25240651042E+02  0.51100000000E-03 0.  1.
        -12    1    3    3    0    0  0.81841287832E-01 -0.98105930812E+00 -0.35747785330E-01  0.98511586456E+00  0.00000000000E+00 0.  1.
</event>
<event>
 7    1  0.1538805E-008  0.4614232E+02  0.7816164E-02  0.1320468E+00
        -11   -1    0    0    0    0  0.00000000000E+00  0.00000000000E+00  0.45593999997E+02  0.45594000000E+02  0.51100000000E-03 0.  1.
         11   -1    0    0    0    0 -0.00000000000E+00 -0.00000000000E+00 -0.45593999997E+02  0.45594000000E+02  0.51100000000E-03 0. -1.
    9900012    2    1    2    0    0 -0.24273444961E+02  0.36306678554E+02 -0.11033512932E+02  0.46142318237E+02  0.10000004335E+02 0.  0.
        -12    1    1    2    0    0  0.24273444961E+02 -0.36306678554E+02  0.11033512932E+02  0.45045681763E+02  0.00000000000E+00 0.  1.
         11    1    3    3    0    0 -0.21026069942E+02  0.29839953495E+02 -0.70546466983E+01  0.37179113520E+02  0.51100000000E-03 0. -1.
        -11    1    3    3    0    0  0.69459624956E+00  0.45997097025E+00 -0.25781251067E+00  0.87206926053E+00  0.51100000000E-03 0.  1.
        -12    1    3    3    0    0 -0.39419712687E+01  0.60067540886E+01 -0.37210537226E+01  0.80911354562E+01  0.00000000000E+00 0.  1.
</event>
<event>
 7    1  0.1538805E-008  0.4614232E+02  0.7816164E-02  0.1320468E+00
        -11   -1    0    0    0    0  0.00000000000E+00  0.00000000000E+00  0.45593999997E+02  0.45594000000E+02  0.51100000000E-03 0. -1.
         11   -1    0    0    0    0 -0.00000000000E+00 -0.00000000000E+00 -0.45593999997E+02  0.45594000000E+02  0.51100000000E-03 0.  1.
    9900012    2    1    2    0    0  0.23138464678E+01 -0.27763906903E+02  0.35396681630E+02  0.46142317827E+02  0.10000000603E+02 0.  0.
        -12    1    1    2    0    0 -0.23138464678E+01  0.27763906903E+02 -0.35396681630E+02  0.45045682173E+02  0.00000000000E+00 0.  1.
         11    1    3    3    0    0  0.31984864489E+01 -0.22627344044E+02  0.23689636957E+02  0.32915435794E+02  0.51100000000E-03 0. -1.
        -11    1    3    3    0    0 -0.15584149989E+01 -0.27755989216E+01  0.91231340672E+01  0.96625142769E+01  0.51100000000E-03 0.  1.
        -12    1    3    3    0    0  0.67377501785E+00 -0.23609639372E+01  0.25839106058E+01  0.35643677568E+01  0.00000000000E+00 0.  1.
</event>
<event>
 7    1  0.1538805E-008  0.4614232E+02  0.7816164E-02  0.1320468E+00
        -11   -1    0    0    0    0  0.00000000000E+00  0.00000000000E+00  0.45593999997E+02  0.45594000000E+02  0.51100000000E-03 0. -1.
         11   -1    0    0    0    0 -0.00000000000E+00 -0.00000000000E+00 -0.45593999997E+02  0.45594000000E+02  0.51100000000E-03 0.  1.
    9900012    2    1    2    0    0 -0.18763666310E+02 -0.23320311103E+02  0.33663056242E+02  0.46142318311E+02  0.10000005010E+02 0.  0.
        -12    1    1    2    0    0  0.18763666310E+02  0.23320311103E+02 -0.33663056242E+02  0.45045681689E+02  0.00000000000E+00 0.  1.
         11    1    3    3    0    0 -0.30876434788E+01 -0.15793187846E+01  0.28789489587E+01  0.45073426144E+01  0.51100000000E-03 0. -1.
        -11    1    3    3    0    0 -0.14730982880E+00  0.65737430341E+00  0.28252197245E+00  0.73052042167E+00  0.51100000000E-03 0.  1.
         12    1    3    3    0    0 -0.15528713002E+02 -0.22398366622E+02  0.30501585311E+02  0.40904455274E+02  0.00000000000E+00 0. -1.
</event>
<event>
 7    1  0.1538805E-008  0.4614232E+02  0.7816164E-02  0.1320468E+00
        -11   -1    0    0    0    0  0.00000000000E+00  0.00000000000E+00  0.45593999997E+02  0.45594000000E+02  0.51100000000E-03 0.  1.
         11   -1    0    0    0    0 -0.00000000000E+00 -0.00000000000E+00 -0.45593999997E+02  0.45594000000E+02  0.51100000000E-03 0. -1.
    9900012    2    1    2    0    0 -0.62894238908E+01  0.33453924238E+01 -0.44478814788E+02  0.46142317983E+02  0.10000002028E+02 0.  0.
        -12    1    1    2    0    0  0.62894238908E+01 -0.33453924238E+01  0.44478814788E+02  0.45045682017E+02  0.00000000000E+00 0.  1.
         11    1    3    3    0    0 -0.34763879064E+01  0.16885888339E+00 -0.14485538619E+02  0.14897805729E+02  0.51100000000E-03 0. -1.
        -11    1    3    3    0    0 -0.54598926751E+01  0.21781814493E+01 -0.18690429292E+02  0.19593035748E+02  0.51100000000E-03 0.  1.
         12    1    3    3    0    0  0.26468566906E+01  0.99835209118E+00 -0.11302846878E+02  0.11651476507E+02  0.00000000000E+00 0. -1.
</event>
<event>
 7    1  0.1538805E-008  0.4614232E+02  0.7816164E-02  0.1320468E+00
        -11   -1    0    0    0    0  0.00000000000E+00  0.00000000000E+00  0.45593999997E+02  0.45594000000E+02  0.51100000000E-03 0.  1.
         11   -1    0    0    0    0 -0.00000000000E+00 -0.00000000000E+00 -0.45593999997E+02  0.45594000000E+02  0.51100000000E-03 0. -1.
    9900012    2    1    2    0    0 -0.21882172975E+02 -0.32600226486E+02  0.22079608676E+02  0.46142318960E+02  0.10000010934E+02 0.  0.
        -12    1    1    2    0    0  0.21882172975E+02  0.32600226486E+02 -0.22079608676E+02  0.45045681040E+02  0.00000000000E+00 0.  1.
         11    1    3    3    0    0 -0.20964301534E+01 -0.61398152495E+01  0.50013982640E+01  0.81918456737E+01  0.51100000000E-03 0. -1.
        -11    1    3    3    0    0 -0.14853589912E+02 -0.17400047244E+02  0.15195056950E+02  0.27464168171E+02  0.51100000000E-03 0.  1.
        -12    1    3    3    0    0 -0.49321529095E+01 -0.90603639926E+01  0.18831534619E+01  0.10486305115E+02  0.00000000000E+00 0.  1.
</event>
<event>
 7    1  0.1538805E-008  0.4614232E+02  0.7816164E-02  0.1320468E+00
        -11   -1    0    0    0    0  0.00000000000E+00  0.00000000000E+00  0.45593999997E+02  0.45594000000E+02  0.51100000000E-03 0. -1.
         11   -1    0    0    0    0 -0.00000000000E+00 -0.00000000000E+00 -0.45593999997E+02  0.45594000000E+02  0.51100000000E-03 0.  1.
    9900012    2    1    2    0    0 -0.29690797996E+02 -0.32721160839E+02  0.87690139198E+01  0.46142318104E+02  0.10000003130E+02 0.  0.
        -12    1    1    2    0    0  0.29690797996E+02  0.32721160839E+02 -0.87690139198E+01  0.45045681896E+02  0.00000000000E+00 0.  1.
         11    1    3    3    0    0 -0.84785872608E+01 -0.68041585602E+01  0.42057278484E+01  0.11656378625E+02  0.51100000000E-03 0. -1.
        -11    1    3    3    0    0 -0.15141516247E+02 -0.21779398283E+02  0.54694647349E+01  0.27083625100E+02  0.51100000000E-03 0.  1.
        -12    1    3    3    0    0 -0.60706944881E+01 -0.41376039964E+01 -0.90617866354E+00  0.74023143793E+01  0.00000000000E+00 0.  1.
</event>
<event>
 7    1  0.1538805E-008  0.4614232E+02  0.7816164E-02  0.1320468E+00
        -11   -1    0    0    0    0  0.00000000000E+00  0.00000000000E+00  0.45593999997E+02  0.45594000000E+02  0.51100000000E-03 0. -1.
         11   -1    0    0    0    0 -0.00000000000E+00 -0.00000000000E+00 -0.45593999997E+02  0.45594000000E+02  0.51100000000E-03 0.  1.
    9900012    2    1    2    0    0 -0.13736377078E+02 -0.35553534664E+02  0.24007741766E+02  0.46142317109E+02  0.99999940568E+01 0.  0.
        -12    1    1    2    0    0  0.13736377078E+02  0.35553534664E+02 -0.24007741766E+02  0.45045682891E+02  0.00000000000E+00 0.  1.
         11    1    3    3    0    0 -0.12794880109E+02 -0.28580784403E+02  0.17703761674E+02  0.35972119367E+02  0.51100000000E-03 0. -1.
        -11    1    3    3    0    0 -0.20372480875E+01 -0.42049310095E+01  0.52110944239E+01  0.69990949358E+01  0.51100000000E-03 0.  1.
        -12    1    3    3    0    0  0.10957511182E+01 -0.27678192519E+01  0.10928856680E+01  0.31711028062E+01  0.00000000000E+00 0.  1.
</event>
<event>
 7    1  0.1538805E-008  0.4614232E+02  0.7816164E-02  0.1320468E+00
        -11   -1    0    0    0    0  0.00000000000E+00  0.00000000000E+00  0.45593999997E+02  0.45594000000E+02  0.51100000000E-03 0.  1.
         11   -1    0    0    0    0 -0.00000000000E+00 -0.00000000000E+00 -0.45593999997E+02  0.45594000000E+02  0.51100000000E-03 0. -1.
    9900012    2    1    2    0    0 -0.24673101204E+02  0.19344994982E+02 -0.32343821412E+02  0.46142317217E+02  0.99999950377E+01 0.  0.
        -12    1    1    2    0    0  0.24673101204E+02 -0.19344994982E+02  0.32343821412E+02  0.45045682783E+02  0.00000000000E+00 0.  1.
         11    1    3    3    0    0 -0.84573964130E+01  0.12744279664E+02 -0.14425524792E+02  0.21024746943E+02  0.51100000000E-03 0. -1.
        -11    1    3    3    0    0 -0.10587440522E+02  0.36205820412E+01 -0.10553742444E+02  0.15381287038E+02  0.51100000000E-03 0.  1.
         12    1    3    3    0    0 -0.56282642695E+01  0.29801332767E+01 -0.73645541756E+01  0.97362832353E+01  0.00000000000E+00 0. -1.
</event>
<event>
 7    1  0.1538805E-008  0.4614232E+02  0.7816164E-02  0.1320468E+00
        -11   -1    0    0    0    0  0.00000000000E+00  0.00000000000E+00  0.45593999997E+02  0.45594000000E+02  0.51100000000E-03 0.  1.
         11   -1    0    0    0    0 -0.00000000000E+00 -0.00000000000E+00 -0.45593999997E+02  0.45594000000E+02  0.51100000000E-03 0. -1.
    9900012    2    1    2    0    0 -0.90603386191E+01 -0.81873249911E+01 -0.43358868666E+02  0.46142317428E+02  0.99999969631E+01 0.  0.
        -12    1    1    2    0    0  0.90603386191E+01  0.81873249911E+01  0.43358868666E+02  0.45045682572E+02  0.00000000000E+00 0.  1.
         11    1    3    3    0    0 -0.46120998297E+01 -0.30562188019E+01 -0.22354707311E+02  0.23029217907E+02  0.51100000000E-03 0. -1.
        -11    1    3    3    0    0 -0.38428145615E+01 -0.20664484484E+01 -0.18775234063E+02  0.19275550507E+02  0.51100000000E-03 0.  1.
        -12    1    3    3    0    0 -0.60542422799E+00 -0.30646577409E+01 -0.22289272914E+01  0.38375490140E+01  0.00000000000E+00 0.  1.
</event>
<event>
 7    1  0.1538805E-008  0.4614232E+02  0.7816164E-02  0.1320468E+00
        -11   -1    0    0    0    0  0.00000000000E+00  0.00000000000E+00  0.45593999997E+02  0.45594000000E+02  0.51100000000E-03 0.  1.
         11   -1    0    0    0    0 -0.00000000000E+00 -0.00000000000E+00 -0.45593999997E+02  0.45594000000E+02  0.51100000000E-03 0. -1.
    9900012    2    1    2    0    0 -0.27421205897E+02  0.30957333031E+02 -0.17855938592E+02  0.46142317141E+02  0.99999943437E+01 0.  0.
        -12    1    1    2    0    0  0.27421205897E+02 -0.30957333031E+02  0.17855938592E+02  0.45045682859E+02  0.00000000000E+00 0.  1.
         11    1    3    3    0    0 -0.73310344308E+01  0.47486060263E+01 -0.43458566879E+01  0.97560133062E+01  0.51100000000E-03 0. -1.
        -11    1    3    3    0    0 -0.11324579271E+01 -0.30181585724E+00 -0.23704864615E+00  0.11957199045E+01  0.51100000000E-03 0.  1.
         12    1    3    3    0    0 -0.18957713540E+02  0.26510542862E+02 -0.13273033258E+02  0.35190583930E+02  0.00000000000E+00 0. -1.
</event>
<event>
 7    1  0.1538805E-008  0.4614232E+02  0.7816164E-02  0.1320468E+00
        -11   -1    0    0    0    0  0.00000000000E+00  0.00000000000E+00  0.45593999997E+02  0.45594000000E+02  0.51100000000E-03 0.  1.
         11   -1    0    0    0    0 -0.00000000000E+00 -0.00000000000E+00 -0.45593999997E+02  0.45594000000E+02  0.51100000000E-03 0. -1.
    9900012    2    1    2    0    0 -0.15922798287E+02  0.34663950981E+01 -0.41994786964E+02  0.46142317272E+02  0.99999955405E+01 0.  0.
        -12    1    1    2    0    0  0.15922798287E+02 -0.34663950981E+01  0.41994786964E+02  0.45045682728E+02  0.00000000000E+00 0.  1.
         11    1    3    3    0    0 -0.79695592107E+01  0.48511629375E+01 -0.14152691928E+02  0.16951293312E+02  0.51100000000E-03 0. -1.
        -11    1    3    3    0    0 -0.55166579843E+01 -0.25371374428E+01 -0.19670528418E+02  0.20586409843E+02  0.51100000000E-03 0.  1.
        -12    1    3    3    0    0 -0.24365810922E+01  0.11523696034E+01 -0.81715666181E+01  0.86046141178E+01  0.00000000000E+00 0.  1.
</event>
<event>
 7    1  0.1538805E-008  0.4614232E+02  0.7816164E-02  0.1320468E+00
        -11   -1    0    0    0    0  0.00000000000E+00  0.00000000000E+00  0.45593999997E+02  0.45594000000E+02  0.51100000000E-03 0. -1.
         11   -1    0    0    0    0 -0.00000000000E+00 -0.00000000000E+00 -0.45593999997E+02  0.45594000000E+02  0.51100000000E-03 0.  1.
    9900012    2    1    2    0    0 -0.27870626255E+02 -0.16371949698E+02  0.31373571760E+02  0.46142317080E+02  0.99999937857E+01 0.  0.
        -12    1    1    2    0    0  0.27870626255E+02  0.16371949698E+02 -0.31373571760E+02  0.45045682920E+02  0.00000000000E+00 0.  1.
         11    1    3    3    0    0 -0.11995490995E+02 -0.71573104199E+01  0.11314465611E+02  0.17975984785E+02  0.51100000000E-03 0. -1.
        -11    1    3    3    0    0 -0.13167909743E+02 -0.38930392829E+01  0.15049381935E+02  0.20372370965E+02  0.51100000000E-03 0.  1.
        -12    1    3    3    0    0 -0.27072255178E+01 -0.53215999948E+01  0.50097242139E+01  0.77939613297E+01  0.00000000000E+00 0.  1.
</event>
<event>
 7    1  0.1538805E-008  0.4614232E+02  0.7816164E-02  0.1320468E+00
        -11   -1    0    0    0    0  0.00000000000E+00  0.00000000000E+00  0.45593999997E+02  0.45594000000E+02  0.51100000000E-03 0.  1.
         11   -1    0    0    0    0 -0.00000000000E+00 -0.00000000000E+00 -0.45593999997E+02  0.45594000000E+02  0.51100000000E-03 0. -1.
    9900012    2    1    2    0    0 -0.20164652434E+02  0.11860951544E+02 -0.38494390443E+02  0.46142317911E+02  0.10000001367E+02 0.  0.
        -12    1    1    2    0    0  0.20164652434E+02 -0.11860951544E+02  0.38494390443E+02  0.45045682089E+02  0.00000000000E+00 0.  1.
         11    1    3    3    0    0 -0.11346055766E+01  0.14361562618E+00 -0.17748181668E+01  0.21113822603E+01  0.51100000000E-03 0. -1.
        -11    1    3    3    0    0 -0.91091890444E+01  0.11094051763E+02 -0.22036526768E+02  0.26299502312E+02  0.51100000000E-03 0.  1.
        -12    1    3    3    0    0 -0.99208578127E+01  0.62328415425E+00 -0.14683045507E+02  0.17731433339E+02  0.00000000000E+00 0.  1.
</event>
<event>
 7    1  0.1538805E-008  0.4614232E+02  0.7816164E-02  0.1320468E+00
        -11   -1    0    0    0    0  0.00000000000E+00  0.00000000000E+00  0.45593999997E+02  0.45594000000E+02  0.51100000000E-03 0.  1.
         11   -1    0    0    0    0 -0.00000000000E+00 -0.00000000000E+00 -0.45593999997E+02  0.45594000000E+02  0.51100000000E-03 0. -1.
    9900012    2    1    2    0    0 -0.16481355235E+02  0.27752545437E+02 -0.31420928408E+02  0.46142316626E+02  0.99999896500E+01 0.  0.
        -12    1    1    2    0    0  0.16481355235E+02 -0.27752545437E+02  0.31420928408E+02  0.45045683374E+02  0.00000000000E+00 0.  1.
         11    1    3    3    0    0 -0.15956844091E+02  0.19902576348E+02 -0.26771200076E+02  0.36978785437E+02  0.51100000000E-03 0. -1.
        -11    1    3    3    0    0 -0.15201712905E-01  0.50117525394E+01 -0.30178452031E+01  0.58502379900E+01  0.51100000000E-03 0.  1.
         12    1    3    3    0    0 -0.50930943085E+00  0.28382165488E+01 -0.16318831293E+01  0.33132931989E+01  0.00000000000E+00 0. -1.
</event>
<event>
 7    1  0.1538805E-008  0.4614232E+02  0.7816164E-02  0.1320468E+00
        -11   -1    0    0    0    0  0.00000000000E+00  0.00000000000E+00  0.45593999997E+02  0.45594000000E+02  0.51100000000E-03 0.  1.
         11   -1    0    0    0    0 -0.00000000000E+00 -0.00000000000E+00 -0.45593999997E+02  0.45594000000E+02  0.51100000000E-03 0. -1.
    9900012    2    1    2    0    0 -0.33971972202E+02 -0.35013588120E+01 -0.29372760639E+02  0.46142317894E+02  0.10000001208E+02 0.  0.
        -12    1    1    2    0    0  0.33971972202E+02  0.35013588120E+01  0.29372760639E+02  0.45045682106E+02  0.00000000000E+00 0.  1.
         11    1    3    3    0    0 -0.32920353174E+01 -0.58944976758E+00 -0.26525777007E+01  0.42686199502E+01  0.51100000000E-03 0. -1.
        -11    1    3    3    0    0 -0.41404785807E+01 -0.17517459683E+01 -0.86405713700E+01  0.97402079380E+01  0.51100000000E-03 0.  1.
        -12    1    3    3    0    0 -0.26539458304E+02 -0.11601630762E+01 -0.18079611569E+02  0.32133490005E+02  0.00000000000E+00 0.  1.
</event>
<event>
 7    1  0.1538805E-008  0.4614232E+02  0.7816164E-02  0.1320468E+00
        -11   -1    0    0    0    0  0.00000000000E+00  0.00000000000E+00  0.45593999997E+02  0.45594000000E+02  0.51100000000E-03 0.  1.
         11   -1    0    0    0    0 -0.00000000000E+00 -0.00000000000E+00 -0.45593999997E+02  0.45594000000E+02  0.51100000000E-03 0. -1.
    9900012    2    1    2    0    0  0.41281106086E+02  0.40336343761E+01 -0.17570235357E+02  0.46142322111E+02  0.10000039664E+02 0.  0.
        -12    1    1    2    0    0 -0.41281106086E+02 -0.40336343761E+01  0.17570235357E+02  0.45045677889E+02  0.00000000000E+00 0.  1.
         11    1    3    3    0    0  0.68919981924E+01  0.60692270554E+00 -0.41578198740E+01  0.80718932488E+01  0.51100000000E-03 0. -1.
        -11    1    3    3    0    0  0.22320486649E+02 -0.13175972303E+01 -0.60710661751E+01  0.23168902250E+02  0.51100000000E-03 0.  1.
        -12    1    3    3    0    0  0.12068621245E+02  0.47443089008E+01 -0.73413493081E+01  0.14901526612E+02  0.00000000000E+00 0.  1.
</event>
<event>
 7    1  0.1538805E-008  0.4614232E+02  0.7816164E-02  0.1320468E+00
        -11   -1    0    0    0    0  0.00000000000E+00  0.00000000000E+00  0.45593999997E+02  0.45594000000E+02  0.51100000000E-03 0.  1.
         11   -1    0    0    0    0 -0.00000000000E+00 -0.00000000000E+00 -0.45593999997E+02  0.45594000000E+02  0.51100000000E-03 0. -1.
    9900012    2    1    2    0    0  0.51142591796E+01 -0.18871691952E+02 -0.40580992136E+02  0.46142319554E+02  0.10000016349E+02 0.  0.
        -12    1    1    2    0    0 -0.51142591796E+01  0.18871691952E+02  0.40580992136E+02  0.45045680446E+02  0.00000000000E+00 0.  1.
         11    1    3    3    0    0  0.40422754131E+01 -0.83317019799E+01 -0.19892318101E+02  0.21942232523E+02  0.51100000000E-03 0. -1.
        -11    1    3    3    0    0 -0.37301531510E+00  0.83755591874E+00 -0.69503456217E+00  0.11505275512E+01  0.51100000000E-03 0.  1.
        -12    1    3    3    0    0  0.14449990816E+01 -0.11377545891E+02 -0.19993639473E+02  0.23049559480E+02  0.00000000000E+00 0.  1.
</event>
<event>
 7    1  0.1538805E-008  0.4614232E+02  0.7816164E-02  0.1320468E+00
        -11   -1    0    0    0    0  0.00000000000E+00  0.00000000000E+00  0.45593999997E+02  0.45594000000E+02  0.51100000000E-03 0. -1.
         11   -1    0    0    0    0 -0.00000000000E+00 -0.00000000000E+00 -0.45593999997E+02  0.45594000000E+02  0.51100000000E-03 0.  1.
    9900012    2    1    2    0    0 -0.86017819219E+01 -0.62821548322E+01  0.43768223888E+02  0.46142317145E+02  0.99999943857E+01 0.  0.
        -12    1    1    2    0    0  0.86017819219E+01  0.62821548322E+01 -0.43768223888E+02  0.45045682855E+02  0.00000000000E+00 0.  1.
         11    1    3    3    0    0 -0.29362499840E+01 -0.30415872519E+01  0.46784902337E+01  0.63056393893E+01  0.51100000000E-03 0. -1.
        -11    1    3    3    0    0 -0.14021685186E+01 -0.60206648971E+00  0.26851760900E+01  0.30884836907E+01  0.51100000000E-03 0.  1.
         12    1    3    3    0    0 -0.42633634192E+01 -0.26385010906E+01  0.36404557564E+02  0.36748194065E+02  0.00000000000E+00 0. -1.
</event>
<event>
 7    1  0.1538805E-008  0.4614232E+02  0.7816164E-02  0.1320468E+00
        -11   -1    0    0    0    0  0.00000000000E+00  0.00000000000E+00  0.45593999997E+02  0.45594000000E+02  0.51100000000E-03 0.  1.
         11   -1    0    0    0    0 -0.00000000000E+00 -0.00000000000E+00 -0.45593999997E+02  0.45594000000E+02  0.51100000000E-03 0. -1.
    9900012    2    1    2    0    0 -0.26831724614E+02  0.30599449400E+02 -0.19309216467E+02  0.46142316634E+02  0.99999897198E+01 0.  0.
        -12    1    1    2    0    0  0.26831724614E+02 -0.30599449400E+02  0.19309216467E+02  0.45045683366E+02  0.00000000000E+00 0.  1.
         11    1    3    3    0    0 -0.88798044127E+01  0.12510148852E+02 -0.76097461922E+01  0.17124923009E+02  0.51100000000E-03 0. -1.
        -11    1    3    3    0    0 -0.15480933997E+02  0.10853053956E+02 -0.81899227665E+01  0.20603954300E+02  0.51100000000E-03 0.  1.
        -12    1    3    3    0    0 -0.24709862047E+01  0.72362465917E+01 -0.35095475088E+01  0.84134393250E+01  0.00000000000E+00 0.  1.
</event>
<event>
 7    1  0.1538805E-008  0.4614232E+02  0.7816164E-02  0.1320468E+00
        -11   -1    0    0    0    0  0.00000000000E+00  0.00000000000E+00  0.45593999997E+02  0.45594000000E+02  0.51100000000E-03 0.  1.
         11   -1    0    0    0    0 -0.00000000000E+00 -0.00000000000E+00 -0.45593999997E+02  0.45594000000E+02  0.51100000000E-03 0. -1.
    9900012    2    1    2    0    0 -0.25897602562E+02  0.30811711041E+02 -0.20225384038E+02  0.46142317463E+02  0.99999972775E+01 0.  0.
        -12    1    1    2    0    0  0.25897602562E+02 -0.30811711041E+02  0.20225384038E+02  0.45045682537E+02  0.00000000000E+00 0.  1.
         11    1    3    3    0    0 -0.62271977934E+01  0.11418022408E+02 -0.71292650630E+01  0.14831576068E+02  0.51100000000E-03 0. -1.
        -11    1    3    3    0    0 -0.19033483688E+02  0.16843895404E+02 -0.10164320283E+02  0.27373412662E+02  0.51100000000E-03 0.  1.
        -12    1    3    3    0    0 -0.63692108086E+00  0.25497932297E+01 -0.29317986921E+01  0.39373287326E+01  0.00000000000E+00 0.  1.
</event>
<event>
 7    1  0.1538805E-008  0.4614232E+02  0.7816164E-02  0.1320468E+00
        -11   -1    0    0    0    0  0.00000000000E+00  0.00000000000E+00  0.45593999997E+02  0.45594000000E+02  0.51100000000E-03 0. -1.
         11   -1    0    0    0    0 -0.00000000000E+00 -0.00000000000E+00 -0.45593999997E+02  0.45594000000E+02  0.51100000000E-03 0.  1.
    9900012    2    1    2    0    0 -0.24298078755E+02 -0.21560101403E+02  0.31207035060E+02  0.46142316068E+02  0.99999845578E+01 0.  0.
        -12    1    1    2    0    0  0.24298078755E+02  0.21560101403E+02 -0.31207035060E+02  0.45045683932E+02  0.00000000000E+00 0.  1.
         11    1    3    3    0    0 -0.11313848696E+02 -0.58471942066E+01  0.10350931630E+02  0.16411417924E+02  0.51100000000E-03 0. -1.
        -11    1    3    3    0    0 -0.11519651417E+02 -0.10616210076E+02  0.17338817412E+02  0.23367517512E+02  0.51100000000E-03 0.  1.
        -12    1    3    3    0    0 -0.14645786419E+01 -0.50966971203E+01  0.35172860179E+01  0.63633806318E+01  0.00000000000E+00 0.  1.
</event>
<event>
 7    1  0.1538805E-008  0.4614232E+02  0.7816164E-02  0.1320468E+00
        -11   -1    0    0    0    0  0.00000000000E+00  0.00000000000E+00  0.45593999997E+02  0.45594000000E+02  0.51100000000E-03 0.  1.
         11   -1    0    0    0    0 -0.00000000000E+00 -0.00000000000E+00 -0.45593999997E+02  0.45594000000E+02  0.51100000000E-03 0. -1.
    9900012    2    1    2    0    0  0.34893618888E+02  0.31380361779E+01 -0.28314335479E+02  0.46142317590E+02  0.99999984409E+01 0.  0.
        -12    1    1    2    0    0 -0.34893618888E+02 -0.31380361779E+01  0.28314335479E+02  0.45045682410E+02  0.00000000000E+00 0.  1.
         11    1    3    3    0    0  0.12264999993E+02  0.37354035045E+01 -0.86463770561E+01  0.15464258813E+02  0.51100000000E-03 0. -1.
        -11    1    3    3    0    0  0.13096138374E+02  0.75622135031E+00 -0.15157812137E+02  0.20045946724E+02  0.51100000000E-03 0.  1.
        -12    1    3    3    0    0  0.95324805204E+01 -0.13535886770E+01 -0.45101462866E+01  0.10632112053E+02  0.00000000000E+00 0.  1.
</event>
<event>
 7    1  0.1538805E-008  0.4614232E+02  0.7816164E-02  0.1320468E+00
        -11   -1    0    0    0    0  0.00000000000E+00  0.00000000000E+00  0.45593999997E+02  0.45594000000E+02  0.51100000000E-03 0. -1.
         11   -1    0    0    0    0 -0.00000000000E+00 -0.00000000000E+00 -0.45593999997E+02  0.45594000000E+02  0.51100000000E-03 0.  1.
    9900012    2    1    2    0    0 -0.25048446155E+01  0.26338560607E+02  0.36457091021E+02  0.46142317553E+02  0.99999981002E+01 0.  0.
        -12    1    1    2    0    0  0.25048446155E+01 -0.26338560607E+02 -0.36457091021E+02  0.45045682447E+02  0.00000000000E+00 0.  1.
         11    1    3    3    0    0 -0.40051234291E+01  0.16051953120E+02  0.22121156804E+02  0.27623392102E+02  0.51100000000E-03 0. -1.
        -11    1    3    3    0    0  0.15577846306E+01  0.98990017384E+01  0.14823867645E+02  0.17893126629E+02  0.51100000000E-03 0.  1.
        -12    1    3    3    0    0 -0.57505816978E-01  0.38760574889E+00 -0.48793342681E+00  0.62579882116E+00  0.00000000000E+00 0.  1.
</event>
<event>
 7    1  0.1538805E-008  0.4614232E+02  0.7816164E-02  0.1320468E+00
        -11   -1    0    0    0    0  0.00000000000E+00  0.00000000000E+00  0.45593999997E+02  0.45594000000E+02  0.51100000000E-03 0.  1.
         11   -1    0    0    0    0 -0.00000000000E+00 -0.00000000000E+00 -0.45593999997E+02  0.45594000000E+02  0.51100000000E-03 0. -1.
    9900012    2    1    2    0    0  0.26559832754E+01 -0.92938084265E+01 -0.43996412899E+02  0.46142317962E+02  0.10000001836E+02 0.  0.
        -12    1    1    2    0    0 -0.26559832754E+01  0.92938084265E+01  0.43996412899E+02  0.45045682038E+02  0.00000000000E+00 0.  1.
         11    1    3    3    0    0  0.51719364144E+01 -0.73018723658E+01 -0.30789640108E+02  0.32063502687E+02  0.51100000000E-03 0. -1.
        -11    1    3    3    0    0 -0.40596271610E+00 -0.25732020816E+01 -0.58590164841E+01  0.64120393871E+01  0.51100000000E-03 0.  1.
         12    1    3    3    0    0 -0.21099904229E+01  0.58126602090E+00 -0.73477563069E+01  0.76667758880E+01  0.00000000000E+00 0. -1.
</event>
<event>
 7    1  0.1538805E-008  0.4614232E+02  0.7816164E-02  0.1320468E+00
        -11   -1    0    0    0    0  0.00000000000E+00  0.00000000000E+00  0.45593999997E+02  0.45594000000E+02  0.51100000000E-03 0.  1.
         11   -1    0    0    0    0 -0.00000000000E+00 -0.00000000000E+00 -0.45593999997E+02  0.45594000000E+02  0.51100000000E-03 0. -1.
    9900012    2    1    2    0    0  0.24176274185E+02  0.13308986581E+02 -0.35601856396E+02  0.46142317231E+02  0.99999951650E+01 0.  0.
        -12    1    1    2    0    0 -0.24176274185E+02 -0.13308986581E+02  0.35601856396E+02  0.45045682769E+02  0.00000000000E+00 0.  1.
         11    1    3    3    0    0  0.11558957812E+02  0.82803816420E+01 -0.16074287759E+02  0.21460590697E+02  0.51100000000E-03 0. -1.
        -11    1    3    3    0    0  0.61128314405E+01 -0.80613486546E+00 -0.10051136434E+02  0.11791603178E+02  0.51100000000E-03 0.  1.
        -12    1    3    3    0    0  0.65044849324E+01  0.58347398045E+01 -0.94764322037E+01  0.12890123356E+02  0.00000000000E+00 0.  1.
</event>
<event>
 7    1  0.1538805E-008  0.4614232E+02  0.7816164E-02  0.1320468E+00
        -11   -1    0    0    0    0  0.00000000000E+00  0.00000000000E+00  0.45593999997E+02  0.45594000000E+02  0.51100000000E-03 0.  1.
         11   -1    0    0    0    0 -0.00000000000E+00 -0.00000000000E+00 -0.45593999997E+02  0.45594000000E+02  0.51100000000E-03 0. -1.
    9900012    2    1    2    0    0 -0.38953075350E+02  0.21828621404E+02 -0.59399257306E+01  0.46142317529E+02  0.99999978824E+01 0.  0.
        -12    1    1    2    0    0  0.38953075350E+02 -0.21828621404E+02  0.59399257306E+01  0.45045682471E+02  0.00000000000E+00 0.  1.
         11    1    3    3    0    0 -0.22585782892E+02  0.10691792201E+02 -0.77587072467E+01  0.26165426572E+02  0.51100000000E-03 0. -1.
        -11    1    3    3    0    0 -0.35808734830E+01  0.30238988407E+01 -0.24816881694E+00  0.46934216860E+01  0.51100000000E-03 0.  1.
         12    1    3    3    0    0 -0.12786418975E+02  0.81129303622E+01  0.20669503330E+01  0.15283469270E+02  0.00000000000E+00 0. -1.
</event>
<event>
 7    1  0.1538805E-008  0.4614232E+02  0.7816164E-02  0.1320468E+00
        -11   -1    0    0    0    0  0.00000000000E+00  0.00000000000E+00  0.45593999997E+02  0.45594000000E+02  0.51100000000E-03 0.  1.
         11   -1    0    0    0    0 -0.00000000000E+00 -0.00000000000E+00 -0.45593999997E+02  0.45594000000E+02  0.51100000000E-03 0. -1.
    9900012    2    1    2    0    0 -0.25442503010E+01  0.87100661857E+01 -0.44122270448E+02  0.46142320829E+02  0.10000027973E+02 0.  0.
        -12    1    1    2    0    0  0.25442503010E+01 -0.87100661857E+01  0.44122270448E+02  0.45045679171E+02  0.00000000000E+00 0.  1.
         11    1    3    3    0    0  0.76084149456E+00  0.28026787209E+01 -0.14545753575E+02  0.14832829639E+02  0.51100000000E-03 0. -1.
        -11    1    3    3    0    0 -0.45484919589E+01  0.49474532197E+01 -0.28768419946E+02  0.29542986628E+02  0.51100000000E-03 0.  1.
        -12    1    3    3    0    0  0.12434001634E+01  0.95993424508E+00 -0.80809692675E+00  0.17665045611E+01  0.00000000000E+00 0.  1.
</event>
<event>
 7    1  0.1538805E-008  0.4614232E+02  0.7816164E-02  0.1320468E+00
        -11   -1    0    0    0    0  0.00000000000E+00  0.00000000000E+00  0.45593999997E+02  0.45594000000E+02  0.51100000000E-03 0. -1.
         11   -1    0    0    0    0 -0.00000000000E+00 -0.00000000000E+00 -0.45593999997E+02  0.45594000000E+02  0.51100000000E-03 0.  1.
    9900012    2    1    2    0    0 -0.37726063962E+02 -0.17689262363E+02 -0.17115710050E+02  0.46142318348E+02  0.10000005350E+02 0.  0.
        -12    1    1    2    0    0  0.37726063962E+02  0.17689262363E+02  0.17115710050E+02  0.45045681652E+02  0.00000000000E+00 0.  1.
         11    1    3    3    0    0 -0.21964693715E+02 -0.12932607374E+02 -0.14333960792E+02  0.29243162205E+02  0.51100000000E-03 0. -1.
        -11    1    3    3    0    0 -0.87730355859E+01 -0.13748308643E+01 -0.10230622755E+01  0.89388461212E+01  0.51100000000E-03 0.  1.
         12    1    3    3    0    0 -0.69883346609E+01 -0.33818241247E+01 -0.17586869827E+01  0.79603100220E+01  0.00000000000E+00 0. -1.
</event>
<event>
 7    1  0.1538805E-008  0.4614232E+02  0.7816164E-02  0.1320468E+00
        -11   -1    0    0    0    0  0.00000000000E+00  0.00000000000E+00  0.45593999997E+02  0.45594000000E+02  0.51100000000E-03 0.  1.
         11   -1    0    0    0    0 -0.00000000000E+00 -0.00000000000E+00 -0.45593999997E+02  0.45594000000E+02  0.51100000000E-03 0. -1.
    9900012    2    1    2    0    0 -0.74903900574E+01  0.78187261262E+01 -0.43724993808E+02  0.46142317577E+02  0.99999983183E+01 0.  0.
        -12    1    1    2    0    0  0.74903900574E+01 -0.78187261262E+01  0.43724993808E+02  0.45045682423E+02  0.00000000000E+00 0.  1.
         11    1    3    3    0    0 -0.36437215281E+01 -0.32678795375E+00 -0.21842259997E+02  0.22146508054E+02  0.51100000000E-03 0. -1.
        -11    1    3    3    0    0 -0.34040134289E+01  0.46703957729E+01 -0.94332374839E+01  0.11062814913E+02  0.51100000000E-03 0.  1.
         12    1    3    3    0    0 -0.44265510045E+00  0.34751183071E+01 -0.12449496327E+02  0.12932994610E+02  0.00000000000E+00 0. -1.
</event>
<event>
 7    1  0.1538805E-008  0.4614232E+02  0.7816164E-02  0.1320468E+00
        -11   -1    0    0    0    0  0.00000000000E+00  0.00000000000E+00  0.45593999997E+02  0.45594000000E+02  0.51100000000E-03 0.  1.
         11   -1    0    0    0    0 -0.00000000000E+00 -0.00000000000E+00 -0.45593999997E+02  0.45594000000E+02  0.51100000000E-03 0. -1.
    9900012    2    1    2    0    0 -0.37342138551E+00 -0.28143519899E+02 -0.35169821885E+02  0.46142317329E+02  0.99999960604E+01 0.  0.
        -12    1    1    2    0    0  0.37342138551E+00  0.28143519899E+02  0.35169821885E+02  0.45045682671E+02  0.00000000000E+00 0.  1.
         11    1    3    3    0    0 -0.14042329063E+01 -0.92161545664E+01 -0.15897519048E+02  0.18429337676E+02  0.51100000000E-03 0. -1.
        -11    1    3    3    0    0  0.20534755379E+00 -0.11157540099E+01  0.36168823496E+00  0.11907532359E+01  0.51100000000E-03 0.  1.
        -12    1    3    3    0    0  0.82546396705E+00 -0.17811611323E+02 -0.19633991072E+02  0.26522226417E+02  0.00000000000E+00 0.  1.
</event>
<event>
 7    1  0.1538805E-008  0.4614232E+02  0.7816164E-02  0.1320468E+00
        -11   -1    0    0    0    0  0.00000000000E+00  0.00000000000E+00  0.45593999997E+02  0.45594000000E+02  0.51100000000E-03 0. -1.
         11   -1    0    0    0    0 -0.00000000000E+00 -0.00000000000E+00 -0.45593999997E+02  0.45594000000E+02  0.51100000000E-03 0.  1.
    9900012    2    1    2    0    0 -0.24898878162E+02 -0.72699367082E+01  0.36828077234E+02  0.46142318895E+02  0.10000010341E+02 0.  0.
        -12    1    1    2    0    0  0.24898878162E+02  0.72699367082E+01 -0.36828077234E+02  0.45045681105E+02  0.00000000000E+00 0.  1.
         11    1    3    3    0    0 -0.10824256464E+02 -0.46057541957E+01  0.16765791755E+02  0.20480949030E+02  0.51100000000E-03 0. -1.
        -11    1    3    3    0    0 -0.14924766575E+02 -0.25786619601E+01  0.18989994881E+02  0.24290287373E+02  0.51100000000E-03 0.  1.
        -12    1    3    3    0    0  0.85014487667E+00 -0.85520552423E-01  0.10722905968E+01  0.13710824921E+01  0.00000000000E+00 0.  1.
</event>
<event>
 7    1  0.1538805E-008  0.4614232E+02  0.7816164E-02  0.1320468E+00
        -11   -1    0    0    0    0  0.00000000000E+00  0.00000000000E+00  0.45593999997E+02  0.45594000000E+02  0.51100000000E-03 0.  1.
         11   -1    0    0    0    0 -0.00000000000E+00 -0.00000000000E+00 -0.45593999997E+02  0.45594000000E+02  0.51100000000E-03 0. -1.
    9900012    2    1    2    0    0  0.60051390677E+00  0.20438594214E+02 -0.40137471556E+02  0.46142319038E+02  0.10000011643E+02 0.  0.
        -12    1    1    2    0    0 -0.60051390677E+00 -0.20438594214E+02  0.40137471556E+02  0.45045680962E+02  0.00000000000E+00 0.  1.
         11    1    3    3    0    0  0.34532418510E+01  0.11082804581E+02 -0.26780290682E+02  0.29187966800E+02  0.51100000000E-03 0. -1.
        -11    1    3    3    0    0 -0.36671318702E+01  0.85145158549E+01 -0.11807504616E+02  0.15012061881E+02  0.51100000000E-03 0.  1.
        -12    1    3    3    0    0  0.81440392598E+00  0.84127377854E+00 -0.15496762580E+01  0.19422903567E+01  0.00000000000E+00 0.  1.
</event>
<event>
 7    1  0.1538805E-008  0.4614232E+02  0.7816164E-02  0.1320468E+00
        -11   -1    0    0    0    0  0.00000000000E+00  0.00000000000E+00  0.45593999997E+02  0.45594000000E+02  0.51100000000E-03 0.  1.
         11   -1    0    0    0    0 -0.00000000000E+00 -0.00000000000E+00 -0.45593999997E+02  0.45594000000E+02  0.51100000000E-03 0. -1.
    9900012    2    1    2    0    0 -0.25176421783E+02 -0.12216487749E+02 -0.35298989291E+02  0.46142318390E+02  0.10000005739E+02 0.  0.
        -12    1    1    2    0    0  0.25176421783E+02  0.12216487749E+02  0.35298989291E+02  0.45045681610E+02  0.00000000000E+00 0.  1.
         11    1    3    3    0    0 -0.13454797426E+02 -0.10604229422E+02 -0.17306655107E+02  0.24351623491E+02  0.51100000000E-03 0. -1.
        -11    1    3    3    0    0 -0.45298248678E+01 -0.69753506269E+00 -0.42361766166E+01  0.62410785193E+01  0.51100000000E-03 0.  1.
         12    1    3    3    0    0 -0.71917994889E+01 -0.91472326432E+00 -0.13756157568E+02  0.15549616380E+02  0.00000000000E+00 0. -1.
</event>
<event>
 7    1  0.1538805E-008  0.4614232E+02  0.7816164E-02  0.1320468E+00
        -11   -1    0    0    0    0  0.00000000000E+00  0.00000000000E+00  0.45593999997E+02  0.45594000000E+02  0.51100000000E-03 0.  1.
         11   -1    0    0    0    0 -0.00000000000E+00 -0.00000000000E+00 -0.45593999997E+02  0.45594000000E+02  0.51100000000E-03 0. -1.
    9900012    2    1    2    0    0  0.36020160894E+02  0.17230509816E+02 -0.20851163592E+02  0.46142317827E+02  0.10000000600E+02 0.  0.
        -12    1    1    2    0    0 -0.36020160894E+02 -0.17230509816E+02  0.20851163592E+02  0.45045682173E+02  0.00000000000E+00 0.  1.
         11    1    3    3    0    0  0.12939599785E+02  0.58730480742E+01 -0.82867037929E+01  0.16449784080E+02  0.51100000000E-03 0. -1.
        -11    1    3    3    0    0  0.22519320871E+01  0.43865233570E+01 -0.25893572777E+01  0.55693407742E+01  0.51100000000E-03 0.  1.
        -12    1    3    3    0    0  0.20828629022E+02  0.69709383844E+01 -0.99751025211E+01  0.24123192972E+02  0.00000000000E+00 0.  1.
</event>
<event>
 7    1  0.1538805E-008  0.4614232E+02  0.7816164E-02  0.1320468E+00
        -11   -1    0    0    0    0  0.00000000000E+00  0.00000000000E+00  0.45593999997E+02  0.45594000000E+02  0.51100000000E-03 0.  1.
         11   -1    0    0    0    0 -0.00000000000E+00 -0.00000000000E+00 -0.45593999997E+02  0.45594000000E+02  0.51100000000E-03 0. -1.
    9900012    2    1    2    0    0 -0.28468360470E+02 -0.34479713216E+02 -0.54603346350E+01  0.46142318457E+02  0.10000006348E+02 0.  0.
        -12    1    1    2    0    0  0.28468360470E+02  0.34479713216E+02  0.54603346350E+01  0.45045681543E+02  0.00000000000E+00 0.  1.
         11    1    3    3    0    0 -0.47455561989E+01 -0.55559099795E+01 -0.11171395785E+01  0.73916466661E+01  0.51100000000E-03 0. -1.
        -11    1    3    3    0    0 -0.39323013474E+01 -0.67578031360E+01  0.25916145493E+01  0.82369510952E+01  0.51100000000E-03 0.  1.
        -12    1    3    3    0    0 -0.19790502924E+02 -0.22166000100E+02 -0.69348096058E+01  0.30513720696E+02  0.00000000000E+00 0.  1.
</event>
<event>
 7    1  0.1538805E-008  0.4614232E+02  0.7816164E-02  0.1320468E+00
        -11   -1    0    0    0    0  0.00000000000E+00  0.00000000000E+00  0.45593999997E+02  0.45594000000E+02  0.51100000000E-03 0. -1.
         11   -1    0    0    0    0 -0.00000000000E+00 -0.00000000000E+00 -0.45593999997E+02  0.45594000000E+02  0.51100000000E-03 0.  1.
    9900012    2    1    2    0    0  0.53731724304E+01 -0.39519701434E+02  0.20938858467E+02  0.46142316774E+02  0.99999910021E+01 0.  0.
        -12    1    1    2    0    0 -0.53731724304E+01  0.39519701434E+02 -0.20938858467E+02  0.45045683226E+02  0.00000000000E+00 0.  1.
         11    1    3    3    0    0  0.36676952092E+01 -0.18355067183E+02  0.54366420436E+01  0.19491473942E+02  0.51100000000E-03 0. -1.
        -11    1    3    3    0    0 -0.12789599382E+01 -0.78091505335E+01  0.67991480371E+01  0.10432975840E+02  0.51100000000E-03 0.  1.
         12    1    3    3    0    0  0.29844371595E+01 -0.13355483717E+02  0.87030683860E+01  0.16217866993E+02  0.00000000000E+00 0. -1.
</event>
<event>
 7    1  0.1538805E-008  0.4614232E+02  0.7816164E-02  0.1320468E+00
        -11   -1    0    0    0    0  0.00000000000E+00  0.00000000000E+00  0.45593999997E+02  0.45594000000E+02  0.51100000000E-03 0.  1.
         11   -1    0    0    0    0 -0.00000000000E+00 -0.00000000000E+00 -0.45593999997E+02  0.45594000000E+02  0.51100000000E-03 0. -1.
    9900012    2    1    2    0    0 -0.30589025351E+02 -0.26798138567E+02 -0.19372267134E+02  0.46142318337E+02  0.10000005251E+02 0.  0.
        -12    1    1    2    0    0  0.30589025351E+02  0.26798138567E+02  0.19372267134E+02  0.45045681663E+02  0.00000000000E+00 0.  1.
         11    1    3    3    0    0 -0.18513912876E+02 -0.13788562211E+02 -0.15621459934E+02  0.27873274450E+02  0.51100000000E-03 0. -1.
        -11    1    3    3    0    0 -0.12094436727E+02 -0.13072818068E+02 -0.37111564692E+01  0.18191939274E+02  0.51100000000E-03 0.  1.
        -12    1    3    3    0    0  0.19324251818E-01  0.63241711720E-01 -0.39650730913E-01  0.77104612518E-01  0.00000000000E+00 0.  1.
</event>
<event>
 7    1  0.1538805E-008  0.4614232E+02  0.7816164E-02  0.1320468E+00
        -11   -1    0    0    0    0  0.00000000000E+00  0.00000000000E+00  0.45593999997E+02  0.45594000000E+02  0.51100000000E-03 0. -1.
         11   -1    0    0    0    0 -0.00000000000E+00 -0.00000000000E+00 -0.45593999997E+02  0.45594000000E+02  0.51100000000E-03 0.  1.
    9900012    2    1    2    0    0  0.41362501404E+02 -0.79576006315E+01  0.15966631162E+02  0.46142320508E+02  0.10000025049E+02 0.  0.
        -12    1    1    2    0    0 -0.41362501404E+02  0.79576006315E+01 -0.15966631162E+02  0.45045679492E+02  0.00000000000E+00 0.  1.
         11    1    3    3    0    0  0.25238360261E+01 -0.26890188859E+01  0.12029727535E+01  0.38791383788E+01  0.51100000000E-03 0.  1.
        -11    1    3    3    0    0  0.22468918592E+02 -0.45387389125E+01  0.11117155794E+02  0.25476334250E+02  0.51100000000E-03 0. -1.
         12    1    3    3    0    0  0.16369746787E+02 -0.72984283315E+00  0.36465026144E+01  0.16786847880E+02  0.00000000000E+00 0. -1.
</event>
<event>
 7    1  0.1810147E-008  0.4614232E+02  0.7816164E-02  0.1320468E+00
        -11   -1    0    0    0    0  0.00000000000E+00  0.00000000000E+00  0.45593999997E+02  0.45594000000E+02  0.51100000000E-03 0. -1.
         11   -1    0    0    0    0 -0.00000000000E+00 -0.00000000000E+00 -0.45593999997E+02  0.45594000000E+02  0.51100000000E-03 0.  1.
    9900012    2    1    2    0    0 -0.80394828401E+01 -0.29437559394E+02  0.33134729512E+02  0.46142317774E+02  0.10000000115E+02 0.  0.
        -12    1    1    2    0    0  0.80394828401E+01  0.29437559394E+02 -0.33134729512E+02  0.45045682226E+02  0.00000000000E+00 0.  1.
         11    1    3    3    0    0 -0.35979226107E+01 -0.19322319731E+02  0.24456242916E+02  0.31375227564E+02  0.51100000000E-03 0. -1.
        -11    1    3    3    0    0 -0.35613500528E+01 -0.75937615471E+01  0.38057104669E+01  0.92104213287E+01  0.51100000000E-03 0.  1.
        -12    1    3    3    0    0 -0.88021017658E+00 -0.25214781158E+01  0.48727761292E+01  0.55566688807E+01  0.00000000000E+00 0.  1.
</event>
<event>
 7    1  0.1538805E-008  0.4614232E+02  0.7816164E-02  0.1320468E+00
        -11   -1    0    0    0    0  0.00000000000E+00  0.00000000000E+00  0.45593999997E+02  0.45594000000E+02  0.51100000000E-03 0.  1.
         11   -1    0    0    0    0 -0.00000000000E+00 -0.00000000000E+00 -0.45593999997E+02  0.45594000000E+02  0.51100000000E-03 0. -1.
    9900012    2    1    2    0    0  0.24542647684E+02  0.11494351511E+02 -0.35981271345E+02  0.46142316971E+02  0.99999927947E+01 0.  0.
        -12    1    1    2    0    0 -0.24542647684E+02 -0.11494351511E+02  0.35981271345E+02  0.45045683029E+02  0.00000000000E+00 0.  1.
         11    1    3    3    0    0  0.38583707927E+01  0.52329626857E+01 -0.71614731827E+01  0.96725189093E+01  0.51100000000E-03 0. -1.
        -11    1    3    3    0    0  0.73605025102E+00  0.15781469438E+01 -0.13708785434E+01  0.22162188497E+01  0.51100000000E-03 0.  1.
         12    1    3    3    0    0  0.19948226640E+02  0.46832418813E+01 -0.27448919619E+02  0.34253579212E+02  0.00000000000E+00 0. -1.
</event>
<event>
 7    1  0.1538805E-008  0.4614232E+02  0.7816164E-02  0.1320468E+00
        -11   -1    0    0    0    0  0.00000000000E+00  0.00000000000E+00  0.45593999997E+02  0.45594000000E+02  0.51100000000E-03 0.  1.
         11   -1    0    0    0    0 -0.00000000000E+00 -0.00000000000E+00 -0.45593999997E+02  0.45594000000E+02  0.51100000000E-03 0. -1.
    9900012    2    1    2    0    0  0.16074946417E+02  0.12716721106E+02 -0.40112274600E+02  0.46142317947E+02  0.10000001699E+02 0.  0.
        -12    1    1    2    0    0 -0.16074946417E+02 -0.12716721106E+02  0.40112274600E+02  0.45045682053E+02  0.00000000000E+00 0.  1.
         11    1    3    3    0    0  0.69427759883E+01  0.10790216262E+02 -0.28246446978E+02  0.31024066022E+02  0.51100000000E-03 0. -1.
        -11    1    3    3    0    0  0.45817195451E+01  0.13736918954E+01 -0.59432741753E+01  0.76290033161E+01  0.51100000000E-03 0.  1.
         12    1    3    3    0    0  0.45504508835E+01  0.55281294838E+00 -0.59225534466E+01  0.74892486089E+01  0.00000000000E+00 0. -1.
</event>
<event>
 7    1  0.1538805E-008  0.4614232E+02  0.7816164E-02  0.1320468E+00
        -11   -1    0    0    0    0  0.00000000000E+00  0.00000000000E+00  0.45593999997E+02  0.45594000000E+02  0.51100000000E-03 0.  1.
         11   -1    0    0    0    0 -0.00000000000E+00 -0.00000000000E+00 -0.45593999997E+02  0.45594000000E+02  0.51100000000E-03 0. -1.
    9900012    2    1    2    0    0 -0.16331527321E+01 -0.14761874643E+00 -0.45015825341E+02  0.46142317518E+02  0.99999977788E+01 0.  0.
        -12    1    1    2    0    0  0.16331527321E+01  0.14761874643E+00  0.45015825341E+02  0.45045682482E+02  0.00000000000E+00 0.  1.
         11    1    3    3    0    0 -0.15179622575E+01 -0.15388906927E+01 -0.26040059092E+01  0.33842637332E+01  0.51100000000E-03 0. -1.
        -11    1    3    3    0    0  0.87667349434E+00  0.29820477307E+01 -0.17350206739E+02  0.17626424459E+02  0.51100000000E-03 0.  1.
         12    1    3    3    0    0 -0.99186396890E+00 -0.15907757845E+01 -0.25061612694E+02  0.25131629325E+02  0.00000000000E+00 0. -1.
</event>
<event>
 7    1  0.1538805E-008  0.4614232E+02  0.7816164E-02  0.1320468E+00
        -11   -1    0    0    0    0  0.00000000000E+00  0.00000000000E+00  0.45593999997E+02  0.45594000000E+02  0.51100000000E-03 0.  1.
         11   -1    0    0    0    0 -0.00000000000E+00 -0.00000000000E+00 -0.45593999997E+02  0.45594000000E+02  0.51100000000E-03 0. -1.
    9900012    2    1    2    0    0  0.82422336581E+01 -0.42351444800E+02  0.12943501608E+02  0.46142317341E+02  0.99999961677E+01 0.  0.
        -12    1    1    2    0    0 -0.82422336581E+01  0.42351444800E+02 -0.12943501608E+02  0.45045682659E+02  0.00000000000E+00 0.  1.
         11    1    3    3    0    0  0.36977724863E+01 -0.15014684552E+02  0.16126536562E+01  0.15547183849E+02  0.51100000000E-03 0. -1.
        -11    1    3    3    0    0  0.60558603056E+01 -0.21775498671E+02  0.97801859319E+01  0.24627176524E+02  0.51100000000E-03 0.  1.
        -12    1    3    3    0    0 -0.15113991337E+01 -0.55612615776E+01  0.15506620196E+01  0.59679569682E+01  0.00000000000E+00 0.  1.
</event>
<event>
 7    1  0.1538805E-008  0.4614232E+02  0.7816164E-02  0.1320468E+00
        -11   -1    0    0    0    0  0.00000000000E+00  0.00000000000E+00  0.45593999997E+02  0.45594000000E+02  0.51100000000E-03 0. -1.
         11   -1    0    0    0    0 -0.00000000000E+00 -0.00000000000E+00 -0.45593999997E+02  0.45594000000E+02  0.51100000000E-03 0.  1.
    9900012    2    1    2    0    0  0.26536647634E+02 -0.35099374323E+02  0.96412518050E+01  0.46142317833E+02  0.10000000658E+02 0.  0.
        -12    1    1    2    0    0 -0.26536647634E+02  0.35099374323E+02 -0.96412518050E+01  0.45045682167E+02  0.00000000000E+00 0.  1.
         11    1    3    3    0    0  0.54110743993E+01 -0.58040262974E+01  0.19268096415E+01  0.81657236710E+01  0.51100000000E-03 0. -1.
        -11    1    3    3    0    0  0.17915514445E+02 -0.28746510985E+02  0.64373561855E+01  0.34478502093E+02  0.51100000000E-03 0.  1.
        -12    1    3    3    0    0  0.32100587897E+01 -0.54883704017E+00  0.12770859780E+01  0.34980920692E+01  0.00000000000E+00 0.  1.
</event>
<event>
 7    1  0.1538805E-008  0.4614231E+02  0.7816164E-02  0.1320468E+00
        -11   -1    0    0    0    0  0.00000000000E+00  0.00000000000E+00  0.45593999997E+02  0.45594000000E+02  0.51100000000E-03 0.  1.
         11   -1    0    0    0    0 -0.00000000000E+00 -0.00000000000E+00 -0.45593999997E+02  0.45594000000E+02  0.51100000000E-03 0. -1.
    9900012    2    1    2    0    0 -0.39790122742E+02 -0.14300712693E+02 -0.15535443931E+02  0.46142309091E+02  0.99999209375E+01 0.  0.
        -12    1    1    2    0    0  0.39790122742E+02  0.14300712693E+02  0.15535443931E+02  0.45045690909E+02  0.00000000000E+00 0.  1.
         11    1    3    3    0    0 -0.92870920275E+01 -0.10484311164E+00 -0.17902265844E+01  0.94586458803E+01  0.51100000000E-03 0. -1.
        -11    1    3    3    0    0 -0.24920987944E+02 -0.13349188463E+02 -0.10413464277E+02  0.30128005431E+02  0.51100000000E-03 0.  1.
        -12    1    3    3    0    0 -0.55820427703E+01 -0.84668111781E+00 -0.33317530693E+01  0.65556577793E+01  0.00000000000E+00 0.  1.
</event>
<event>
 7    1  0.1538805E-008  0.4614232E+02  0.7816164E-02  0.1320468E+00
        -11   -1    0    0    0    0  0.00000000000E+00  0.00000000000E+00  0.45593999997E+02  0.45594000000E+02  0.51100000000E-03 0.  1.
         11   -1    0    0    0    0 -0.00000000000E+00 -0.00000000000E+00 -0.45593999997E+02  0.45594000000E+02  0.51100000000E-03 0. -1.
    9900012    2    1    2    0    0  0.20894559053E+02  0.34023685948E+02  0.20854727493E+02  0.46142318050E+02  0.10000002636E+02 0.  0.
        -12    1    1    2    0    0 -0.20894559053E+02 -0.34023685948E+02 -0.20854727493E+02  0.45045681950E+02  0.00000000000E+00 0.  1.
         11    1    3    3    0    0  0.58587605799E+01  0.10586628912E+02  0.36978230093E+01  0.12652101901E+02  0.51100000000E-03 0. -1.
        -11    1    3    3    0    0  0.45493362305E+01  0.75953550728E+01  0.17380771039E+01  0.90225712023E+01  0.51100000000E-03 0.  1.
        -12    1    3    3    0    0  0.10486462243E+02  0.15841701963E+02  0.15418827380E+02  0.24467644947E+02  0.00000000000E+00 0.  1.
</event>
<event>
 7    1  0.1538805E-008  0.4614232E+02  0.7816164E-02  0.1320468E+00
        -11   -1    0    0    0    0  0.00000000000E+00  0.00000000000E+00  0.45593999997E+02  0.45594000000E+02  0.51100000000E-03 0. -1.
         11   -1    0    0    0    0 -0.00000000000E+00 -0.00000000000E+00 -0.45593999997E+02  0.45594000000E+02  0.51100000000E-03 0.  1.
    9900012    2    1    2    0    0 -0.60684727930E+00  0.38553808446E+02  0.23288390656E+02  0.46142317092E+02  0.99999939004E+01 0.  0.
        -12    1    1    2    0    0  0.60684727930E+00 -0.38553808446E+02 -0.23288390656E+02  0.45045682908E+02  0.00000000000E+00 0.  1.
         11    1    3    3    0    0 -0.25746386943E+01  0.26012804001E+02  0.14058501561E+02  0.29680569449E+02  0.51100000000E-03 0. -1.
        -11    1    3    3    0    0  0.11117933601E+01  0.10413665816E+02  0.95165460034E+01  0.14150800978E+02  0.51100000000E-03 0.  1.
         12    1    3    3    0    0  0.85599805494E+00  0.21273386284E+01 -0.28665690837E+00  0.23109466660E+01  0.00000000000E+00 0. -1.
</event>
<event>
 7    1  0.1538805E-008  0.4614232E+02  0.7816164E-02  0.1320468E+00
        -11   -1    0    0    0    0  0.00000000000E+00  0.00000000000E+00  0.45593999997E+02  0.45594000000E+02  0.51100000000E-03 0.  1.
         11   -1    0    0    0    0 -0.00000000000E+00 -0.00000000000E+00 -0.45593999997E+02  0.45594000000E+02  0.51100000000E-03 0. -1.
    9900012    2    1    2    0    0 -0.10210189048E+02  0.14800534436E+01 -0.43848317816E+02  0.46142317700E+02  0.99999994449E+01 0.  0.
        -12    1    1    2    0    0  0.10210189048E+02 -0.14800534436E+01  0.43848317816E+02  0.45045682300E+02  0.00000000000E+00 0.  1.
         11    1    3    3    0    0 -0.12597192085E+01  0.28733904417E+01 -0.13425316750E+02  0.13787037216E+02  0.51100000000E-03 0. -1.
        -11    1    3    3    0    0 -0.38354860817E+01  0.25056050533E+01 -0.12448184390E+02  0.13264475302E+02  0.51100000000E-03 0.  1.
         12    1    3    3    0    0 -0.51149837576E+01 -0.38989420515E+01 -0.17974816676E+02  0.19090805182E+02  0.00000000000E+00 0. -1.
</event>
<event>
 7    1  0.1538805E-008  0.4614231E+02  0.7816164E-02  0.1320468E+00
        -11   -1    0    0    0    0  0.00000000000E+00  0.00000000000E+00  0.45593999997E+02  0.45594000000E+02  0.51100000000E-03 0. -1.
         11   -1    0    0    0    0 -0.00000000000E+00 -0.00000000000E+00 -0.45593999997E+02  0.45594000000E+02  0.51100000000E-03 0.  1.
    9900012    2    1    2    0    0 -0.39801181947E+02  0.18827411397E+02 -0.95135889070E+01  0.46142313435E+02  0.99999605466E+01 0.  0.
        -12    1    1    2    0    0  0.39801181947E+02 -0.18827411397E+02  0.95135889070E+01  0.45045686565E+02  0.00000000000E+00 0.  1.
         11    1    3    3    0    0 -0.88963840366E+01  0.44445817485E+01  0.13374920436E+01  0.10034382944E+02  0.51100000000E-03 0. -1.
        -11    1    3    3    0    0 -0.13349836342E+02  0.49643780762E+01 -0.67794649430E+01  0.15774166387E+02  0.51100000000E-03 0.  1.
        -12    1    3    3    0    0 -0.17554961568E+02  0.94184515725E+01 -0.40716160076E+01  0.20333764103E+02  0.00000000000E+00 0.  1.
</event>
<event>
 7    1  0.1538805E-008  0.4614232E+02  0.7816164E-02  0.1320468E+00
        -11   -1    0    0    0    0  0.00000000000E+00  0.00000000000E+00  0.45593999997E+02  0.45594000000E+02  0.51100000000E-03 0. -1.
         11   -1    0    0    0    0 -0.00000000000E+00 -0.00000000000E+00 -0.45593999997E+02  0.45594000000E+02  0.51100000000E-03 0.  1.
    9900012    2    1    2    0    0  0.25877001695E+01  0.44870733364E+02 -0.30057419421E+01  0.46142318859E+02  0.10000010013E+02 0.  0.
        -12    1    1    2    0    0 -0.25877001695E+01 -0.44870733364E+02  0.30057419421E+01  0.45045681141E+02  0.00000000000E+00 0.  1.
         11    1    3    3    0    0 -0.57491838739E+00  0.12770968146E+02 -0.34994606353E+01  0.13254221347E+02  0.51100000000E-03 0. -1.
        -11    1    3    3    0    0  0.28609685941E+01  0.48501229600E+01 -0.52758214220E-01  0.56313069277E+01  0.51100000000E-03 0.  1.
         12    1    3    3    0    0  0.30164996279E+00  0.27249642259E+02  0.54647690744E+00  0.27256790584E+02  0.00000000000E+00 0. -1.
</event>
<event>
 7    1  0.1538805E-008  0.4614232E+02  0.7816164E-02  0.1320468E+00
        -11   -1    0    0    0    0  0.00000000000E+00  0.00000000000E+00  0.45593999997E+02  0.45594000000E+02  0.51100000000E-03 0.  1.
         11   -1    0    0    0    0 -0.00000000000E+00 -0.00000000000E+00 -0.45593999997E+02  0.45594000000E+02  0.51100000000E-03 0. -1.
    9900012    2    1    2    0    0  0.43536169084E+02  0.11539265851E+02  0.74885463261E+00  0.46142318097E+02  0.10000003062E+02 0.  0.
        -12    1    1    2    0    0 -0.43536169084E+02 -0.11539265851E+02 -0.74885463261E+00  0.45045681903E+02  0.00000000000E+00 0.  1.
         11    1    3    3    0    0  0.38638916297E+00  0.39578980588E+00 -0.67014570775E+00  0.86893134737E+00  0.51100000000E-03 0. -1.
        -11    1    3    3    0    0  0.29245665778E+02  0.91505468125E+01 -0.23396617198E+01  0.30732970747E+02  0.51100000000E-03 0.  1.
        -12    1    3    3    0    0  0.13904114143E+02  0.19929292322E+01  0.37586620601E+01  0.14540416002E+02  0.00000000000E+00 0.  1.
</event>
<event>
 7    1  0.1538805E-008  0.4614232E+02  0.7816164E-02  0.1320468E+00
        -11   -1    0    0    0    0  0.00000000000E+00  0.00000000000E+00  0.45593999997E+02  0.45594000000E+02  0.51100000000E-03 0.  1.
         11   -1    0    0    0    0 -0.00000000000E+00 -0.00000000000E+00 -0.45593999997E+02  0.45594000000E+02  0.51100000000E-03 0. -1.
    9900012    2    1    2    0    0  0.19963589687E+02  0.27345890363E+02 -0.29711460411E+02  0.46142317491E+02  0.99999975371E+01 0.  0.
        -12    1    1    2    0    0 -0.19963589687E+02 -0.27345890363E+02  0.29711460411E+02  0.45045682509E+02  0.00000000000E+00 0.  1.
         11    1    3    3    0    0  0.90476704237E+01  0.11863808066E+02 -0.17683528945E+02  0.23136928883E+02  0.51100000000E-03 0. -1.
        -11    1    3    3    0    0  0.76039492361E+01  0.65211502477E+01 -0.68897686288E+01  0.12157892768E+02  0.51100000000E-03 0.  1.
         12    1    3    3    0    0  0.33119700268E+01  0.89609320497E+01 -0.51381628371E+01  0.10847495840E+02  0.00000000000E+00 0. -1.
</event>
<event>
 7    1  0.1538805E-008  0.4614232E+02  0.7816164E-02  0.1320468E+00
        -11   -1    0    0    0    0  0.00000000000E+00  0.00000000000E+00  0.45593999997E+02  0.45594000000E+02  0.51100000000E-03 0.  1.
         11   -1    0    0    0    0 -0.00000000000E+00 -0.00000000000E+00 -0.45593999997E+02  0.45594000000E+02  0.51100000000E-03 0. -1.
    9900012    2    1    2    0    0 -0.33538606870E+02 -0.10245598682E+02 -0.28271947839E+02  0.46142317879E+02  0.10000001074E+02 0.  0.
        -12    1    1    2    0    0  0.33538606870E+02  0.10245598682E+02  0.28271947839E+02  0.45045682121E+02  0.00000000000E+00 0.  1.
         11    1    3    3    0    0 -0.12990395646E+02 -0.42914684136E+01 -0.96483108155E+01  0.16740877576E+02  0.51100000000E-03 0. -1.
        -11    1    3    3    0    0 -0.63295879301E+01  0.13467412813E+01 -0.33214757034E+01  0.72738983051E+01  0.51100000000E-03 0.  1.
        -12    1    3    3    0    0 -0.14218623295E+02 -0.73008715499E+01 -0.15302161320E+02  0.22127541997E+02  0.00000000000E+00 0.  1.
</event>
<event>
 7    1  0.1538805E-008  0.4614232E+02  0.7816164E-02  0.1320468E+00
        -11   -1    0    0    0    0  0.00000000000E+00  0.00000000000E+00  0.45593999997E+02  0.45594000000E+02  0.51100000000E-03 0. -1.
         11   -1    0    0    0    0 -0.00000000000E+00 -0.00000000000E+00 -0.45593999997E+02  0.45594000000E+02  0.51100000000E-03 0.  1.
    9900012    2    1    2    0    0  0.16949710685E+01 -0.38371723764E+02  0.23534047912E+02  0.46142317380E+02  0.99999965267E+01 0.  0.
        -12    1    1    2    0    0 -0.16949710685E+01  0.38371723764E+02 -0.23534047912E+02  0.45045682620E+02  0.00000000000E+00 0.  1.
         11    1    3    3    0    0 -0.15510575043E+01 -0.57068840462E+01  0.41562161309E+01  0.72283080791E+01  0.51100000000E-03 0. -1.
        -11    1    3    3    0    0  0.36419149451E+01 -0.13258728987E+02  0.11651501319E+02  0.18022622508E+02  0.51100000000E-03 0.  1.
        -12    1    3    3    0    0 -0.39588637228E+00 -0.19406110731E+02  0.77263304612E+01  0.20891386793E+02  0.00000000000E+00 0.  1.
</event>
<event>
 7    1  0.1538805E-008  0.4614232E+02  0.7816164E-02  0.1320468E+00
        -11   -1    0    0    0    0  0.00000000000E+00  0.00000000000E+00  0.45593999997E+02  0.45594000000E+02  0.51100000000E-03 0. -1.
         11   -1    0    0    0    0 -0.00000000000E+00 -0.00000000000E+00 -0.45593999997E+02  0.45594000000E+02  0.51100000000E-03 0.  1.
    9900012    2    1    2    0    0 -0.30515926696E+02 -0.74179630513E+01 -0.32293428463E+02  0.46142317856E+02  0.10000000865E+02 0.  0.
        -12    1    1    2    0    0  0.30515926696E+02  0.74179630513E+01  0.32293428463E+02  0.45045682144E+02  0.00000000000E+00 0.  1.
         11    1    3    3    0    0 -0.24766914122E+01 -0.18400251091E+01 -0.62047480213E+01  0.69295447919E+01  0.51100000000E-03 0. -1.
        -11    1    3    3    0    0 -0.20873137981E+02 -0.26621436361E+01 -0.22074215645E+02  0.30496653825E+02  0.51100000000E-03 0.  1.
        -12    1    3    3    0    0 -0.71660973029E+01 -0.29157943061E+01 -0.40144647960E+01  0.87161192390E+01  0.00000000000E+00 0.  1.
</event>
<event>
 7    1  0.1538805E-008  0.4614232E+02  0.7816164E-02  0.1320468E+00
        -11   -1    0    0    0    0  0.00000000000E+00  0.00000000000E+00  0.45593999997E+02  0.45594000000E+02  0.51100000000E-03 0.  1.
         11   -1    0    0    0    0 -0.00000000000E+00 -0.00000000000E+00 -0.45593999997E+02  0.45594000000E+02  0.51100000000E-03 0. -1.
    9900012    2    1    2    0    0 -0.43480672205E+00 -0.30702435473E+02 -0.32958830224E+02  0.46142322177E+02  0.10000040265E+02 0.  0.
        -12    1    1    2    0    0  0.43480672205E+00  0.30702435473E+02  0.32958830224E+02  0.45045677823E+02  0.00000000000E+00 0.  1.
         11    1    3    3    0    0  0.30962494591E+00  0.11323071136E+00  0.11108495225E+00  0.34789212245E+00  0.51100000000E-03 0. -1.
        -11    1    3    3    0    0 -0.53824800051E+00 -0.89397421716E-01  0.12646626968E+00  0.56008641079E+00  0.51100000000E-03 0.  1.
         12    1    3    3    0    0 -0.20618366745E+00 -0.30726268763E+02 -0.33196381445E+02  0.45234343643E+02  0.00000000000E+00 0. -1.
</event>
<event>
 7    1  0.1538805E-008  0.4614232E+02  0.7816164E-02  0.1320468E+00
        -11   -1    0    0    0    0  0.00000000000E+00  0.00000000000E+00  0.45593999997E+02  0.45594000000E+02  0.51100000000E-03 0.  1.
         11   -1    0    0    0    0 -0.00000000000E+00 -0.00000000000E+00 -0.45593999997E+02  0.45594000000E+02  0.51100000000E-03 0. -1.
    9900012    2    1    2    0    0 -0.36891948827E+02  0.98232227767E+01 -0.23908196434E+02  0.46142318179E+02  0.10000003808E+02 0.  0.
        -12    1    1    2    0    0  0.36891948827E+02 -0.98232227767E+01  0.23908196434E+02  0.45045681821E+02  0.00000000000E+00 0.  1.
         11    1    3    3    0    0 -0.78930198011E+01  0.48479823639E+01 -0.92746934317E+01  0.13108113255E+02  0.51100000000E-03 0. -1.
        -11    1    3    3    0    0 -0.16152762033E+02  0.22968746870E+01 -0.63004388871E+01  0.17489507856E+02  0.51100000000E-03 0.  1.
         12    1    3    3    0    0 -0.12846166993E+02  0.26783657259E+01 -0.83330641154E+01  0.15544697068E+02  0.00000000000E+00 0. -1.
</event>
<event>
 7    1  0.1538805E-008  0.4614232E+02  0.7816164E-02  0.1320468E+00
        -11   -1    0    0    0    0  0.00000000000E+00  0.00000000000E+00  0.45593999997E+02  0.45594000000E+02  0.51100000000E-03 0. -1.
         11   -1    0    0    0    0 -0.00000000000E+00 -0.00000000000E+00 -0.45593999997E+02  0.45594000000E+02  0.51100000000E-03 0.  1.
    9900012    2    1    2    0    0  0.32771109492E+02  0.30198581917E+02  0.65736998545E+01  0.46142317666E+02  0.99999991355E+01 0.  0.
        -12    1    1    2    0    0 -0.32771109492E+02 -0.30198581917E+02 -0.65736998545E+01  0.45045682334E+02  0.00000000000E+00 0.  1.
         11    1    3    3    0    0  0.61222802798E+01  0.40886813317E+01  0.46141888696E+01  0.86885194390E+01  0.51100000000E-03 0. -1.
        -11    1    3    3    0    0  0.14284640546E+02  0.13147372116E+02 -0.16374478075E+00  0.19414715082E+02  0.51100000000E-03 0.  1.
        -12    1    3    3    0    0  0.12364188666E+02  0.12962528470E+02  0.21232557656E+01  0.18039083146E+02  0.00000000000E+00 0.  1.
</event>
<event>
 7    1  0.1538805E-008  0.4614232E+02  0.7816164E-02  0.1320468E+00
        -11   -1    0    0    0    0  0.00000000000E+00  0.00000000000E+00  0.45593999997E+02  0.45594000000E+02  0.51100000000E-03 0.  1.
         11   -1    0    0    0    0 -0.00000000000E+00 -0.00000000000E+00 -0.45593999997E+02  0.45594000000E+02  0.51100000000E-03 0. -1.
    9900012    2    1    2    0    0 -0.25979574399E+02  0.15427870903E+02 -0.33408918656E+02  0.46142319493E+02  0.10000015797E+02 0.  0.
        -12    1    1    2    0    0  0.25979574399E+02 -0.15427870903E+02  0.33408918656E+02  0.45045680507E+02  0.00000000000E+00 0.  1.
         11    1    3    3    0    0  0.32859128679E+00  0.58598530821E+00  0.24539783120E-01  0.67227485247E+00  0.51100000000E-03 0. -1.
        -11    1    3    3    0    0 -0.22880667593E+02  0.10766988695E+02 -0.29470210729E+02  0.38832284452E+02  0.51100000000E-03 0.  1.
         12    1    3    3    0    0 -0.34274980926E+01  0.40748968999E+01 -0.39632477099E+01  0.66377601892E+01  0.00000000000E+00 0. -1.
</event>
<event>
 7    1  0.1538805E-008  0.4614232E+02  0.7816164E-02  0.1320468E+00
        -11   -1    0    0    0    0  0.00000000000E+00  0.00000000000E+00  0.45593999997E+02  0.45594000000E+02  0.51100000000E-03 0. -1.
         11   -1    0    0    0    0 -0.00000000000E+00 -0.00000000000E+00 -0.45593999997E+02  0.45594000000E+02  0.51100000000E-03 0.  1.
    9900012    2    1    2    0    0 -0.15958193345E+02  0.35494747963E+02  0.22684190042E+02  0.46142317125E+02  0.99999942008E+01 0.  0.
        -12    1    1    2    0    0  0.15958193345E+02 -0.35494747963E+02 -0.22684190042E+02  0.45045682875E+02  0.00000000000E+00 0.  1.
         11    1    3    3    0    0 -0.72715450362E+01  0.18971449117E+02  0.12273421012E+02  0.23736640715E+02  0.51100000000E-03 0. -1.
        -11    1    3    3    0    0 -0.39003718444E+01  0.98181581942E+01  0.93343423012E+01  0.14097484787E+02  0.51100000000E-03 0.  1.
         12    1    3    3    0    0 -0.47862764646E+01  0.67051406522E+01  0.10764267283E+01  0.83081916240E+01  0.00000000000E+00 0. -1.
</event>
<event>
 7    1  0.1538805E-008  0.4614232E+02  0.7816164E-02  0.1320468E+00
        -11   -1    0    0    0    0  0.00000000000E+00  0.00000000000E+00  0.45593999997E+02  0.45594000000E+02  0.51100000000E-03 0.  1.
         11   -1    0    0    0    0 -0.00000000000E+00 -0.00000000000E+00 -0.45593999997E+02  0.45594000000E+02  0.51100000000E-03 0. -1.
    9900012    2    1    2    0    0  0.71997640543E+01 -0.37227338800E+02 -0.24318760986E+02  0.46142317716E+02  0.99999995856E+01 0.  0.
        -12    1    1    2    0    0 -0.71997640543E+01  0.37227338800E+02  0.24318760986E+02  0.45045682284E+02  0.00000000000E+00 0.  1.
         11    1    3    3    0    0  0.12409358402E+01 -0.12055246608E+02 -0.80784833782E+01  0.14564710313E+02  0.51100000000E-03 0. -1.
        -11    1    3    3    0    0  0.70506224271E+01 -0.22651438140E+02 -0.12158560655E+02  0.26657635376E+02  0.51100000000E-03 0.  1.
        -12    1    3    3    0    0 -0.10917942129E+01 -0.25206540519E+01 -0.40817169536E+01  0.49199720266E+01  0.00000000000E+00 0.  1.
</event>
<event>
 7    1  0.1538805E-008  0.4614232E+02  0.7816164E-02  0.1320468E+00
        -11   -1    0    0    0    0  0.00000000000E+00  0.00000000000E+00  0.45593999997E+02  0.45594000000E+02  0.51100000000E-03 0. -1.
         11   -1    0    0    0    0 -0.00000000000E+00 -0.00000000000E+00 -0.45593999997E+02  0.45594000000E+02  0.51100000000E-03 0.  1.
    9900012    2    1    2    0    0 -0.19208527041E+02 -0.12832686013E+02  0.38671284086E+02  0.46142317030E+02  0.99999933306E+01 0.  0.
        -12    1    1    2    0    0  0.19208527041E+02  0.12832686013E+02 -0.38671284086E+02  0.45045682970E+02  0.00000000000E+00 0.  1.
         11    1    3    3    0    0 -0.59369660121E+01 -0.70614231076E+01  0.14459626112E+02  0.17152027556E+02  0.51100000000E-03 0. -1.
        -11    1    3    3    0    0 -0.30695418902E+01  0.14995537037E+01  0.50838109350E+01  0.61250210293E+01  0.51100000000E-03 0.  1.
        -12    1    3    3    0    0 -0.10202019139E+02 -0.72708166087E+01  0.19127847039E+02  0.22865268444E+02  0.00000000000E+00 0.  1.
</event>
<event>
 7    1  0.1538805E-008  0.4614232E+02  0.7816164E-02  0.1320468E+00
        -11   -1    0    0    0    0  0.00000000000E+00  0.00000000000E+00  0.45593999997E+02  0.45594000000E+02  0.51100000000E-03 0.  1.
         11   -1    0    0    0    0 -0.00000000000E+00 -0.00000000000E+00 -0.45593999997E+02  0.45594000000E+02  0.51100000000E-03 0. -1.
    9900012    2    1    2    0    0  0.33617779864E+00 -0.20514420541E+01 -0.44997689453E+02  0.46142317786E+02  0.10000000224E+02 0.  0.
        -12    1    1    2    0    0 -0.33617779864E+00  0.20514420541E+01  0.44997689453E+02  0.45045682214E+02  0.00000000000E+00 0.  1.
         11    1    3    3    0    0  0.41859624135E+01 -0.40400642385E+01 -0.26044201929E+02  0.26686042321E+02  0.51100000000E-03 0. -1.
        -11    1    3    3    0    0 -0.26996641040E+01  0.10753927799E+01 -0.11686781353E+02  0.12042653966E+02  0.51100000000E-03 0.  1.
         12    1    3    3    0    0 -0.11501205109E+01  0.91322940454E+00 -0.72667061715E+01  0.74136214982E+01  0.00000000000E+00 0. -1.
</event>
<event>
 7    1  0.1538805E-008  0.4614231E+02  0.7816164E-02  0.1320468E+00
        -11   -1    0    0    0    0  0.00000000000E+00  0.00000000000E+00  0.45593999997E+02  0.45594000000E+02  0.51100000000E-03 0.  1.
         11   -1    0    0    0    0 -0.00000000000E+00 -0.00000000000E+00 -0.45593999997E+02  0.45594000000E+02  0.51100000000E-03 0. -1.
    9900012    2    1    2    0    0  0.17154727562E+02 -0.35996880015E+02  0.20953609391E+02  0.46142314357E+02  0.99999689564E+01 0.  0.
        -12    1    1    2    0    0 -0.17154727562E+02  0.35996880015E+02 -0.20953609391E+02  0.45045685643E+02  0.00000000000E+00 0.  1.
         11    1    3    3    0    0  0.72832720114E+00 -0.11559595592E+01 -0.23713717163E+00  0.13867001528E+01  0.51100000000E-03 0. -1.
        -11    1    3    3    0    0  0.62485053364E+01 -0.14058535785E+02  0.13208279472E+02  0.20276708171E+02  0.51100000000E-03 0.  1.
        -12    1    3    3    0    0  0.10177895025E+02 -0.20782384671E+02  0.79824670901E+01  0.24478906033E+02  0.00000000000E+00 0.  1.
</event>
<event>
 7    1  0.1538805E-008  0.4614232E+02  0.7816164E-02  0.1320468E+00
        -11   -1    0    0    0    0  0.00000000000E+00  0.00000000000E+00  0.45593999997E+02  0.45594000000E+02  0.51100000000E-03 0.  1.
         11   -1    0    0    0    0 -0.00000000000E+00 -0.00000000000E+00 -0.45593999997E+02  0.45594000000E+02  0.51100000000E-03 0. -1.
    9900012    2    1    2    0    0 -0.31340902269E+02 -0.28304039195E+02 -0.15676178529E+02  0.46142319152E+02  0.10000012685E+02 0.  0.
        -12    1    1    2    0    0  0.31340902269E+02  0.28304039195E+02  0.15676178529E+02  0.45045680848E+02  0.00000000000E+00 0.  1.
         11    1    3    3    0    0 -0.65444729003E+01 -0.10316881909E+02 -0.29006426669E+01  0.12557145615E+02  0.51100000000E-03 0. -1.
        -11    1    3    3    0    0 -0.91204447576E+01 -0.36774095419E+01 -0.41931399420E+01  0.10690569505E+02  0.51100000000E-03 0.  1.
        -12    1    3    3    0    0 -0.15675984611E+02 -0.14309747744E+02 -0.85823959201E+01  0.22894604031E+02  0.00000000000E+00 0.  1.
</event>
<event>
 7    1  0.1538805E-008  0.4614233E+02  0.7816164E-02  0.1320468E+00
        -11   -1    0    0    0    0  0.00000000000E+00  0.00000000000E+00  0.45593999997E+02  0.45594000000E+02  0.51100000000E-03 0.  1.
         11   -1    0    0    0    0 -0.00000000000E+00 -0.00000000000E+00 -0.45593999997E+02  0.45594000000E+02  0.51100000000E-03 0. -1.
    9900012    2    1    2    0    0 -0.39109177046E+02 -0.15850788834E+02  0.15758720729E+02  0.46142328566E+02  0.10000098530E+02 0.  0.
        -12    1    1    2    0    0  0.39109177046E+02  0.15850788834E+02 -0.15758720729E+02  0.45045671434E+02  0.00000000000E+00 0.  1.
         11    1    3    3    0    0 -0.22043677285E+02 -0.50334950738E+01  0.88947967398E+01  0.24297678700E+02  0.51100000000E-03 0. -1.
        -11    1    3    3    0    0 -0.13695243211E+02 -0.91699788542E+01  0.73789467458E+01  0.18058157551E+02  0.51100000000E-03 0.  1.
        -12    1    3    3    0    0 -0.33702565503E+01 -0.16473149057E+01 -0.51502275660E+00  0.37864923152E+01  0.00000000000E+00 0.  1.
</event>
<event>
 7    1  0.1538805E-008  0.4614232E+02  0.7816164E-02  0.1320468E+00
        -11   -1    0    0    0    0  0.00000000000E+00  0.00000000000E+00  0.45593999997E+02  0.45594000000E+02  0.51100000000E-03 0.  1.
         11   -1    0    0    0    0 -0.00000000000E+00 -0.00000000000E+00 -0.45593999997E+02  0.45594000000E+02  0.51100000000E-03 0. -1.
    9900012    2    1    2    0    0 -0.16396843954E+02 -0.78018707466E+01 -0.41223632503E+02  0.46142317015E+02  0.99999932006E+01 0.  0.
        -12    1    1    2    0    0  0.16396843954E+02  0.78018707466E+01  0.41223632503E+02  0.45045682985E+02  0.00000000000E+00 0.  1.
         11    1    3    3    0    0 -0.71557894444E+01 -0.17959676180E+00 -0.16760426463E+02  0.18224968397E+02  0.51100000000E-03 0. -1.
        -11    1    3    3    0    0 -0.71897315420E+01 -0.37137564755E+01 -0.10398459748E+02  0.13176197942E+02  0.51100000000E-03 0.  1.
        -12    1    3    3    0    0 -0.20513229681E+01 -0.39085175094E+01 -0.14064746291E+02  0.14741150677E+02  0.00000000000E+00 0.  1.
</event>
<event>
 7    1  0.1538805E-008  0.4614232E+02  0.7816164E-02  0.1320468E+00
        -11   -1    0    0    0    0  0.00000000000E+00  0.00000000000E+00  0.45593999997E+02  0.45594000000E+02  0.51100000000E-03 0. -1.
         11   -1    0    0    0    0 -0.00000000000E+00 -0.00000000000E+00 -0.45593999997E+02  0.45594000000E+02  0.51100000000E-03 0.  1.
    9900012    2    1    2    0    0  0.29571447485E+02 -0.31731520469E+02  0.12155393170E+02  0.46142317846E+02  0.10000000771E+02 0.  0.
        -12    1    1    2    0    0 -0.29571447485E+02  0.31731520469E+02 -0.12155393170E+02  0.45045682154E+02  0.00000000000E+00 0.  1.
         11    1    3    3    0    0  0.20092757626E+02 -0.23303939114E+02  0.10472790019E+02  0.32503412410E+02  0.51100000000E-03 0. -1.
        -11    1    3    3    0    0  0.72257503957E+01 -0.33543223222E+01  0.65164033335E+00  0.79929708123E+01  0.51100000000E-03 0.  1.
         12    1    3    3    0    0  0.22529394637E+01 -0.50732590334E+01  0.10309628167E+01  0.56459346238E+01  0.00000000000E+00 0. -1.
</event>
<event>
 7    1  0.1538805E-008  0.4614232E+02  0.7816164E-02  0.1320468E+00
        -11   -1    0    0    0    0  0.00000000000E+00  0.00000000000E+00  0.45593999997E+02  0.45594000000E+02  0.51100000000E-03 0.  1.
         11   -1    0    0    0    0 -0.00000000000E+00 -0.00000000000E+00 -0.45593999997E+02  0.45594000000E+02  0.51100000000E-03 0. -1.
    9900012    2    1    2    0    0  0.83196964203E+01 -0.44263872476E+02 -0.77831274840E+00  0.46142317345E+02  0.99999962046E+01 0.  0.
        -12    1    1    2    0    0 -0.83196964203E+01  0.44263872476E+02  0.77831274840E+00  0.45045682655E+02  0.00000000000E+00 0.  1.
         11    1    3    3    0    0 -0.85998845681E+00 -0.13073690036E+02 -0.60849996109E+00  0.13116067389E+02  0.51100000000E-03 0. -1.
        -11    1    3    3    0    0  0.63973942733E+01 -0.11671948046E+02 -0.31489490860E-01  0.13310222257E+02  0.51100000000E-03 0.  1.
        -12    1    3    3    0    0  0.27822906038E+01 -0.19518234394E+02 -0.13832329645E+00  0.19716027699E+02  0.00000000000E+00 0.  1.
</event>
<event>
 7    1  0.1538805E-008  0.4614232E+02  0.7816164E-02  0.1320468E+00
        -11   -1    0    0    0    0  0.00000000000E+00  0.00000000000E+00  0.45593999997E+02  0.45594000000E+02  0.51100000000E-03 0. -1.
         11   -1    0    0    0    0 -0.00000000000E+00 -0.00000000000E+00 -0.45593999997E+02  0.45594000000E+02  0.51100000000E-03 0.  1.
    9900012    2    1    2    0    0 -0.30177882651E+02 -0.15637845294E+02  0.29561236313E+02  0.46142317642E+02  0.99999989150E+01 0.  0.
        -12    1    1    2    0    0  0.30177882651E+02  0.15637845294E+02 -0.29561236313E+02  0.45045682358E+02  0.00000000000E+00 0.  1.
         11    1    3    3    0    0 -0.67182746314E+01 -0.27356470410E+01  0.52671126436E+01  0.89644550653E+01  0.51100000000E-03 0. -1.
        -11    1    3    3    0    0 -0.11855964344E+02 -0.28057273028E+01  0.14517681582E+02  0.18952547982E+02  0.51100000000E-03 0.  1.
        -12    1    3    3    0    0 -0.11603643676E+02 -0.10096470950E+02  0.97764420872E+01  0.18225314595E+02  0.00000000000E+00 0.  1.
</event>
<event>
 7    1  0.1538805E-008  0.4614232E+02  0.7816164E-02  0.1320468E+00
        -11   -1    0    0    0    0  0.00000000000E+00  0.00000000000E+00  0.45593999997E+02  0.45594000000E+02  0.51100000000E-03 0. -1.
         11   -1    0    0    0    0 -0.00000000000E+00 -0.00000000000E+00 -0.45593999997E+02  0.45594000000E+02  0.51100000000E-03 0.  1.
    9900012    2    1    2    0    0  0.14056330209E+02  0.76200867602E+00  0.42789629001E+02  0.46142318451E+02  0.10000006289E+02 0.  0.
        -12    1    1    2    0    0 -0.14056330209E+02 -0.76200867602E+00 -0.42789629001E+02  0.45045681549E+02  0.00000000000E+00 0.  1.
         11    1    3    3    0    0  0.79230554504E+01 -0.39292499387E+01  0.25291234187E+02  0.26792915849E+02  0.51100000000E-03 0. -1.
        -11    1    3    3    0    0  0.35695813388E+01  0.44149368065E+01  0.12258783467E+02  0.13509676172E+02  0.51100000000E-03 0.  1.
         12    1    3    3    0    0  0.25636934196E+01  0.27632180829E+00  0.52396113481E+01  0.58397264294E+01  0.00000000000E+00 0. -1.
</event>
<event>
 7    1  0.1538805E-008  0.4614232E+02  0.7816164E-02  0.1320468E+00
        -11   -1    0    0    0    0  0.00000000000E+00  0.00000000000E+00  0.45593999997E+02  0.45594000000E+02  0.51100000000E-03 0.  1.
         11   -1    0    0    0    0 -0.00000000000E+00 -0.00000000000E+00 -0.45593999997E+02  0.45594000000E+02  0.51100000000E-03 0. -1.
    9900012    2    1    2    0    0  0.36581462660E+02  0.19477578562E+02 -0.17650326055E+02  0.46142317778E+02  0.10000000155E+02 0.  0.
        -12    1    1    2    0    0 -0.36581462660E+02 -0.19477578562E+02  0.17650326055E+02  0.45045682222E+02  0.00000000000E+00 0.  1.
         11    1    3    3    0    0  0.18735281901E+02  0.93506406148E+01 -0.70060210473E+01  0.22080072441E+02  0.51100000000E-03 0. -1.
        -11    1    3    3    0    0  0.13673230112E+02  0.10382774205E+02 -0.70904166565E+01  0.18575070135E+02  0.51100000000E-03 0.  1.
        -12    1    3    3    0    0  0.41729506469E+01 -0.25583625766E+00 -0.35538883507E+01  0.54871752024E+01  0.00000000000E+00 0.  1.
</event>
<event>
 7    1  0.1538805E-008  0.4614232E+02  0.7816164E-02  0.1320468E+00
        -11   -1    0    0    0    0  0.00000000000E+00  0.00000000000E+00  0.45593999997E+02  0.45594000000E+02  0.51100000000E-03 0.  1.
         11   -1    0    0    0    0 -0.00000000000E+00 -0.00000000000E+00 -0.45593999997E+02  0.45594000000E+02  0.51100000000E-03 0. -1.
    9900012    2    1    2    0    0  0.27745640947E+02 -0.56111953916E+01 -0.35040083597E+02  0.46142316924E+02  0.99999923697E+01 0.  0.
        -12    1    1    2    0    0 -0.27745640947E+02  0.56111953916E+01  0.35040083597E+02  0.45045683076E+02  0.00000000000E+00 0.  1.
         11    1    3    3    0    0  0.19330491198E+01 -0.57131934886E-01  0.23558705061E-02  0.19338947151E+01  0.51100000000E-03 0. -1.
        -11    1    3    3    0    0  0.11496418460E+02 -0.40788848508E+00 -0.12243777876E+02  0.16800122243E+02  0.51100000000E-03 0.  1.
         12    1    3    3    0    0  0.14316173367E+02 -0.51461749716E+01 -0.22798661591E+02  0.27408299967E+02  0.00000000000E+00 0. -1.
</event>
<event>
 7    1  0.1538805E-008  0.4614232E+02  0.7816164E-02  0.1320468E+00
        -11   -1    0    0    0    0  0.00000000000E+00  0.00000000000E+00  0.45593999997E+02  0.45594000000E+02  0.51100000000E-03 0.  1.
         11   -1    0    0    0    0 -0.00000000000E+00 -0.00000000000E+00 -0.45593999997E+02  0.45594000000E+02  0.51100000000E-03 0. -1.
    9900012    2    1    2    0    0 -0.11870999196E+02 -0.32423644307E+02 -0.28929226450E+02  0.46142317909E+02  0.10000001348E+02 0.  0.
        -12    1    1    2    0    0  0.11870999196E+02  0.32423644307E+02  0.28929226450E+02  0.45045682091E+02  0.00000000000E+00 0.  1.
         11    1    3    3    0    0 -0.20852006408E+01 -0.14647612104E+02 -0.14000961002E+02  0.20369769545E+02  0.51100000000E-03 0. -1.
        -11    1    3    3    0    0  0.13816616982E+00  0.30236439288E+00 -0.35699535304E-01  0.33434837296E+00  0.51100000000E-03 0.  1.
        -12    1    3    3    0    0 -0.99239647249E+01 -0.18078396595E+02 -0.14892565913E+02  0.25438199991E+02  0.00000000000E+00 0.  1.
</event>
<event>
 7    1  0.1538805E-008  0.4614232E+02  0.7816164E-02  0.1320468E+00
        -11   -1    0    0    0    0  0.00000000000E+00  0.00000000000E+00  0.45593999997E+02  0.45594000000E+02  0.51100000000E-03 0.  1.
         11   -1    0    0    0    0 -0.00000000000E+00 -0.00000000000E+00 -0.45593999997E+02  0.45594000000E+02  0.51100000000E-03 0. -1.
    9900012    2    1    2    0    0  0.38621263765E+02 -0.15608067556E+02 -0.17143501975E+02  0.46142318214E+02  0.10000004127E+02 0.  0.
        -12    1    1    2    0    0 -0.38621263765E+02  0.15608067556E+02  0.17143501975E+02  0.45045681786E+02  0.00000000000E+00 0.  1.
         11    1    3    3    0    0  0.22618957503E+02 -0.12120592094E+02 -0.12570512061E+02  0.28575229920E+02  0.51100000000E-03 0. -1.
        -11    1    3    3    0    0  0.58885247935E+01 -0.81924222660E+00  0.45286995969E+00  0.59624637132E+01  0.51100000000E-03 0.  1.
         12    1    3    3    0    0  0.10113781468E+02 -0.26682332353E+01 -0.50258598735E+01  0.11604624580E+02  0.00000000000E+00 0. -1.
</event>
<event>
 7    1  0.1538805E-008  0.4614232E+02  0.7816164E-02  0.1320468E+00
        -11   -1    0    0    0    0  0.00000000000E+00  0.00000000000E+00  0.45593999997E+02  0.45594000000E+02  0.51100000000E-03 0.  1.
         11   -1    0    0    0    0 -0.00000000000E+00 -0.00000000000E+00 -0.45593999997E+02  0.45594000000E+02  0.51100000000E-03 0. -1.
    9900012    2    1    2    0    0 -0.13711596941E+02  0.26671382153E+02 -0.33611649689E+02  0.46142317505E+02  0.99999976670E+01 0.  0.
        -12    1    1    2    0    0  0.13711596941E+02 -0.26671382153E+02  0.33611649689E+02  0.45045682495E+02  0.00000000000E+00 0.  1.
         11    1    3    3    0    0 -0.89596107616E+01  0.79056439870E+01 -0.11344085354E+02  0.16476107084E+02  0.51100000000E-03 0.  1.
        -11    1    3    3    0    0 -0.22103485587E+01  0.57786531792E+01 -0.90483541288E+01  0.10961349644E+02  0.51100000000E-03 0. -1.
        -12    1    3    3    0    0 -0.25416376209E+01  0.12987084987E+02 -0.13219210205E+02  0.18704860777E+02  0.00000000000E+00 0.  1.
</event>
<event>
 7    1  0.1538805E-008  0.4614232E+02  0.7816164E-02  0.1320468E+00
        -11   -1    0    0    0    0  0.00000000000E+00  0.00000000000E+00  0.45593999997E+02  0.45594000000E+02  0.51100000000E-03 0.  1.
         11   -1    0    0    0    0 -0.00000000000E+00 -0.00000000000E+00 -0.45593999997E+02  0.45594000000E+02  0.51100000000E-03 0. -1.
    9900012    2    1    2    0    0 -0.37900887354E+02  0.12067086752E+02 -0.21142882682E+02  0.46142319485E+02  0.10000015724E+02 0.  0.
        -12    1    1    2    0    0  0.37900887354E+02 -0.12067086752E+02  0.21142882682E+02  0.45045680515E+02  0.00000000000E+00 0.  1.
         11    1    3    3    0    0 -0.20353595642E+02  0.29460100054E+01 -0.10261244567E+02  0.22983493442E+02  0.51100000000E-03 0. -1.
        -11    1    3    3    0    0 -0.16371728214E+02  0.96753476393E+01 -0.94854657755E+01  0.21251350496E+02  0.51100000000E-03 0.  1.
        -12    1    3    3    0    0 -0.11755634989E+01 -0.55427089249E+00 -0.13961723400E+01  0.19074755477E+01  0.00000000000E+00 0.  1.
</event>
<event>
 7    1  0.1538805E-008  0.4614232E+02  0.7816164E-02  0.1320468E+00
        -11   -1    0    0    0    0  0.00000000000E+00  0.00000000000E+00  0.45593999997E+02  0.45594000000E+02  0.51100000000E-03 0.  1.
         11   -1    0    0    0    0 -0.00000000000E+00 -0.00000000000E+00 -0.45593999997E+02  0.45594000000E+02  0.51100000000E-03 0. -1.
    9900012    2    1    2    0    0  0.42227013891E+02  0.10853221226E+02  0.11322562904E+02  0.46142317145E+02  0.99999943833E+01 0.  0.
        -12    1    1    2    0    0 -0.42227013891E+02 -0.10853221226E+02 -0.11322562904E+02  0.45045682855E+02  0.00000000000E+00 0.  1.
         11    1    3    3    0    0  0.28246331595E+02  0.36894918223E+01  0.70359209830E+01  0.29342320679E+02  0.51100000000E-03 0. -1.
        -11    1    3    3    0    0  0.11134594901E+02  0.74074193610E+01  0.37951656382E+01  0.13901523214E+02  0.51100000000E-03 0.  1.
        -12    1    3    3    0    0  0.28460873952E+01 -0.24368995692E+00  0.49147628310E+00  0.28984732521E+01  0.00000000000E+00 0.  1.
</event>
<event>
 7    1  0.1538805E-008  0.4614233E+02  0.7816164E-02  0.1320468E+00
        -11   -1    0    0    0    0  0.00000000000E+00  0.00000000000E+00  0.45593999997E+02  0.45594000000E+02  0.51100000000E-03 0. -1.
         11   -1    0    0    0    0 -0.00000000000E+00 -0.00000000000E+00 -0.45593999997E+02  0.45594000000E+02  0.51100000000E-03 0.  1.
    9900012    2    1    2    0    0 -0.25363273981E+02 -0.37006069247E+02  0.40456840174E+01  0.46142329983E+02  0.10000111446E+02 0.  0.
        -12    1    1    2    0    0  0.25363273981E+02  0.37006069247E+02 -0.40456840174E+01  0.45045670017E+02  0.00000000000E+00 0.  1.
         11    1    3    3    0    0 -0.71084742693E+01 -0.65412149758E+01  0.35729337096E+01  0.10299696857E+02  0.51100000000E-03 0. -1.
        -11    1    3    3    0    0 -0.17547258883E+02 -0.26345720098E+02  0.62135176149E+00  0.31660532845E+02  0.51100000000E-03 0.  1.
        -12    1    3    3    0    0 -0.70754082872E+00 -0.41191341736E+01 -0.14860145374E+00  0.41821002806E+01  0.00000000000E+00 0.  1.
</event>
<event>
 7    1  0.1538805E-008  0.4614232E+02  0.7816164E-02  0.1320468E+00
        -11   -1    0    0    0    0  0.00000000000E+00  0.00000000000E+00  0.45593999997E+02  0.45594000000E+02  0.51100000000E-03 0.  1.
         11   -1    0    0    0    0 -0.00000000000E+00 -0.00000000000E+00 -0.45593999997E+02  0.45594000000E+02  0.51100000000E-03 0. -1.
    9900012    2    1    2    0    0  0.56291586220E+01 -0.20561642062E+02 -0.39681796213E+02  0.46142317612E+02  0.99999986433E+01 0.  0.
        -12    1    1    2    0    0 -0.56291586220E+01  0.20561642062E+02  0.39681796213E+02  0.45045682388E+02  0.00000000000E+00 0.  1.
         11    1    3    3    0    0  0.23948079733E+01 -0.11240785647E+02 -0.19638074289E+02  0.22753995896E+02  0.51100000000E-03 0. -1.
        -11    1    3    3    0    0 -0.96952993149E+00 -0.68445541277E+01 -0.92924549466E+01  0.11581780031E+02  0.51100000000E-03 0.  1.
        -12    1    3    3    0    0  0.42038805802E+01 -0.24763022882E+01 -0.10751266977E+02  0.11806541685E+02  0.00000000000E+00 0.  1.
</event>
<event>
 7    1  0.1538805E-008  0.4614232E+02  0.7816164E-02  0.1320468E+00
        -11   -1    0    0    0    0  0.00000000000E+00  0.00000000000E+00  0.45593999997E+02  0.45594000000E+02  0.51100000000E-03 0. -1.
         11   -1    0    0    0    0 -0.00000000000E+00 -0.00000000000E+00 -0.45593999997E+02  0.45594000000E+02  0.51100000000E-03 0.  1.
    9900012    2    1    2    0    0 -0.30009093234E+02  0.22966659878E+02  0.24517348957E+02  0.46142317160E+02  0.99999945150E+01 0.  0.
        -12    1    1    2    0    0  0.30009093234E+02 -0.22966659878E+02 -0.24517348957E+02  0.45045682840E+02  0.00000000000E+00 0.  1.
         11    1    3    3    0    0 -0.12424277117E+01  0.37136829760E+01  0.35763718494E+01  0.53033483509E+01  0.51100000000E-03 0. -1.
        -11    1    3    3    0    0 -0.22881141319E+02  0.12542331158E+02  0.14718063181E+02  0.29957938564E+02  0.51100000000E-03 0.  1.
        -12    1    3    3    0    0 -0.58855242028E+01  0.67106457437E+01  0.62229139272E+01  0.10881030245E+02  0.00000000000E+00 0.  1.
</event>
<event>
 7    1  0.1538805E-008  0.4614232E+02  0.7816164E-02  0.1320468E+00
        -11   -1    0    0    0    0  0.00000000000E+00  0.00000000000E+00  0.45593999997E+02  0.45594000000E+02  0.51100000000E-03 0.  1.
         11   -1    0    0    0    0 -0.00000000000E+00 -0.00000000000E+00 -0.45593999997E+02  0.45594000000E+02  0.51100000000E-03 0. -1.
    9900012    2    1    2    0    0 -0.31029203201E+01 -0.14967010383E+02 -0.42373033738E+02  0.46142317605E+02  0.99999985721E+01 0.  0.
        -12    1    1    2    0    0  0.31029203201E+01  0.14967010383E+02  0.42373033738E+02  0.45045682395E+02  0.00000000000E+00 0.  1.
         11    1    3    3    0    0 -0.95422317453E+00  0.98745228364E-01 -0.84296304127E+01  0.84840415866E+01  0.51100000000E-03 0.  1.
        -11    1    3    3    0    0 -0.17811744973E+01 -0.15416137465E+02 -0.33686473708E+02  0.37089195032E+02  0.51100000000E-03 0. -1.
        -12    1    3    3    0    0 -0.36752264833E+00  0.35038185425E+00 -0.25692961715E+00  0.56908098632E+00  0.00000000000E+00 0.  1.
</event>
<event>
 7    1  0.1538805E-008  0.4614232E+02  0.7816164E-02  0.1320468E+00
        -11   -1    0    0    0    0  0.00000000000E+00  0.00000000000E+00  0.45593999997E+02  0.45594000000E+02  0.51100000000E-03 0.  1.
         11   -1    0    0    0    0 -0.00000000000E+00 -0.00000000000E+00 -0.45593999997E+02  0.45594000000E+02  0.51100000000E-03 0. -1.
    9900012    2    1    2    0    0  0.37674041131E+00  0.31598422769E+02 -0.32101577411E+02  0.46142317331E+02  0.99999960791E+01 0.  0.
        -12    1    1    2    0    0 -0.37674041131E+00 -0.31598422769E+02  0.32101577411E+02  0.45045682669E+02  0.00000000000E+00 0.  1.
         11    1    3    3    0    0 -0.40918668219E+00  0.41490559910E+01 -0.45551882584E+01  0.61750983546E+01  0.51100000000E-03 0. -1.
        -11    1    3    3    0    0  0.35293619113E+01  0.75858477201E+01 -0.48062545986E+01  0.96489152064E+01  0.51100000000E-03 0.  1.
        -12    1    3    3    0    0 -0.27434348178E+01  0.19863519058E+02 -0.22740134554E+02  0.30318303770E+02  0.00000000000E+00 0.  1.
</event>
<event>
 7    1  0.1538805E-008  0.4614232E+02  0.7816164E-02  0.1320468E+00
        -11   -1    0    0    0    0  0.00000000000E+00  0.00000000000E+00  0.45593999997E+02  0.45594000000E+02  0.51100000000E-03 0. -1.
         11   -1    0    0    0    0 -0.00000000000E+00 -0.00000000000E+00 -0.45593999997E+02  0.45594000000E+02  0.51100000000E-03 0.  1.
    9900012    2    1    2    0    0 -0.29173817751E+02  0.30652661018E+02  0.15440731483E+02  0.46142318094E+02  0.10000003037E+02 0.  0.
        -12    1    1    2    0    0  0.29173817751E+02 -0.30652661018E+02 -0.15440731483E+02  0.45045681906E+02  0.00000000000E+00 0.  1.
         11    1    3    3    0    0 -0.95113675184E+01  0.10254688883E+02  0.41806573152E+01  0.14598035896E+02  0.51100000000E-03 0. -1.
        -11    1    3    3    0    0 -0.98484676434E+01  0.47955667402E+01  0.53273956507E+01  0.12180760237E+02  0.51100000000E-03 0.  1.
        -12    1    3    3    0    0 -0.98139825894E+01  0.15602405394E+02  0.59326785167E+01  0.19363521961E+02  0.00000000000E+00 0.  1.
</event>
<event>
 7    1  0.1538805E-008  0.4614232E+02  0.7816164E-02  0.1320468E+00
        -11   -1    0    0    0    0  0.00000000000E+00  0.00000000000E+00  0.45593999997E+02  0.45594000000E+02  0.51100000000E-03 0.  1.
         11   -1    0    0    0    0 -0.00000000000E+00 -0.00000000000E+00 -0.45593999997E+02  0.45594000000E+02  0.51100000000E-03 0. -1.
    9900012    2    1    2    0    0 -0.24364577286E+01  0.19500578372E+02 -0.40532758789E+02  0.46142318541E+02  0.10000007109E+02 0.  0.
        -12    1    1    2    0    0  0.24364577286E+01 -0.19500578372E+02  0.40532758789E+02  0.45045681459E+02  0.00000000000E+00 0.  1.
         11    1    3    3    0    0 -0.53039178754E+01  0.15429348515E+02 -0.27312913055E+02  0.31814958121E+02  0.51100000000E-03 0. -1.
        -11    1    3    3    0    0  0.20596922703E+01  0.42055453096E+01 -0.10761361656E+02  0.11736091707E+02  0.51100000000E-03 0.  1.
        -12    1    3    3    0    0  0.80776787641E+00 -0.13431545250E+00 -0.24584840769E+01  0.25912687123E+01  0.00000000000E+00 0.  1.
</event>
<event>
 7    1  0.1538805E-008  0.4614232E+02  0.7816164E-02  0.1320468E+00
        -11   -1    0    0    0    0  0.00000000000E+00  0.00000000000E+00  0.45593999997E+02  0.45594000000E+02  0.51100000000E-03 0.  1.
         11   -1    0    0    0    0 -0.00000000000E+00 -0.00000000000E+00 -0.45593999997E+02  0.45594000000E+02  0.51100000000E-03 0. -1.
    9900012    2    1    2    0    0 -0.30449046758E+02 -0.15039259209E+02 -0.29593745215E+02  0.46142317390E+02  0.99999966140E+01 0.  0.
        -12    1    1    2    0    0  0.30449046758E+02  0.15039259209E+02  0.29593745215E+02  0.45045682610E+02  0.00000000000E+00 0.  1.
         11    1    3    3    0    0 -0.16716506329E+02 -0.82230132698E+01 -0.17683294905E+02  0.25685763567E+02  0.51100000000E-03 0. -1.
        -11    1    3    3    0    0 -0.12490973725E+02 -0.41839193988E+01 -0.74594290001E+01  0.15138450628E+02  0.51100000000E-03 0.  1.
        -12    1    3    3    0    0 -0.12415667037E+01 -0.26323265400E+01 -0.44510213097E+01  0.53181031950E+01  0.00000000000E+00 0.  1.
</event>
<event>
 7    1  0.1538805E-008  0.4614232E+02  0.7816164E-02  0.1320468E+00
        -11   -1    0    0    0    0  0.00000000000E+00  0.00000000000E+00  0.45593999997E+02  0.45594000000E+02  0.51100000000E-03 0. -1.
         11   -1    0    0    0    0 -0.00000000000E+00 -0.00000000000E+00 -0.45593999997E+02  0.45594000000E+02  0.51100000000E-03 0.  1.
    9900012    2    1    2    0    0 -0.37954221411E+02 -0.19221207505E+02  0.14803220896E+02  0.46142322186E+02  0.10000040346E+02 0.  0.
        -12    1    1    2    0    0  0.37954221411E+02  0.19221207505E+02 -0.14803220896E+02  0.45045677814E+02  0.00000000000E+00 0.  1.
         11    1    3    3    0    0 -0.23166694207E+02 -0.14503506751E+02  0.67640351264E+01  0.28156697250E+02  0.51100000000E-03 0. -1.
        -11    1    3    3    0    0 -0.40043623380E+01  0.59003854991E+00  0.16164601971E+01  0.43584408972E+01  0.51100000000E-03 0.  1.
        -12    1    3    3    0    0 -0.10783164866E+02 -0.53077393039E+01  0.64227255725E+01  0.13627184038E+02  0.00000000000E+00 0.  1.
</event>
<event>
 7    1  0.1538805E-008  0.4614232E+02  0.7816164E-02  0.1320468E+00
        -11   -1    0    0    0    0  0.00000000000E+00  0.00000000000E+00  0.45593999997E+02  0.45594000000E+02  0.51100000000E-03 0.  1.
         11   -1    0    0    0    0 -0.00000000000E+00 -0.00000000000E+00 -0.45593999997E+02  0.45594000000E+02  0.51100000000E-03 0. -1.
    9900012    2    1    2    0    0 -0.24886248090E+02  0.21213380685E+02 -0.30980325818E+02  0.46142318166E+02  0.10000003695E+02 0.  0.
        -12    1    1    2    0    0  0.24886248090E+02 -0.21213380685E+02  0.30980325818E+02  0.45045681834E+02  0.00000000000E+00 0.  1.
         11    1    3    3    0    0 -0.10094859527E+02  0.11357390655E+02 -0.15500378744E+02  0.21706180061E+02  0.51100000000E-03 0. -1.
        -11    1    3    3    0    0 -0.24585154965E+01 -0.18369944124E+00 -0.35755095489E+00  0.24911617527E+01  0.51100000000E-03 0.  1.
        -12    1    3    3    0    0 -0.12332873067E+02  0.10039689471E+02 -0.15122396119E+02  0.21944976353E+02  0.00000000000E+00 0.  1.
</event>
<event>
 7    1  0.1538805E-008  0.4614232E+02  0.7816164E-02  0.1320468E+00
        -11   -1    0    0    0    0  0.00000000000E+00  0.00000000000E+00  0.45593999997E+02  0.45594000000E+02  0.51100000000E-03 0.  1.
         11   -1    0    0    0    0 -0.00000000000E+00 -0.00000000000E+00 -0.45593999997E+02  0.45594000000E+02  0.51100000000E-03 0. -1.
    9900012    2    1    2    0    0  0.53978345590E+01  0.14363511679E+02 -0.42351699881E+02  0.46142316872E+02  0.99999918943E+01 0.  0.
        -12    1    1    2    0    0 -0.53978345590E+01 -0.14363511679E+02  0.42351699881E+02  0.45045683128E+02  0.00000000000E+00 0.  1.
         11    1    3    3    0    0  0.12138014744E+01  0.11378436838E+02 -0.30110017512E+02  0.32211105131E+02  0.51100000000E-03 0. -1.
        -11    1    3    3    0    0  0.43600606309E+01  0.78280795950E+00 -0.85343359994E+01  0.96154983344E+01  0.51100000000E-03 0.  1.
        -12    1    3    3    0    0 -0.17602754640E+00  0.22022668807E+01 -0.37073463690E+01  0.43157134069E+01  0.00000000000E+00 0.  1.
</event>
<event>
 7    1  0.1736838E-008  0.4614232E+02  0.7816164E-02  0.1320468E+00
        -11   -1    0    0    0    0  0.00000000000E+00  0.00000000000E+00  0.45593999997E+02  0.45594000000E+02  0.51100000000E-03 0. -1.
         11   -1    0    0    0    0 -0.00000000000E+00 -0.00000000000E+00 -0.45593999997E+02  0.45594000000E+02  0.51100000000E-03 0.  1.
    9900012    2    1    2    0    0 -0.31666394789E+02 -0.11255988453E+02  0.29994261019E+02  0.46142317309E+02  0.99999958788E+01 0.  0.
        -12    1    1    2    0    0  0.31666394789E+02  0.11255988453E+02 -0.29994261019E+02  0.45045682691E+02  0.00000000000E+00 0.  1.
         11    1    3    3    0    0 -0.21446757702E+02 -0.76468479963E+01  0.21252780629E+02  0.31146723502E+02  0.51100000000E-03 0. -1.
        -11    1    3    3    0    0 -0.60688545181E+01 -0.14519663302E+01  0.15721597939E+01  0.64351292189E+01  0.51100000000E-03 0.  1.
        -12    1    3    3    0    0 -0.41507825689E+01 -0.21571741268E+01  0.71693205962E+01  0.85604645878E+01  0.00000000000E+00 0.  1.
</event>
<event>
 7    1  0.1538805E-008  0.4614232E+02  0.7816164E-02  0.1320468E+00
        -11   -1    0    0    0    0  0.00000000000E+00  0.00000000000E+00  0.45593999997E+02  0.45594000000E+02  0.51100000000E-03 0.  1.
         11   -1    0    0    0    0 -0.00000000000E+00 -0.00000000000E+00 -0.45593999997E+02  0.45594000000E+02  0.51100000000E-03 0. -1.
    9900012    2    1    2    0    0 -0.27833981690E+02  0.33988115360E+02 -0.99594543500E+01  0.46142320369E+02  0.10000023781E+02 0.  0.
        -12    1    1    2    0    0  0.27833981690E+02 -0.33988115360E+02  0.99594543500E+01  0.45045679631E+02  0.00000000000E+00 0.  1.
         11    1    3    3    0    0 -0.18194837463E+02  0.19565592189E+02 -0.68802802640E+01  0.27589903312E+02  0.51100000000E-03 0. -1.
        -11    1    3    3    0    0 -0.21666516645E+00  0.30861440025E+01 -0.21787914729E+01  0.37839610386E+01  0.51100000000E-03 0.  1.
         12    1    3    3    0    0 -0.94224790611E+01  0.11336379168E+02 -0.90038261306E+00  0.14768456018E+02  0.00000000000E+00 0. -1.
</event>
<event>
 7    1  0.1538805E-008  0.4614232E+02  0.7816164E-02  0.1320468E+00
        -11   -1    0    0    0    0  0.00000000000E+00  0.00000000000E+00  0.45593999997E+02  0.45594000000E+02  0.51100000000E-03 0. -1.
         11   -1    0    0    0    0 -0.00000000000E+00 -0.00000000000E+00 -0.45593999997E+02  0.45594000000E+02  0.51100000000E-03 0.  1.
    9900012    2    1    2    0    0  0.43232056172E+02  0.10677461655E+02  0.67892987459E+01  0.46142318235E+02  0.10000004318E+02 0.  0.
        -12    1    1    2    0    0 -0.43232056172E+02 -0.10677461655E+02 -0.67892987459E+01  0.45045681765E+02  0.00000000000E+00 0.  1.
         11    1    3    3    0    0  0.27773842690E+02  0.77227740573E+01  0.16138195213E+01  0.28872685892E+02  0.51100000000E-03 0. -1.
        -11    1    3    3    0    0  0.11173740584E+02  0.27064365501E+01  0.58917832436E+01  0.12918606252E+02  0.51100000000E-03 0.  1.
        -12    1    3    3    0    0  0.42844728972E+01  0.24825104792E+00 -0.71630401897E+00  0.43510260902E+01  0.00000000000E+00 0.  1.
</event>
<event>
 7    1  0.1538805E-008  0.4614232E+02  0.7816164E-02  0.1320468E+00
        -11   -1    0    0    0    0  0.00000000000E+00  0.00000000000E+00  0.45593999997E+02  0.45594000000E+02  0.51100000000E-03 0. -1.
         11   -1    0    0    0    0 -0.00000000000E+00 -0.00000000000E+00 -0.45593999997E+02  0.45594000000E+02  0.51100000000E-03 0.  1.
    9900012    2    1    2    0    0 -0.12066541422E+01  0.44602738797E+02  0.61849170640E+01  0.46142317394E+02  0.99999966480E+01 0.  0.
        -12    1    1    2    0    0  0.12066541422E+01 -0.44602738797E+02 -0.61849170640E+01  0.45045682606E+02  0.00000000000E+00 0.  1.
         11    1    3    3    0    0  0.75383586540E+00  0.36560000547E+01  0.24964966715E+01  0.44907795319E+01  0.51100000000E-03 0. -1.
        -11    1    3    3    0    0 -0.34228885116E+00  0.23654445679E+01  0.17965672487E+01  0.29900073247E+01  0.51100000000E-03 0.  1.
         12    1    3    3    0    0 -0.16182011565E+01  0.38581294174E+02  0.18918531438E+01  0.38661530537E+02  0.00000000000E+00 0. -1.
</event>
<event>
 7    1  0.1538805E-008  0.4614232E+02  0.7816164E-02  0.1320468E+00
        -11   -1    0    0    0    0  0.00000000000E+00  0.00000000000E+00  0.45593999997E+02  0.45594000000E+02  0.51100000000E-03 0. -1.
         11   -1    0    0    0    0 -0.00000000000E+00 -0.00000000000E+00 -0.45593999997E+02  0.45594000000E+02  0.51100000000E-03 0.  1.
    9900012    2    1    2    0    0 -0.29225500025E+02 -0.18046420124E+02 -0.29142928847E+02  0.46142318378E+02  0.10000005622E+02 0.  0.
        -12    1    1    2    0    0  0.29225500025E+02  0.18046420124E+02  0.29142928847E+02  0.45045681622E+02  0.00000000000E+00 0.  1.
         11    1    3    3    0    0 -0.18497206146E+02 -0.12006845292E+02 -0.18792055210E+02  0.28973303373E+02  0.51100000000E-03 0. -1.
        -11    1    3    3    0    0 -0.40801967155E+01 -0.44473894082E+01 -0.78227439052E+01  0.98804149839E+01  0.51100000000E-03 0.  1.
        -12    1    3    3    0    0 -0.66480971632E+01 -0.15921854246E+01 -0.25281297324E+01  0.72886000207E+01  0.00000000000E+00 0.  1.
</event>
<event>
 7    1  0.1538805E-008  0.4614232E+02  0.7816164E-02  0.1320468E+00
        -11   -1    0    0    0    0  0.00000000000E+00  0.00000000000E+00  0.45593999997E+02  0.45594000000E+02  0.51100000000E-03 0.  1.
         11   -1    0    0    0    0 -0.00000000000E+00 -0.00000000000E+00 -0.45593999997E+02  0.45594000000E+02  0.51100000000E-03 0. -1.
    9900012    2    1    2    0    0  0.25046737346E+01 -0.44909154447E+02  0.24511168127E+01  0.46142317440E+02  0.99999970738E+01 0.  0.
        -12    1    1    2    0    0 -0.25046737346E+01  0.44909154447E+02 -0.24511168127E+01  0.45045682560E+02  0.00000000000E+00 0.  1.
         11    1    3    3    0    0 -0.13342136148E+01 -0.20971296150E+02  0.67664863265E+00  0.21024586603E+02  0.51100000000E-03 0. -1.
        -11    1    3    3    0    0  0.16643821800E+01 -0.42286654505E+01 -0.19449234665E+01  0.49431272576E+01  0.51100000000E-03 0.  1.
        -12    1    3    3    0    0  0.21745051695E+01 -0.19709192846E+02  0.37193916465E+01  0.20174603580E+02  0.00000000000E+00 0.  1.
</event>
<event>
 7    1  0.1538805E-008  0.4614232E+02  0.7816164E-02  0.1320468E+00
        -11   -1    0    0    0    0  0.00000000000E+00  0.00000000000E+00  0.45593999997E+02  0.45594000000E+02  0.51100000000E-03 0. -1.
         11   -1    0    0    0    0 -0.00000000000E+00 -0.00000000000E+00 -0.45593999997E+02  0.45594000000E+02  0.51100000000E-03 0.  1.
    9900012    2    1    2    0    0 -0.34959275638E+02  0.26781468191E+02  0.94718259127E+01  0.46142317880E+02  0.10000001080E+02 0.  0.
        -12    1    1    2    0    0  0.34959275638E+02 -0.26781468191E+02 -0.94718259127E+01  0.45045682120E+02  0.00000000000E+00 0.  1.
         11    1    3    3    0    0 -0.28310065648E+02  0.22761962671E+02  0.81679210430E+01  0.37232804032E+02  0.51100000000E-03 0. -1.
        -11    1    3    3    0    0 -0.32293933148E+01  0.41631663456E+00  0.21054916334E+01  0.38775502577E+01  0.51100000000E-03 0.  1.
        -12    1    3    3    0    0 -0.34198166745E+01  0.36031888849E+01 -0.80158676373E+00  0.50319635897E+01  0.00000000000E+00 0.  1.
</event>
<event>
 7    1  0.1538805E-008  0.4614232E+02  0.7816164E-02  0.1320468E+00
        -11   -1    0    0    0    0  0.00000000000E+00  0.00000000000E+00  0.45593999997E+02  0.45594000000E+02  0.51100000000E-03 0. -1.
         11   -1    0    0    0    0 -0.00000000000E+00 -0.00000000000E+00 -0.45593999997E+02  0.45594000000E+02  0.51100000000E-03 0.  1.
    9900012    2    1    2    0    0 -0.20385641183E+02 -0.35683877355E+02 -0.18444510830E+02  0.46142318195E+02  0.10000003956E+02 0.  0.
        -12    1    1    2    0    0  0.20385641183E+02  0.35683877355E+02  0.18444510830E+02  0.45045681805E+02  0.00000000000E+00 0.  1.
         11    1    3    3    0    0 -0.10044371902E+02 -0.18269343579E+02 -0.69459135713E+01  0.21975077641E+02  0.51100000000E-03 0. -1.
        -11    1    3    3    0    0 -0.15551903997E+01  0.19992359561E+00 -0.72214236677E+00  0.17262898025E+01  0.51100000000E-03 0.  1.
        -12    1    3    3    0    0 -0.87860788818E+01 -0.17614457371E+02 -0.10776454892E+02  0.22440950751E+02  0.00000000000E+00 0.  1.
</event>
<event>
 7    1  0.1538805E-008  0.4614232E+02  0.7816164E-02  0.1320468E+00
        -11   -1    0    0    0    0  0.00000000000E+00  0.00000000000E+00  0.45593999997E+02  0.45594000000E+02  0.51100000000E-03 0.  1.
         11   -1    0    0    0    0 -0.00000000000E+00 -0.00000000000E+00 -0.45593999997E+02  0.45594000000E+02  0.51100000000E-03 0. -1.
    9900012    2    1    2    0    0  0.20602790375E+02  0.65861317510E+01 -0.39512800394E+02  0.46142317658E+02  0.99999990554E+01 0.  0.
        -12    1    1    2    0    0 -0.20602790375E+02 -0.65861317510E+01  0.39512800394E+02  0.45045682342E+02  0.00000000000E+00 0.  1.
         11    1    3    3    0    0  0.92670086906E+01  0.46115160140E+01 -0.13392696630E+02  0.16926542863E+02  0.51100000000E-03 0. -1.
        -11    1    3    3    0    0  0.69371456013E+01 -0.10742980450E+01 -0.19360982403E+02  0.20594313420E+02  0.51100000000E-03 0.  1.
        -12    1    3    3    0    0  0.43986360833E+01  0.30489137821E+01 -0.67591213624E+01  0.86214613747E+01  0.00000000000E+00 0.  1.
</event>
<event>
 7    1  0.1538805E-008  0.4614232E+02  0.7816164E-02  0.1320468E+00
        -11   -1    0    0    0    0  0.00000000000E+00  0.00000000000E+00  0.45593999997E+02  0.45594000000E+02  0.51100000000E-03 0.  1.
         11   -1    0    0    0    0 -0.00000000000E+00 -0.00000000000E+00 -0.45593999997E+02  0.45594000000E+02  0.51100000000E-03 0. -1.
    9900012    2    1    2    0    0 -0.30090809815E+02 -0.33388627732E+02  0.29759025707E+01  0.46142319927E+02  0.10000019752E+02 0.  0.
        -12    1    1    2    0    0  0.30090809815E+02  0.33388627732E+02 -0.29759025707E+01  0.45045680073E+02  0.00000000000E+00 0.  1.
         11    1    3    3    0    0 -0.25331460375E+02 -0.31127675057E+02  0.20646713791E+01  0.40185543512E+02  0.51100000000E-03 0. -1.
        -11    1    3    3    0    0 -0.15892258304E+01  0.47980361950E+00 -0.35812325062E-01  0.16604616940E+01  0.51100000000E-03 0.  1.
         12    1    3    3    0    0 -0.31701236091E+01 -0.27407562947E+01  0.94704351670E+00  0.42963147215E+01  0.00000000000E+00 0. -1.
</event>
<event>
 7    1  0.1538805E-008  0.4614232E+02  0.7816164E-02  0.1320468E+00
        -11   -1    0    0    0    0  0.00000000000E+00  0.00000000000E+00  0.45593999997E+02  0.45594000000E+02  0.51100000000E-03 0. -1.
         11   -1    0    0    0    0 -0.00000000000E+00 -0.00000000000E+00 -0.45593999997E+02  0.45594000000E+02  0.51100000000E-03 0.  1.
    9900012    2    1    2    0    0 -0.14780310175E+02 -0.42547730660E+02 -0.58833272486E+00  0.46142322198E+02  0.10000040463E+02 0.  0.
        -12    1    1    2    0    0  0.14780310175E+02  0.42547730660E+02  0.58833272486E+00  0.45045677802E+02  0.00000000000E+00 0.  1.
         11    1    3    3    0    0 -0.88569285235E+01 -0.17087620314E+02 -0.19651483499E+01  0.19346673078E+02  0.51100000000E-03 0. -1.
        -11    1    3    3    0    0 -0.25294792075E+00 -0.78647467243E+01 -0.17119500843E+01  0.80528874970E+01  0.51100000000E-03 0.  1.
        -12    1    3    3    0    0 -0.56704337303E+01 -0.17595363622E+02  0.30887657093E+01  0.18742761624E+02  0.00000000000E+00 0.  1.
</event>
<event>
 7    1  0.1538805E-008  0.4614232E+02  0.7816164E-02  0.1320468E+00
        -11   -1    0    0    0    0  0.00000000000E+00  0.00000000000E+00  0.45593999997E+02  0.45594000000E+02  0.51100000000E-03 0.  1.
         11   -1    0    0    0    0 -0.00000000000E+00 -0.00000000000E+00 -0.45593999997E+02  0.45594000000E+02  0.51100000000E-03 0. -1.
    9900012    2    1    2    0    0 -0.98187638806E+01  0.19957331382E+02 -0.39171548519E+02  0.46142318593E+02  0.10000007587E+02 0.  0.
        -12    1    1    2    0    0  0.98187638806E+01 -0.19957331382E+02  0.39171548519E+02  0.45045681407E+02  0.00000000000E+00 0.  1.
         11    1    3    3    0    0  0.37351276703E+00  0.38152832267E+01 -0.45397080131E+01  0.59417881982E+01  0.51100000000E-03 0. -1.
        -11    1    3    3    0    0 -0.91524183256E+01  0.88008529164E+01 -0.25057536036E+02  0.28090957366E+02  0.51100000000E-03 0.  1.
        -12    1    3    3    0    0 -0.10398583220E+01  0.73411952394E+01 -0.95743044695E+01  0.12109573029E+02  0.00000000000E+00 0.  1.
</event>
<event>
 7    1  0.1538805E-008  0.4614232E+02  0.7816164E-02  0.1320468E+00
        -11   -1    0    0    0    0  0.00000000000E+00  0.00000000000E+00  0.45593999997E+02  0.45594000000E+02  0.51100000000E-03 0.  1.
         11   -1    0    0    0    0 -0.00000000000E+00 -0.00000000000E+00 -0.45593999997E+02  0.45594000000E+02  0.51100000000E-03 0. -1.
    9900012    2    1    2    0    0  0.28099956679E+02  0.10483587827E+02 -0.33609525722E+02  0.46142318760E+02  0.10000009112E+02 0.  0.
        -12    1    1    2    0    0 -0.28099956679E+02 -0.10483587827E+02  0.33609525722E+02  0.45045681240E+02  0.00000000000E+00 0.  1.
         11    1    3    3    0    0  0.98597156100E+01 -0.31083305942E+00 -0.80926446873E+01  0.12759369397E+02  0.51100000000E-03 0. -1.
        -11    1    3    3    0    0  0.84654991989E+01  0.65994701503E+01 -0.10823734258E+02  0.15243716951E+02  0.51100000000E-03 0.  1.
        -12    1    3    3    0    0  0.97747418699E+01  0.41949507357E+01 -0.14693146777E+02  0.18139232412E+02  0.00000000000E+00 0.  1.
</event>
<event>
 7    1  0.1538805E-008  0.4614232E+02  0.7816164E-02  0.1320468E+00
        -11   -1    0    0    0    0  0.00000000000E+00  0.00000000000E+00  0.45593999997E+02  0.45594000000E+02  0.51100000000E-03 0. -1.
         11   -1    0    0    0    0 -0.00000000000E+00 -0.00000000000E+00 -0.45593999997E+02  0.45594000000E+02  0.51100000000E-03 0.  1.
    9900012    2    1    2    0    0  0.19052956201E+02 -0.29010822979E+02  0.28713595208E+02  0.46142317191E+02  0.99999948040E+01 0.  0.
        -12    1    1    2    0    0 -0.19052956201E+02  0.29010822979E+02 -0.28713595208E+02  0.45045682809E+02  0.00000000000E+00 0.  1.
         11    1    3    3    0    0  0.78191990377E+01 -0.13713082926E+02  0.11751428195E+02  0.19679547297E+02  0.51100000000E-03 0. -1.
        -11    1    3    3    0    0 -0.45756694432E+00  0.18953128448E+00 -0.22216874076E+00  0.54281564718E+00  0.51100000000E-03 0.  1.
         12    1    3    3    0    0  0.11691324108E+02 -0.15487271338E+02  0.17184335754E+02  0.25919954247E+02  0.00000000000E+00 0. -1.
</event>
<event>
 7    1  0.1538805E-008  0.4614232E+02  0.7816164E-02  0.1320468E+00
        -11   -1    0    0    0    0  0.00000000000E+00  0.00000000000E+00  0.45593999997E+02  0.45594000000E+02  0.51100000000E-03 0. -1.
         11   -1    0    0    0    0 -0.00000000000E+00 -0.00000000000E+00 -0.45593999997E+02  0.45594000000E+02  0.51100000000E-03 0.  1.
    9900012    2    1    2    0    0 -0.25762566199E+02  0.33460924009E+02  0.15677060495E+02  0.46142317871E+02  0.10000001001E+02 0.  0.
        -12    1    1    2    0    0  0.25762566199E+02 -0.33460924009E+02 -0.15677060495E+02  0.45045682129E+02  0.00000000000E+00 0.  1.
         11    1    3    3    0    0 -0.21782244946E+01  0.70547776652E+01  0.22190975092E+01  0.77096656134E+01  0.51100000000E-03 0. -1.
        -11    1    3    3    0    0 -0.34401246383E+01  0.11597317731E+01  0.21096827892E+01  0.41988328194E+01  0.51100000000E-03 0.  1.
         12    1    3    3    0    0 -0.20144217066E+02  0.25246414571E+02  0.11348280196E+02  0.34233819438E+02  0.00000000000E+00 0. -1.
</event>
<event>
 7    1  0.1538805E-008  0.4614232E+02  0.7816164E-02  0.1320468E+00
        -11   -1    0    0    0    0  0.00000000000E+00  0.00000000000E+00  0.45593999997E+02  0.45594000000E+02  0.51100000000E-03 0.  1.
         11   -1    0    0    0    0 -0.00000000000E+00 -0.00000000000E+00 -0.45593999997E+02  0.45594000000E+02  0.51100000000E-03 0. -1.
    9900012    2    1    2    0    0  0.43331315801E+02 -0.53954515976E+01  0.11063439138E+02  0.46142317492E+02  0.99999975483E+01 0.  0.
        -12    1    1    2    0    0 -0.43331315801E+02  0.53954515976E+01 -0.11063439138E+02  0.45045682508E+02  0.00000000000E+00 0.  1.
         11    1    3    3    0    0  0.19479049079E+02 -0.17594905947E+01  0.69134278706E+01  0.20744267771E+02  0.51100000000E-03 0. -1.
        -11    1    3    3    0    0  0.73167493680E+01 -0.48464072891E+00 -0.17891571704E+01  0.75478991509E+01  0.51100000000E-03 0.  1.
        -12    1    3    3    0    0  0.16535517354E+02 -0.31513202740E+01  0.59391684381E+01  0.17850150570E+02  0.00000000000E+00 0.  1.
</event>
<event>
 7    1  0.1538805E-008  0.4614232E+02  0.7816164E-02  0.1320468E+00
        -11   -1    0    0    0    0  0.00000000000E+00  0.00000000000E+00  0.45593999997E+02  0.45594000000E+02  0.51100000000E-03 0.  1.
         11   -1    0    0    0    0 -0.00000000000E+00 -0.00000000000E+00 -0.45593999997E+02  0.45594000000E+02  0.51100000000E-03 0. -1.
    9900012    2    1    2    0    0  0.27039839564E+02 -0.96341890041E+00 -0.36014337447E+02  0.46142316506E+02  0.99999885593E+01 0.  0.
        -12    1    1    2    0    0 -0.27039839564E+02  0.96341890041E+00  0.36014337447E+02  0.45045683494E+02  0.00000000000E+00 0.  1.
         11    1    3    3    0    0  0.20851904396E+02 -0.31608356399E+01 -0.23757665771E+02  0.31768214965E+02  0.51100000000E-03 0. -1.
        -11    1    3    3    0    0  0.48668710856E+01  0.30301063408E+01 -0.80169486887E+01  0.98559345137E+01  0.51100000000E-03 0.  1.
        -12    1    3    3    0    0  0.13210640820E+01 -0.83268960138E+00 -0.42397229874E+01  0.45181670278E+01  0.00000000000E+00 0.  1.
</event>
<event>
 7    1  0.1538805E-008  0.4614232E+02  0.7816164E-02  0.1320468E+00
        -11   -1    0    0    0    0  0.00000000000E+00  0.00000000000E+00  0.45593999997E+02  0.45594000000E+02  0.51100000000E-03 0.  1.
         11   -1    0    0    0    0 -0.00000000000E+00 -0.00000000000E+00 -0.45593999997E+02  0.45594000000E+02  0.51100000000E-03 0. -1.
    9900012    2    1    2    0    0 -0.27237204727E+02  0.77906889008E+01 -0.35022185286E+02  0.46142316332E+02  0.99999869688E+01 0.  0.
        -12    1    1    2    0    0  0.27237204727E+02 -0.77906889008E+01  0.35022185286E+02  0.45045683668E+02  0.00000000000E+00 0.  1.
         11    1    3    3    0    0 -0.16917099422E+02  0.51227419096E+01 -0.19880907115E+02  0.26602278202E+02  0.51100000000E-03 0. -1.
        -11    1    3    3    0    0 -0.95882856864E+01  0.23005815509E+01 -0.90182920131E+01  0.13362540513E+02  0.51100000000E-03 0.  1.
        -12    1    3    3    0    0 -0.73181961855E+00  0.36736544027E+00 -0.61229861575E+01  0.61774976168E+01  0.00000000000E+00 0.  1.
</event>
<event>
 7    1  0.1538805E-008  0.4614232E+02  0.7816164E-02  0.1320468E+00
        -11   -1    0    0    0    0  0.00000000000E+00  0.00000000000E+00  0.45593999997E+02  0.45594000000E+02  0.51100000000E-03 0.  1.
         11   -1    0    0    0    0 -0.00000000000E+00 -0.00000000000E+00 -0.45593999997E+02  0.45594000000E+02  0.51100000000E-03 0. -1.
    9900012    2    1    2    0    0 -0.18261732740E+01  0.37437922633E+02 -0.24983605653E+02  0.46142317506E+02  0.99999976762E+01 0.  0.
        -12    1    1    2    0    0  0.18261732740E+01 -0.37437922633E+02  0.24983605653E+02  0.45045682494E+02  0.00000000000E+00 0.  1.
         11    1    3    3    0    0 -0.16585003387E+01  0.70561075771E+01 -0.32554082410E+01  0.79458769554E+01  0.51100000000E-03 0. -1.
        -11    1    3    3    0    0 -0.37833167494E+01  0.10631331164E+02 -0.67826319473E+01  0.13165970695E+02  0.51100000000E-03 0.  1.
        -12    1    3    3    0    0  0.36156438141E+01  0.19750483892E+02 -0.14945565464E+02  0.25030469856E+02  0.00000000000E+00 0.  1.
</event>
<event>
 7    1  0.1538805E-008  0.4614232E+02  0.7816164E-02  0.1320468E+00
        -11   -1    0    0    0    0  0.00000000000E+00  0.00000000000E+00  0.45593999997E+02  0.45594000000E+02  0.51100000000E-03 0.  1.
         11   -1    0    0    0    0 -0.00000000000E+00 -0.00000000000E+00 -0.45593999997E+02  0.45594000000E+02  0.51100000000E-03 0. -1.
    9900012    2    1    2    0    0 -0.26191463273E+02  0.34209847794E+02 -0.13145614596E+02  0.46142316327E+02  0.99999869207E+01 0.  0.
        -12    1    1    2    0    0  0.26191463273E+02 -0.34209847794E+02  0.13145614596E+02  0.45045683673E+02  0.00000000000E+00 0.  1.
         11    1    3    3    0    0 -0.22125446523E+02  0.22636424066E+02 -0.98419272956E+01  0.33148252013E+02  0.51100000000E-03 0. -1.
        -11    1    3    3    0    0 -0.96666660408E-01  0.20591100436E+01  0.27894743032E+00  0.20801659897E+01  0.51100000000E-03 0.  1.
         12    1    3    3    0    0 -0.39693500892E+01  0.95143136842E+01 -0.35826347304E+01  0.10913898324E+02  0.00000000000E+00 0. -1.
</event>
<event>
 7    1  0.1538805E-008  0.4614232E+02  0.7816164E-02  0.1320468E+00
        -11   -1    0    0    0    0  0.00000000000E+00  0.00000000000E+00  0.45593999997E+02  0.45594000000E+02  0.51100000000E-03 0. -1.
         11   -1    0    0    0    0 -0.00000000000E+00 -0.00000000000E+00 -0.45593999997E+02  0.45594000000E+02  0.51100000000E-03 0.  1.
    9900012    2    1    2    0    0  0.72815903809E+01 -0.34814975417E+01  0.44316712851E+02  0.46142318503E+02  0.10000006768E+02 0.  0.
        -12    1    1    2    0    0 -0.72815903809E+01  0.34814975417E+01 -0.44316712851E+02  0.45045681497E+02  0.00000000000E+00 0.  1.
         11    1    3    3    0    0  0.16669982386E+01  0.20891431528E+01  0.37604675918E+01  0.46135148218E+01  0.51100000000E-03 0. -1.
        -11    1    3    3    0    0  0.44010114906E+00 -0.20372586683E+01  0.48792393634E+01  0.53057599766E+01  0.51100000000E-03 0.  1.
         12    1    3    3    0    0  0.51744909932E+01 -0.35333820263E+01  0.35677005896E+02  0.36223043705E+02  0.00000000000E+00 0. -1.
</event>
<event>
 7    1  0.1538805E-008  0.4614232E+02  0.7816164E-02  0.1320468E+00
        -11   -1    0    0    0    0  0.00000000000E+00  0.00000000000E+00  0.45593999997E+02  0.45594000000E+02  0.51100000000E-03 0. -1.
         11   -1    0    0    0    0 -0.00000000000E+00 -0.00000000000E+00 -0.45593999997E+02  0.45594000000E+02  0.51100000000E-03 0.  1.
    9900012    2    1    2    0    0 -0.35767849552E+01  0.32815495515E+02  0.30650668331E+02  0.46142316459E+02  0.99999881286E+01 0.  0.
        -12    1    1    2    0    0  0.35767849552E+01 -0.32815495515E+02 -0.30650668331E+02  0.45045683541E+02  0.00000000000E+00 0.  1.
         11    1    3    3    0    0 -0.14708907644E+00  0.17463954741E+02  0.11886472849E+02  0.21125803830E+02  0.51100000000E-03 0. -1.
        -11    1    3    3    0    0 -0.22720515880E+00  0.10394784519E+01  0.42558572011E+01  0.43868506258E+01  0.51100000000E-03 0.  1.
         12    1    3    3    0    0 -0.32024907199E+01  0.14312062322E+02  0.14508338280E+02  0.20629662004E+02  0.00000000000E+00 0. -1.
</event>
<event>
 7    1  0.1538805E-008  0.4614232E+02  0.7816164E-02  0.1320468E+00
        -11   -1    0    0    0    0  0.00000000000E+00  0.00000000000E+00  0.45593999997E+02  0.45594000000E+02  0.51100000000E-03 0.  1.
         11   -1    0    0    0    0 -0.00000000000E+00 -0.00000000000E+00 -0.45593999997E+02  0.45594000000E+02  0.51100000000E-03 0. -1.
    9900012    2    1    2    0    0  0.11772983481E+02  0.89219282755E+00 -0.43470843609E+02  0.46142318829E+02  0.10000009740E+02 0.  0.
        -12    1    1    2    0    0 -0.11772983481E+02 -0.89219282755E+00  0.43470843609E+02  0.45045681171E+02  0.00000000000E+00 0.  1.
         11    1    3    3    0    0  0.65991813906E+01  0.25955114643E+01 -0.17332116610E+02  0.18726669251E+02  0.51100000000E-03 0. -1.
        -11    1    3    3    0    0 -0.65869698676E+00  0.19865032160E+00 -0.11795293075E+02  0.11815340987E+02  0.51100000000E-03 0.  1.
         12    1    3    3    0    0  0.58324990769E+01 -0.19019689584E+01 -0.14343433924E+02  0.15600308591E+02  0.00000000000E+00 0. -1.
</event>
<event>
 7    1  0.1538805E-008  0.4614232E+02  0.7816164E-02  0.1320468E+00
        -11   -1    0    0    0    0  0.00000000000E+00  0.00000000000E+00  0.45593999997E+02  0.45594000000E+02  0.51100000000E-03 0.  1.
         11   -1    0    0    0    0 -0.00000000000E+00 -0.00000000000E+00 -0.45593999997E+02  0.45594000000E+02  0.51100000000E-03 0. -1.
    9900012    2    1    2    0    0  0.79364276616E+01  0.42147404636E+02 -0.13773993980E+02  0.46142317502E+02  0.99999976328E+01 0.  0.
        -12    1    1    2    0    0 -0.79364276616E+01 -0.42147404636E+02  0.13773993980E+02  0.45045682498E+02  0.00000000000E+00 0.  1.
         11    1    3    3    0    0  0.34973136691E+01  0.11075725949E+02 -0.77919203352E+01  0.13986312272E+02  0.51100000000E-03 0. -1.
        -11    1    3    3    0    0  0.14926619402E+01  0.29491757789E+01 -0.90879684517E+00  0.34280591316E+01  0.51100000000E-03 0.  1.
         12    1    3    3    0    0  0.29464520522E+01  0.28122502908E+02 -0.50732767996E+01  0.28727946098E+02  0.00000000000E+00 0. -1.
</event>
<event>
 7    1  0.1538805E-008  0.4614232E+02  0.7816164E-02  0.1320468E+00
        -11   -1    0    0    0    0  0.00000000000E+00  0.00000000000E+00  0.45593999997E+02  0.45594000000E+02  0.51100000000E-03 0.  1.
         11   -1    0    0    0    0 -0.00000000000E+00 -0.00000000000E+00 -0.45593999997E+02  0.45594000000E+02  0.51100000000E-03 0. -1.
    9900012    2    1    2    0    0 -0.35468444953E+02  0.22176124170E+02 -0.16712944263E+02  0.46142316783E+02  0.99999910818E+01 0.  0.
        -12    1    1    2    0    0  0.35468444953E+02 -0.22176124170E+02  0.16712944263E+02  0.45045683217E+02  0.00000000000E+00 0.  1.
         11    1    3    3    0    0 -0.26104022763E+02  0.17418219990E+02 -0.16791251828E+02  0.35591579485E+02  0.51100000000E-03 0. -1.
        -11    1    3    3    0    0 -0.26304926281E+01  0.13977644904E+01  0.46608517826E+00  0.30150410763E+01  0.51100000000E-03 0.  1.
         12    1    3    3    0    0 -0.67339295616E+01  0.33601396895E+01 -0.38777761347E+00  0.75356962220E+01  0.00000000000E+00 0. -1.
</event>
