<event>
 7    1  0.4005571E-009  0.4778728E+02  0.7816164E-02  0.1312668E+00
        -11   -1    0    0    0    0  0.00000000000E+00  0.00000000000E+00  0.45593999997E+02  0.45594000000E+02  0.51100000000E-03 0. -1.
         11   -1    0    0    0    0 -0.00000000000E+00 -0.00000000000E+00 -0.45593999997E+02  0.45594000000E+02  0.51100000000E-03 0.  1.
    9900012    2    1    2    0    0 -0.12150059297E+02 -0.29364026529E+02 -0.29559304550E+02  0.47787280186E+02  0.20000041681E+02 0.  0.
         12    1    1    2    0    0  0.12150059297E+02  0.29364026529E+02  0.29559304550E+02  0.43400719814E+02  0.00000000000E+00 0. -1.
         11    1    3    3    0    0  0.25384057323E+00 -0.51441199664E+01 -0.40662996812E+01  0.65621032165E+01  0.51100000000E-03 0. -1.
        -11    1    3    3    0    0 -0.87084961376E+01 -0.17865411383E+02 -0.27191427129E+02  0.33680625564E+02  0.51100000000E-03 0.  1.
         12    1    3    3    0    0 -0.36954037329E+01 -0.63544951794E+01  0.16984222604E+01  0.75445514054E+01  0.00000000000E+00 0. -1.
</event>
<event>
 7    1  0.4005571E-009  0.4778727E+02  0.7816164E-02  0.1312668E+00
        -11   -1    0    0    0    0  0.00000000000E+00  0.00000000000E+00  0.45593999997E+02  0.45594000000E+02  0.51100000000E-03 0.  1.
         11   -1    0    0    0    0 -0.00000000000E+00 -0.00000000000E+00 -0.45593999997E+02  0.45594000000E+02  0.51100000000E-03 0. -1.
    9900012    2    1    2    0    0 -0.35338660537E+02 -0.83269464145E+01  0.23779492925E+02  0.47787271332E+02  0.20000001310E+02 0.  0.
         12    1    1    2    0    0  0.35338660537E+02  0.83269464145E+01 -0.23779492925E+02  0.43400728668E+02  0.00000000000E+00 0. -1.
         11    1    3    3    0    0 -0.91456254241E+01 -0.23338341549E+01  0.83174553505E+00  0.94752861253E+01  0.51100000000E-03 0. -1.
        -11    1    3    3    0    0 -0.23308560531E+02 -0.97463301778E+00  0.12749396512E+02  0.26585447433E+02  0.51100000000E-03 0.  1.
         12    1    3    3    0    0 -0.28844745827E+01 -0.50184792419E+01  0.10198350878E+02  0.11726537774E+02  0.00000000000E+00 0. -1.
</event>
<event>
 7    1  0.4005571E-009  0.4778727E+02  0.7816164E-02  0.1312668E+00
        -11   -1    0    0    0    0  0.00000000000E+00  0.00000000000E+00  0.45593999997E+02  0.45594000000E+02  0.51100000000E-03 0. -1.
         11   -1    0    0    0    0 -0.00000000000E+00 -0.00000000000E+00 -0.45593999997E+02  0.45594000000E+02  0.51100000000E-03 0.  1.
    9900012    2    1    2    0    0 -0.23021183723E+02 -0.36140097457E+02  0.68950598104E+01  0.47787269661E+02  0.19999993692E+02 0.  0.
         12    1    1    2    0    0  0.23021183723E+02  0.36140097457E+02 -0.68950598104E+01  0.43400730339E+02  0.00000000000E+00 0. -1.
         11    1    3    3    0    0 -0.83050517213E+00  0.42992859973E+00  0.40412437240E+01  0.41480391199E+01  0.51100000000E-03 0. -1.
        -11    1    3    3    0    0  0.51998522512E+00 -0.13566228527E+01  0.86375878712E+00  0.16902336235E+01  0.51100000000E-03 0.  1.
        -12    1    3    3    0    0 -0.22710663776E+02 -0.35213403204E+02  0.19900572992E+01  0.41948996917E+02  0.00000000000E+00 0.  1.
</event>
<event>
 7    1  0.4005571E-009  0.4778727E+02  0.7816164E-02  0.1312668E+00
        -11   -1    0    0    0    0  0.00000000000E+00  0.00000000000E+00  0.45593999997E+02  0.45594000000E+02  0.51100000000E-03 0.  1.
         11   -1    0    0    0    0 -0.00000000000E+00 -0.00000000000E+00 -0.45593999997E+02  0.45594000000E+02  0.51100000000E-03 0. -1.
    9900012    2    1    2    0    0 -0.10301421256E+02 -0.35109982512E+02 -0.23340806627E+02  0.47787269523E+02  0.19999993064E+02 0.  0.
         12    1    1    2    0    0  0.10301421256E+02  0.35109982512E+02  0.23340806627E+02  0.43400730477E+02  0.00000000000E+00 0. -1.
         11    1    3    3    0    0  0.16471263857E+01 -0.32833669717E+01 -0.35703576225E+00  0.36906637341E+01  0.51100000000E-03 0. -1.
        -11    1    3    3    0    0 -0.61509666986E+01 -0.64247654489E+01 -0.13902521541E+02  0.16504305737E+02  0.51100000000E-03 0.  1.
        -12    1    3    3    0    0 -0.57975809435E+01 -0.25401850092E+02 -0.90812493234E+01  0.27592300052E+02  0.00000000000E+00 0.  1.
</event>
<event>
 7    1  0.4005571E-009  0.4778732E+02  0.7816164E-02  0.1312668E+00
        -11   -1    0    0    0    0  0.00000000000E+00  0.00000000000E+00  0.45593999997E+02  0.45594000000E+02  0.51100000000E-03 0.  1.
         11   -1    0    0    0    0 -0.00000000000E+00 -0.00000000000E+00 -0.45593999997E+02  0.45594000000E+02  0.51100000000E-03 0. -1.
    9900012    2    1    2    0    0 -0.30290011725E+02  0.18630387873E+02  0.24880569428E+02  0.47787321461E+02  0.20000229867E+02 0.  0.
         12    1    1    2    0    0  0.30290011725E+02 -0.18630387873E+02 -0.24880569428E+02  0.43400678539E+02  0.00000000000E+00 0. -1.
         11    1    3    3    0    0 -0.99520375835E+01  0.12834840842E+01  0.74438132385E+01  0.12494028143E+02  0.51100000000E-03 0. -1.
        -11    1    3    3    0    0 -0.18108690639E+02  0.77844921751E+01  0.15963670874E+02  0.25364577330E+02  0.51100000000E-03 0.  1.
        -12    1    3    3    0    0 -0.22292835021E+01  0.95624116142E+01  0.14730853152E+01  0.99287159873E+01  0.00000000000E+00 0.  1.
</event>
<event>
 7    1  0.4005571E-009  0.4778727E+02  0.7816164E-02  0.1312668E+00
        -11   -1    0    0    0    0  0.00000000000E+00  0.00000000000E+00  0.45593999997E+02  0.45594000000E+02  0.51100000000E-03 0. -1.
         11   -1    0    0    0    0 -0.00000000000E+00 -0.00000000000E+00 -0.45593999997E+02  0.45594000000E+02  0.51100000000E-03 0.  1.
    9900012    2    1    2    0    0  0.31976073642E+02 -0.21339537897E+02 -0.20143932073E+02  0.47787272327E+02  0.20000005845E+02 0.  0.
         12    1    1    2    0    0 -0.31976073642E+02  0.21339537897E+02  0.20143932073E+02  0.43400727673E+02  0.00000000000E+00 0. -1.
         11    1    3    3    0    0  0.11479058829E+01  0.11500463743E+01 -0.23101199089E+00  0.16412377586E+01  0.51100000000E-03 0. -1.
        -11    1    3    3    0    0  0.29252782902E+02 -0.22081864472E+02 -0.12758181131E+02  0.38808571632E+02  0.51100000000E-03 0.  1.
         12    1    3    3    0    0  0.15753848573E+01 -0.40771979927E+00 -0.71547389507E+01  0.73374629359E+01  0.00000000000E+00 0. -1.
</event>
<event>
 7    1  0.4005571E-009  0.4778727E+02  0.7816164E-02  0.1312668E+00
        -11   -1    0    0    0    0  0.00000000000E+00  0.00000000000E+00  0.45593999997E+02  0.45594000000E+02  0.51100000000E-03 0. -1.
         11   -1    0    0    0    0 -0.00000000000E+00 -0.00000000000E+00 -0.45593999997E+02  0.45594000000E+02  0.51100000000E-03 0.  1.
    9900012    2    1    2    0    0 -0.29294523307E+01 -0.41588916591E+02 -0.12058350699E+02  0.47787268489E+02  0.19999988347E+02 0.  0.
         12    1    1    2    0    0  0.29294523307E+01  0.41588916591E+02  0.12058350699E+02  0.43400731511E+02  0.00000000000E+00 0. -1.
         11    1    3    3    0    0  0.36407987438E+01 -0.25797171462E+01 -0.20748630299E+01  0.49209158600E+01  0.51100000000E-03 0. -1.
        -11    1    3    3    0    0  0.20151537405E+01 -0.11681511080E+02  0.16132857024E+01  0.11963328831E+02  0.51100000000E-03 0.  1.
        -12    1    3    3    0    0 -0.85854048151E+01 -0.27327688365E+02 -0.11596773372E+02  0.30903023798E+02  0.00000000000E+00 0.  1.
</event>
<event>
 7    1  0.4005571E-009  0.4778728E+02  0.7816164E-02  0.1312668E+00
        -11   -1    0    0    0    0  0.00000000000E+00  0.00000000000E+00  0.45593999997E+02  0.45594000000E+02  0.51100000000E-03 0.  1.
         11   -1    0    0    0    0 -0.00000000000E+00 -0.00000000000E+00 -0.45593999997E+02  0.45594000000E+02  0.51100000000E-03 0. -1.
    9900012    2    1    2    0    0  0.23530523185E+01 -0.34661354924E+02  0.26013006271E+02  0.47787275633E+02  0.20000020920E+02 0.  0.
         12    1    1    2    0    0 -0.23530523185E+01  0.34661354924E+02 -0.26013006271E+02  0.43400724367E+02  0.00000000000E+00 0. -1.
         11    1    3    3    0    0 -0.40426543252E+01 -0.17211554198E+02  0.11863168368E+02  0.21291205130E+02  0.51100000000E-03 0. -1.
        -11    1    3    3    0    0  0.48750033198E+01 -0.19242208898E+02  0.11447568216E+02  0.22914516773E+02  0.51100000000E-03 0.  1.
         12    1    3    3    0    0  0.15207033238E+01  0.17924081722E+01  0.27022696863E+01  0.35815537289E+01  0.00000000000E+00 0. -1.
</event>
<event>
 7    1  0.4005571E-009  0.4778726E+02  0.7816164E-02  0.1312668E+00
        -11   -1    0    0    0    0  0.00000000000E+00  0.00000000000E+00  0.45593999997E+02  0.45594000000E+02  0.51100000000E-03 0.  1.
         11   -1    0    0    0    0 -0.00000000000E+00 -0.00000000000E+00 -0.45593999997E+02  0.45594000000E+02  0.51100000000E-03 0. -1.
    9900012    2    1    2    0    0  0.43296416005E+02 -0.11083293945E+01 -0.27956847497E+01  0.47787263990E+02  0.19999967838E+02 0.  0.
         12    1    1    2    0    0 -0.43296416005E+02  0.11083293945E+01  0.27956847497E+01  0.43400736010E+02  0.00000000000E+00 0. -1.
         11    1    3    3    0    0  0.32354575013E+01 -0.66160394418E-01  0.33561549523E+01  0.46622246584E+01  0.51100000000E-03 0.  1.
        -11    1    3    3    0    0  0.60624620032E+01  0.42093994074E+01 -0.45827399750E+01  0.86875770414E+01  0.51100000000E-03 0. -1.
         12    1    3    3    0    0  0.33998496501E+02 -0.52515684075E+01 -0.15690997270E+01  0.34437462290E+02  0.00000000000E+00 0. -1.
</event>
<event>
 7    1  0.4005571E-009  0.4778727E+02  0.7816164E-02  0.1312668E+00
        -11   -1    0    0    0    0  0.00000000000E+00  0.00000000000E+00  0.45593999997E+02  0.45594000000E+02  0.51100000000E-03 0.  1.
         11   -1    0    0    0    0 -0.00000000000E+00 -0.00000000000E+00 -0.45593999997E+02  0.45594000000E+02  0.51100000000E-03 0. -1.
    9900012    2    1    2    0    0 -0.17645924304E+02 -0.37314213156E+02  0.13412466913E+02  0.47787269399E+02  0.19999992498E+02 0.  0.
         12    1    1    2    0    0  0.17645924304E+02  0.37314213156E+02 -0.13412466913E+02  0.43400730601E+02  0.00000000000E+00 0. -1.
         11    1    3    3    0    0 -0.16833698122E+00 -0.84068065343E+00  0.29549911988E+01  0.30768579016E+01  0.51100000000E-03 0. -1.
        -11    1    3    3    0    0  0.23637263498E+01 -0.83785200963E+01  0.45123451517E+01  0.98055117302E+01  0.51100000000E-03 0.  1.
         12    1    3    3    0    0 -0.19841313673E+02 -0.28095012406E+02  0.59451305629E+01  0.34904899767E+02  0.00000000000E+00 0. -1.
</event>
<event>
 7    1  0.4005571E-009  0.4778727E+02  0.7816164E-02  0.1312668E+00
        -11   -1    0    0    0    0  0.00000000000E+00  0.00000000000E+00  0.45593999997E+02  0.45594000000E+02  0.51100000000E-03 0. -1.
         11   -1    0    0    0    0 -0.00000000000E+00 -0.00000000000E+00 -0.45593999997E+02  0.45594000000E+02  0.51100000000E-03 0.  1.
    9900012    2    1    2    0    0  0.54480549908E+01 -0.25913226819E+02 -0.34386720850E+02  0.47787271917E+02  0.20000003978E+02 0.  0.
         12    1    1    2    0    0 -0.54480549908E+01  0.25913226819E+02  0.34386720850E+02  0.43400728083E+02  0.00000000000E+00 0. -1.
         11    1    3    3    0    0  0.76987825004E+01 -0.19244280802E+02 -0.30347299702E+02  0.36750131906E+02  0.51100000000E-03 0. -1.
        -11    1    3    3    0    0 -0.10087484945E+01 -0.69421436743E+01 -0.56341359548E+01  0.89974674513E+01  0.51100000000E-03 0.  1.
         12    1    3    3    0    0 -0.12419790151E+01  0.27319765762E+00  0.15947148076E+01  0.20396725600E+01  0.00000000000E+00 0. -1.
</event>
<event>
 7    1  0.4005571E-009  0.4778727E+02  0.7816164E-02  0.1312668E+00
        -11   -1    0    0    0    0  0.00000000000E+00  0.00000000000E+00  0.45593999997E+02  0.45594000000E+02  0.51100000000E-03 0.  1.
         11   -1    0    0    0    0 -0.00000000000E+00 -0.00000000000E+00 -0.45593999997E+02  0.45594000000E+02  0.51100000000E-03 0. -1.
    9900012    2    1    2    0    0 -0.34050280428E+02 -0.25469709195E+02  0.86888306662E+01  0.47787268876E+02  0.19999990115E+02 0.  0.
         12    1    1    2    0    0  0.34050280428E+02  0.25469709195E+02 -0.86888306662E+01  0.43400731124E+02  0.00000000000E+00 0. -1.
         11    1    3    3    0    0 -0.22776268151E+02 -0.25323882618E+02  0.65114145991E+01  0.34676446503E+02  0.51100000000E-03 0. -1.
        -11    1    3    3    0    0 -0.48222276711E+01 -0.31116077047E+01  0.21140852581E+00  0.57428804660E+01  0.51100000000E-03 0.  1.
        -12    1    3    3    0    0 -0.64517846057E+01  0.29657811277E+01  0.19660075412E+01  0.73679419072E+01  0.00000000000E+00 0.  1.
</event>
<event>
 7    1  0.4005571E-009  0.4778726E+02  0.7816164E-02  0.1312668E+00
        -11   -1    0    0    0    0  0.00000000000E+00  0.00000000000E+00  0.45593999997E+02  0.45594000000E+02  0.51100000000E-03 0. -1.
         11   -1    0    0    0    0 -0.00000000000E+00 -0.00000000000E+00 -0.45593999997E+02  0.45594000000E+02  0.51100000000E-03 0.  1.
    9900012    2    1    2    0    0  0.12457467220E+02  0.28122388679E+02 -0.30619712058E+02  0.47787262666E+02  0.19999961801E+02 0.  0.
         12    1    1    2    0    0 -0.12457467220E+02 -0.28122388679E+02  0.30619712058E+02  0.43400737334E+02  0.00000000000E+00 0. -1.
         11    1    3    3    0    0  0.66670085342E+01  0.25418987022E+01 -0.88858912248E+01  0.11396021890E+02  0.51100000000E-03 0. -1.
        -11    1    3    3    0    0  0.84883566297E+01  0.21508754775E+02 -0.21382342102E+02  0.31494178578E+02  0.51100000000E-03 0.  1.
         12    1    3    3    0    0 -0.26978979442E+01  0.40717352020E+01 -0.35147873104E+00  0.48970621980E+01  0.00000000000E+00 0. -1.
</event>
<event>
 7    1  0.4005571E-009  0.4778727E+02  0.7816164E-02  0.1312668E+00
        -11   -1    0    0    0    0  0.00000000000E+00  0.00000000000E+00  0.45593999997E+02  0.45594000000E+02  0.51100000000E-03 0.  1.
         11   -1    0    0    0    0 -0.00000000000E+00 -0.00000000000E+00 -0.45593999997E+02  0.45594000000E+02  0.51100000000E-03 0. -1.
    9900012    2    1    2    0    0  0.11226537607E+02 -0.31649707592E+02  0.27493347070E+02  0.47787271084E+02  0.20000000182E+02 0.  0.
         12    1    1    2    0    0 -0.11226537607E+02  0.31649707592E+02 -0.27493347070E+02  0.43400728916E+02  0.00000000000E+00 0. -1.
         11    1    3    3    0    0  0.51080830024E+01 -0.57782693695E+01  0.14056727469E+02  0.16033480479E+02  0.51100000000E-03 0. -1.
        -11    1    3    3    0    0 -0.29136956853E+01 -0.33420152281E+01  0.28657119182E+01  0.52792985699E+01  0.51100000000E-03 0.  1.
         12    1    3    3    0    0  0.90321502895E+01 -0.22529422995E+02  0.10570907683E+02  0.26474492036E+02  0.00000000000E+00 0. -1.
</event>
<event>
 7    1  0.4005571E-009  0.4778727E+02  0.7816164E-02  0.1312668E+00
        -11   -1    0    0    0    0  0.00000000000E+00  0.00000000000E+00  0.45593999997E+02  0.45594000000E+02  0.51100000000E-03 0.  1.
         11   -1    0    0    0    0 -0.00000000000E+00 -0.00000000000E+00 -0.45593999997E+02  0.45594000000E+02  0.51100000000E-03 0. -1.
    9900012    2    1    2    0    0 -0.24389372433E+02  0.58624517045E+00  0.35894818971E+02  0.47787271895E+02  0.20000003878E+02 0.  0.
         12    1    1    2    0    0  0.24389372433E+02 -0.58624517045E+00 -0.35894818971E+02  0.43400728105E+02  0.00000000000E+00 0. -1.
         11    1    3    3    0    0 -0.93401140443E+00  0.12553150801E+01  0.12043594956E+02  0.12144808479E+02  0.51100000000E-03 0. -1.
        -11    1    3    3    0    0 -0.58822935993E+01  0.26114073550E+01  0.13573340472E+02  0.15021864005E+02  0.51100000000E-03 0.  1.
         12    1    3    3    0    0 -0.17573067429E+02 -0.32804772646E+01  0.10277883543E+02  0.20620599411E+02  0.00000000000E+00 0. -1.
</event>
<event>
 7    1  0.4005571E-009  0.4778728E+02  0.7816164E-02  0.1312668E+00
        -11   -1    0    0    0    0  0.00000000000E+00  0.00000000000E+00  0.45593999997E+02  0.45594000000E+02  0.51100000000E-03 0.  1.
         11   -1    0    0    0    0 -0.00000000000E+00 -0.00000000000E+00 -0.45593999997E+02  0.45594000000E+02  0.51100000000E-03 0. -1.
    9900012    2    1    2    0    0  0.35429602776E+02 -0.13419509544E+02  0.21172676359E+02  0.47787283261E+02  0.20000055698E+02 0.  0.
         12    1    1    2    0    0 -0.35429602776E+02  0.13419509544E+02 -0.21172676359E+02  0.43400716739E+02  0.00000000000E+00 0. -1.
         11    1    3    3    0    0  0.63757371079E+01 -0.67395991428E+01  0.72327664150E+01  0.11763720948E+02  0.51100000000E-03 0. -1.
        -11    1    3    3    0    0  0.12756062948E+02 -0.45623051824E+01  0.14146970368E+02  0.19587458778E+02  0.51100000000E-03 0.  1.
         12    1    3    3    0    0  0.16297802720E+02 -0.21176052191E+01 -0.20706042430E+00  0.16436103534E+02  0.00000000000E+00 0. -1.
</event>
<event>
 7    1  0.4005571E-009  0.4778727E+02  0.7816164E-02  0.1312668E+00
        -11   -1    0    0    0    0  0.00000000000E+00  0.00000000000E+00  0.45593999997E+02  0.45594000000E+02  0.51100000000E-03 0. -1.
         11   -1    0    0    0    0 -0.00000000000E+00 -0.00000000000E+00 -0.45593999997E+02  0.45594000000E+02  0.51100000000E-03 0.  1.
    9900012    2    1    2    0    0 -0.27923169576E+02 -0.33078298894E+02 -0.31218843086E+01  0.47787269378E+02  0.19999992400E+02 0.  0.
         12    1    1    2    0    0  0.27923169576E+02  0.33078298894E+02  0.31218843086E+01  0.43400730622E+02  0.00000000000E+00 0. -1.
         11    1    3    3    0    0 -0.12529483171E+02 -0.13105658832E+02 -0.75984890494E-01  0.18131519956E+02  0.51100000000E-03 0. -1.
        -11    1    3    3    0    0 -0.52062790518E+01 -0.18075607276E+02 -0.40603500995E+01  0.19243683721E+02  0.51100000000E-03 0.  1.
         12    1    3    3    0    0 -0.10187407353E+02 -0.18970327869E+01  0.10144506814E+01  0.10412065701E+02  0.00000000000E+00 0. -1.
</event>
<event>
 7    1  0.4005571E-009  0.4778727E+02  0.7816164E-02  0.1312668E+00
        -11   -1    0    0    0    0  0.00000000000E+00  0.00000000000E+00  0.45593999997E+02  0.45594000000E+02  0.51100000000E-03 0.  1.
         11   -1    0    0    0    0 -0.00000000000E+00 -0.00000000000E+00 -0.45593999997E+02  0.45594000000E+02  0.51100000000E-03 0. -1.
    9900012    2    1    2    0    0 -0.12566464249E+02  0.28893936252E+02  0.29847068843E+02  0.47787273112E+02  0.20000009428E+02 0.  0.
         12    1    1    2    0    0  0.12566464249E+02 -0.28893936252E+02 -0.29847068843E+02  0.43400726888E+02  0.00000000000E+00 0. -1.
         11    1    3    3    0    0 -0.62697144805E+01  0.67885322096E+01  0.10002333918E+02  0.13617641987E+02  0.51100000000E-03 0.  1.
        -11    1    3    3    0    0 -0.30801432626E+01  0.26318497536E+01 -0.21753871284E+01  0.45985024805E+01  0.51100000000E-03 0. -1.
         12    1    3    3    0    0 -0.32166065061E+01  0.19473554289E+02  0.22020122053E+02  0.29571128644E+02  0.00000000000E+00 0. -1.
</event>
<event>
 7    1  0.4005571E-009  0.4778726E+02  0.7816164E-02  0.1312668E+00
        -11   -1    0    0    0    0  0.00000000000E+00  0.00000000000E+00  0.45593999997E+02  0.45594000000E+02  0.51100000000E-03 0.  1.
         11   -1    0    0    0    0 -0.00000000000E+00 -0.00000000000E+00 -0.45593999997E+02  0.45594000000E+02  0.51100000000E-03 0. -1.
    9900012    2    1    2    0    0 -0.12914549112E+02 -0.17265189200E+02  0.37666319390E+02  0.47787263218E+02  0.19999964315E+02 0.  0.
         12    1    1    2    0    0  0.12914549112E+02  0.17265189200E+02 -0.37666319390E+02  0.43400736782E+02  0.00000000000E+00 0. -1.
         11    1    3    3    0    0  0.27796999566E+01  0.46752335140E-01  0.14737315753E+01  0.31465540909E+01  0.51100000000E-03 0. -1.
        -11    1    3    3    0    0 -0.13350897547E+01 -0.19880736358E+01  0.13545202203E+02  0.13755268242E+02  0.51100000000E-03 0.  1.
         12    1    3    3    0    0 -0.14359159314E+02 -0.15323867899E+02  0.22647385611E+02  0.30885440884E+02  0.00000000000E+00 0. -1.
</event>
<event>
 7    1  0.4005571E-009  0.4778728E+02  0.7816164E-02  0.1312668E+00
        -11   -1    0    0    0    0  0.00000000000E+00  0.00000000000E+00  0.45593999997E+02  0.45594000000E+02  0.51100000000E-03 0.  1.
         11   -1    0    0    0    0 -0.00000000000E+00 -0.00000000000E+00 -0.45593999997E+02  0.45594000000E+02  0.51100000000E-03 0. -1.
    9900012    2    1    2    0    0  0.10380196052E+02 -0.46177425360E+00  0.42138592285E+02  0.47787278055E+02  0.20000031966E+02 0.  0.
         12    1    1    2    0    0 -0.10380196052E+02  0.46177425360E+00 -0.42138592285E+02  0.43400721945E+02  0.00000000000E+00 0. -1.
         11    1    3    3    0    0  0.24370159462E-01 -0.11234256641E+00 -0.74639570166E+00  0.75519637280E+00  0.51100000000E-03 0. -1.
        -11    1    3    3    0    0  0.36070387747E+01  0.77691234412E+01  0.16000515855E+02  0.18149008668E+02  0.51100000000E-03 0.  1.
         12    1    3    3    0    0  0.67487871177E+01 -0.81185551284E+01  0.26884472132E+02  0.28883073014E+02  0.00000000000E+00 0. -1.
</event>
<event>
 7    1  0.4005571E-009  0.4778727E+02  0.7816164E-02  0.1312668E+00
        -11   -1    0    0    0    0  0.00000000000E+00  0.00000000000E+00  0.45593999997E+02  0.45594000000E+02  0.51100000000E-03 0.  1.
         11   -1    0    0    0    0 -0.00000000000E+00 -0.00000000000E+00 -0.45593999997E+02  0.45594000000E+02  0.51100000000E-03 0. -1.
    9900012    2    1    2    0    0 -0.20906283389E+02 -0.24705734822E+02  0.28916724313E+02  0.47787274623E+02  0.20000016318E+02 0.  0.
         12    1    1    2    0    0  0.20906283389E+02  0.24705734822E+02 -0.28916724313E+02  0.43400725377E+02  0.00000000000E+00 0. -1.
         11    1    3    3    0    0  0.16276816715E+01  0.60925399476E+00 -0.42756437308E+00  0.17897903811E+01  0.51100000000E-03 0. -1.
        -11    1    3    3    0    0 -0.50330531006E+00 -0.42358755321E+01  0.69952997392E+01  0.81933007061E+01  0.51100000000E-03 0.  1.
        -12    1    3    3    0    0 -0.22030659750E+02 -0.21079113285E+02  0.22348988947E+02  0.37804183536E+02  0.00000000000E+00 0.  1.
</event>
<event>
 7    1  0.4005571E-009  0.4778730E+02  0.7816164E-02  0.1312668E+00
        -11   -1    0    0    0    0  0.00000000000E+00  0.00000000000E+00  0.45593999997E+02  0.45594000000E+02  0.51100000000E-03 0.  1.
         11   -1    0    0    0    0 -0.00000000000E+00 -0.00000000000E+00 -0.45593999997E+02  0.45594000000E+02  0.51100000000E-03 0. -1.
    9900012    2    1    2    0    0  0.31969436634E+02 -0.28978258911E+02 -0.46729809655E+01  0.47787295867E+02  0.20000113175E+02 0.  0.
         12    1    1    2    0    0 -0.31969436634E+02  0.28978258911E+02  0.46729809655E+01  0.43400704133E+02  0.00000000000E+00 0. -1.
         11    1    3    3    0    0  0.54262160073E+01 -0.48464958752E+01  0.61981872102E+01  0.95577124554E+01  0.51100000000E-03 0. -1.
        -11    1    3    3    0    0  0.11451659920E+02 -0.58520176040E+01 -0.25772694071E+01  0.13115980437E+02  0.51100000000E-03 0.  1.
         12    1    3    3    0    0  0.15091560706E+02 -0.18279745431E+02 -0.82938987685E+01  0.25113602975E+02  0.00000000000E+00 0. -1.
</event>
<event>
 7    1  0.4005571E-009  0.4778728E+02  0.7816164E-02  0.1312668E+00
        -11   -1    0    0    0    0  0.00000000000E+00  0.00000000000E+00  0.45593999997E+02  0.45594000000E+02  0.51100000000E-03 0.  1.
         11   -1    0    0    0    0 -0.00000000000E+00 -0.00000000000E+00 -0.45593999997E+02  0.45594000000E+02  0.51100000000E-03 0. -1.
    9900012    2    1    2    0    0  0.49961792308E+01  0.37523227194E+02  0.21228951639E+02  0.47787276807E+02  0.20000026276E+02 0.  0.
         12    1    1    2    0    0 -0.49961792308E+01 -0.37523227194E+02 -0.21228951639E+02  0.43400723193E+02  0.00000000000E+00 0. -1.
         11    1    3    3    0    0 -0.41221755596E+01  0.70967423417E+01  0.44320413894E+01  0.93273294327E+01  0.51100000000E-03 0. -1.
        -11    1    3    3    0    0 -0.36715754024E+01  0.64999964197E+01  0.34369470300E+01  0.82184563356E+01  0.51100000000E-03 0.  1.
        -12    1    3    3    0    0  0.12789930193E+02  0.23926488433E+02  0.13359963219E+02  0.30241491039E+02  0.00000000000E+00 0.  1.
</event>
<event>
 7    1  0.4005571E-009  0.4778727E+02  0.7816164E-02  0.1312668E+00
        -11   -1    0    0    0    0  0.00000000000E+00  0.00000000000E+00  0.45593999997E+02  0.45594000000E+02  0.51100000000E-03 0. -1.
         11   -1    0    0    0    0 -0.00000000000E+00 -0.00000000000E+00 -0.45593999997E+02  0.45594000000E+02  0.51100000000E-03 0.  1.
    9900012    2    1    2    0    0 -0.27767386827E+02 -0.27693313798E+02  0.18592364155E+02  0.47787269531E+02  0.19999993102E+02 0.  0.
         12    1    1    2    0    0  0.27767386827E+02  0.27693313798E+02 -0.18592364155E+02  0.43400730469E+02  0.00000000000E+00 0. -1.
         11    1    3    3    0    0 -0.49631239576E-01  0.78677404137E+00  0.56547766086E+01  0.57094636707E+01  0.51100000000E-03 0. -1.
        -11    1    3    3    0    0 -0.66718283950E+01 -0.74509134223E+01  0.11156383975E+01  0.10063501093E+02  0.51100000000E-03 0.  1.
        -12    1    3    3    0    0 -0.21045927193E+02 -0.21029174417E+02  0.11821949148E+02  0.32014304768E+02  0.00000000000E+00 0.  1.
</event>
<event>
 7    1  0.4005571E-009  0.4778727E+02  0.7816164E-02  0.1312668E+00
        -11   -1    0    0    0    0  0.00000000000E+00  0.00000000000E+00  0.45593999997E+02  0.45594000000E+02  0.51100000000E-03 0.  1.
         11   -1    0    0    0    0 -0.00000000000E+00 -0.00000000000E+00 -0.45593999997E+02  0.45594000000E+02  0.51100000000E-03 0. -1.
    9900012    2    1    2    0    0 -0.39807882333E+02 -0.34925244631E+01  0.16933922202E+02  0.47787274844E+02  0.20000017323E+02 0.  0.
         12    1    1    2    0    0  0.39807882333E+02  0.34925244631E+01 -0.16933922202E+02  0.43400725156E+02  0.00000000000E+00 0. -1.
         11    1    3    3    0    0 -0.27169416561E+02 -0.80435095757E+01  0.16151133346E+02  0.32614940613E+02  0.51100000000E-03 0. -1.
        -11    1    3    3    0    0 -0.23597864235E+01  0.13169659975E+01  0.31392807852E+01  0.41422307411E+01  0.51100000000E-03 0.  1.
        -12    1    3    3    0    0 -0.10278679348E+02  0.32340191151E+01 -0.23564919295E+01  0.11030103490E+02  0.00000000000E+00 0.  1.
</event>
<event>
 7    1  0.4005571E-009  0.4778732E+02  0.7816164E-02  0.1312668E+00
        -11   -1    0    0    0    0  0.00000000000E+00  0.00000000000E+00  0.45593999997E+02  0.45594000000E+02  0.51100000000E-03 0.  1.
         11   -1    0    0    0    0 -0.00000000000E+00 -0.00000000000E+00 -0.45593999997E+02  0.45594000000E+02  0.51100000000E-03 0. -1.
    9900012    2    1    2    0    0  0.15544616117E+02  0.40128512350E+02  0.56290934161E+01  0.47787316983E+02  0.20000209452E+02 0.  0.
         12    1    1    2    0    0 -0.15544616117E+02 -0.40128512350E+02 -0.56290934161E+01  0.43400683017E+02  0.00000000000E+00 0. -1.
         11    1    3    3    0    0  0.48633117799E+01  0.13302454762E+02 -0.20851067894E+01  0.14316241642E+02  0.51100000000E-03 0. -1.
        -11    1    3    3    0    0  0.91218933384E+01  0.22986649026E+02  0.12018477397E+02  0.27496159199E+02  0.51100000000E-03 0.  1.
         12    1    3    3    0    0  0.15594109991E+01  0.38394085618E+01 -0.43042771910E+01  0.59749161421E+01  0.00000000000E+00 0. -1.
</event>
<event>
 7    1  0.4005571E-009  0.4778727E+02  0.7816164E-02  0.1312668E+00
        -11   -1    0    0    0    0  0.00000000000E+00  0.00000000000E+00  0.45593999997E+02  0.45594000000E+02  0.51100000000E-03 0.  1.
         11   -1    0    0    0    0 -0.00000000000E+00 -0.00000000000E+00 -0.45593999997E+02  0.45594000000E+02  0.51100000000E-03 0. -1.
    9900012    2    1    2    0    0  0.27565014258E+02  0.33193036260E+02 -0.46920804746E+01  0.47787270900E+02  0.19999999343E+02 0.  0.
         12    1    1    2    0    0 -0.27565014258E+02 -0.33193036260E+02  0.46920804746E+01  0.43400729100E+02  0.00000000000E+00 0. -1.
         11    1    3    3    0    0  0.40687821073E+01  0.37445967499E+01 -0.44630990160E+01  0.71060710483E+01  0.51100000000E-03 0. -1.
        -11    1    3    3    0    0  0.26518255844E+01  0.88647707542E+01  0.55953657775E+01  0.10813161328E+02  0.51100000000E-03 0.  1.
        -12    1    3    3    0    0  0.20844406566E+02  0.20583668756E+02 -0.58243472361E+01  0.29868038524E+02  0.00000000000E+00 0.  1.
</event>
<event>
 7    1  0.4005571E-009  0.4778727E+02  0.7816164E-02  0.1312668E+00
        -11   -1    0    0    0    0  0.00000000000E+00  0.00000000000E+00  0.45593999997E+02  0.45594000000E+02  0.51100000000E-03 0.  1.
         11   -1    0    0    0    0 -0.00000000000E+00 -0.00000000000E+00 -0.45593999997E+02  0.45594000000E+02  0.51100000000E-03 0. -1.
    9900012    2    1    2    0    0  0.12708070589E+02 -0.27064592456E+02  0.31458480642E+02  0.47787271582E+02  0.20000002449E+02 0.  0.
         12    1    1    2    0    0 -0.12708070589E+02  0.27064592456E+02 -0.31458480642E+02  0.43400728418E+02  0.00000000000E+00 0. -1.
         11    1    3    3    0    0  0.34753282510E+00 -0.96457936193E+01  0.64747945570E+01  0.11622610655E+02  0.51100000000E-03 0.  1.
        -11    1    3    3    0    0  0.81334027333E+01 -0.47650077096E-01  0.95699001769E+01  0.12559359068E+02  0.51100000000E-03 0. -1.
         12    1    3    3    0    0  0.42271350309E+01 -0.17371148760E+02  0.15413785909E+02  0.23605301859E+02  0.00000000000E+00 0. -1.
</event>
<event>
 7    1  0.4005571E-009  0.4778727E+02  0.7816164E-02  0.1312668E+00
        -11   -1    0    0    0    0  0.00000000000E+00  0.00000000000E+00  0.45593999997E+02  0.45594000000E+02  0.51100000000E-03 0. -1.
         11   -1    0    0    0    0 -0.00000000000E+00 -0.00000000000E+00 -0.45593999997E+02  0.45594000000E+02  0.51100000000E-03 0.  1.
    9900012    2    1    2    0    0  0.88987271502E+01 -0.38983457538E+02 -0.16873835888E+02  0.47787266779E+02  0.19999980552E+02 0.  0.
         12    1    1    2    0    0 -0.88987271502E+01  0.38983457538E+02  0.16873835888E+02  0.43400733221E+02  0.00000000000E+00 0. -1.
         11    1    3    3    0    0  0.75741345448E+01 -0.13257246330E+02  0.73494752241E+00  0.15286014604E+02  0.51100000000E-03 0. -1.
        -11    1    3    3    0    0  0.20822104372E+01 -0.58847701752E+01 -0.44992561078E+00  0.62584785401E+01  0.51100000000E-03 0.  1.
        -12    1    3    3    0    0 -0.75761783187E+00 -0.19841441033E+02 -0.17158857800E+02  0.26242773635E+02  0.00000000000E+00 0.  1.
</event>
<event>
 7    1  0.4005571E-009  0.4778728E+02  0.7816164E-02  0.1312668E+00
        -11   -1    0    0    0    0  0.00000000000E+00  0.00000000000E+00  0.45593999997E+02  0.45594000000E+02  0.51100000000E-03 0.  1.
         11   -1    0    0    0    0 -0.00000000000E+00 -0.00000000000E+00 -0.45593999997E+02  0.45594000000E+02  0.51100000000E-03 0. -1.
    9900012    2    1    2    0    0  0.21773255844E+02  0.28443936542E+02  0.24504908828E+02  0.47787277048E+02  0.20000027373E+02 0.  0.
         12    1    1    2    0    0 -0.21773255844E+02 -0.28443936542E+02 -0.24504908828E+02  0.43400722952E+02  0.00000000000E+00 0. -1.
         11    1    3    3    0    0  0.79456592551E+01  0.18528729215E+02  0.13657265499E+02  0.24350938555E+02  0.51100000000E-03 0. -1.
        -11    1    3    3    0    0  0.14058017749E+01  0.65690919979E+01  0.76487370101E+01  0.10180001298E+02  0.51100000000E-03 0.  1.
         12    1    3    3    0    0  0.12421794814E+02  0.33461153289E+01  0.31989063184E+01  0.13256337195E+02  0.00000000000E+00 0. -1.
</event>
<event>
 7    1  0.4005571E-009  0.4778727E+02  0.7816164E-02  0.1312668E+00
        -11   -1    0    0    0    0  0.00000000000E+00  0.00000000000E+00  0.45593999997E+02  0.45594000000E+02  0.51100000000E-03 0. -1.
         11   -1    0    0    0    0 -0.00000000000E+00 -0.00000000000E+00 -0.45593999997E+02  0.45594000000E+02  0.51100000000E-03 0.  1.
    9900012    2    1    2    0    0  0.34357177483E+02 -0.13681560069E+02 -0.22716128890E+02  0.47787271409E+02  0.20000001662E+02 0.  0.
         12    1    1    2    0    0 -0.34357177483E+02  0.13681560069E+02  0.22716128890E+02  0.43400728591E+02  0.00000000000E+00 0. -1.
         11    1    3    3    0    0  0.63777053934E+01 -0.44069564030E+01 -0.10299843920E+02  0.12891205369E+02  0.51100000000E-03 0. -1.
        -11    1    3    3    0    0  0.89258369458E+01 -0.43750799885E+01 -0.11500741204E+02  0.15201280821E+02  0.51100000000E-03 0.  1.
        -12    1    3    3    0    0  0.19053635143E+02 -0.48995236780E+01 -0.91554376560E+00  0.19694785219E+02  0.00000000000E+00 0.  1.
</event>
<event>
 7    1  0.4005571E-009  0.4778727E+02  0.7816164E-02  0.1312668E+00
        -11   -1    0    0    0    0  0.00000000000E+00  0.00000000000E+00  0.45593999997E+02  0.45594000000E+02  0.51100000000E-03 0. -1.
         11   -1    0    0    0    0 -0.00000000000E+00 -0.00000000000E+00 -0.45593999997E+02  0.45594000000E+02  0.51100000000E-03 0.  1.
    9900012    2    1    2    0    0  0.66205996475E+01 -0.42756888457E+02 -0.34116904673E+01  0.47787268646E+02  0.19999989064E+02 0.  0.
         12    1    1    2    0    0 -0.66205996475E+01  0.42756888457E+02  0.34116904673E+01  0.43400731354E+02  0.00000000000E+00 0. -1.
         11    1    3    3    0    0  0.26183500814E+00 -0.97145957505E+00  0.96554950502E+00  0.13944810451E+01  0.51100000000E-03 0. -1.
        -11    1    3    3    0    0  0.83146136368E+01 -0.14867707540E+02 -0.85888449767E+01  0.19077468011E+02  0.51100000000E-03 0.  1.
        -12    1    3    3    0    0 -0.19558489974E+01 -0.26917721342E+02  0.42116050044E+01  0.27315319590E+02  0.00000000000E+00 0.  1.
</event>
<event>
 7    1  0.4005571E-009  0.4778728E+02  0.7816164E-02  0.1312668E+00
        -11   -1    0    0    0    0  0.00000000000E+00  0.00000000000E+00  0.45593999997E+02  0.45594000000E+02  0.51100000000E-03 0.  1.
         11   -1    0    0    0    0 -0.00000000000E+00 -0.00000000000E+00 -0.45593999997E+02  0.45594000000E+02  0.51100000000E-03 0. -1.
    9900012    2    1    2    0    0 -0.25130649665E+02  0.51980187745E+01  0.35000761033E+02  0.47787283132E+02  0.20000055112E+02 0.  0.
         12    1    1    2    0    0  0.25130649665E+02 -0.51980187745E+01 -0.35000761033E+02  0.43400716868E+02  0.00000000000E+00 0. -1.
         11    1    3    3    0    0 -0.27998502111E+01 -0.36471362544E+00 -0.86890586624E+00  0.29541792259E+01  0.51100000000E-03 0. -1.
        -11    1    3    3    0    0 -0.11739913324E+02  0.84086790904E+01  0.12831055881E+02  0.19317542395E+02  0.51100000000E-03 0.  1.
        -12    1    3    3    0    0 -0.10590886130E+02 -0.28459466904E+01  0.23038611019E+02  0.25515561512E+02  0.00000000000E+00 0.  1.
</event>
<event>
 7    1  0.4005571E-009  0.4778727E+02  0.7816164E-02  0.1312668E+00
        -11   -1    0    0    0    0  0.00000000000E+00  0.00000000000E+00  0.45593999997E+02  0.45594000000E+02  0.51100000000E-03 0.  1.
         11   -1    0    0    0    0 -0.00000000000E+00 -0.00000000000E+00 -0.45593999997E+02  0.45594000000E+02  0.51100000000E-03 0. -1.
    9900012    2    1    2    0    0 -0.42991281511E+02  0.14595001719E+01  0.57656653723E+01  0.47787270468E+02  0.19999997372E+02 0.  0.
         12    1    1    2    0    0  0.42991281511E+02 -0.14595001719E+01 -0.57656653723E+01  0.43400729532E+02  0.00000000000E+00 0. -1.
         11    1    3    3    0    0 -0.20388194246E+02 -0.70663834657E+00  0.49073555204E+01  0.20982372145E+02  0.51100000000E-03 0.  1.
        -11    1    3    3    0    0 -0.62245106990E+01 -0.53344948270E+01  0.28541849245E+01  0.86803076181E+01  0.51100000000E-03 0. -1.
        -12    1    3    3    0    0 -0.16378576566E+02  0.75006333455E+01 -0.19958750726E+01  0.18124590705E+02  0.00000000000E+00 0.  1.
</event>
<event>
 7    1  0.4005571E-009  0.4778727E+02  0.7816164E-02  0.1312668E+00
        -11   -1    0    0    0    0  0.00000000000E+00  0.00000000000E+00  0.45593999997E+02  0.45594000000E+02  0.51100000000E-03 0.  1.
         11   -1    0    0    0    0 -0.00000000000E+00 -0.00000000000E+00 -0.45593999997E+02  0.45594000000E+02  0.51100000000E-03 0. -1.
    9900012    2    1    2    0    0 -0.40191345532E+02  0.13811408201E+01 -0.16320903060E+02  0.47787266339E+02  0.19999978545E+02 0.  0.
         12    1    1    2    0    0  0.40191345532E+02 -0.13811408201E+01  0.16320903060E+02  0.43400733661E+02  0.00000000000E+00 0. -1.
         11    1    3    3    0    0 -0.12585350535E+02 -0.15067912854E+01  0.14054070495E+01  0.12752907014E+02  0.51100000000E-03 0. -1.
        -11    1    3    3    0    0 -0.24838912548E+02  0.34311096561E+01 -0.10330915531E+02  0.27119585285E+02  0.51100000000E-03 0.  1.
         12    1    3    3    0    0 -0.27670824485E+01 -0.54317755062E+00 -0.73953945785E+01  0.79147740397E+01  0.00000000000E+00 0. -1.
</event>
<event>
 7    1  0.4005571E-009  0.4778727E+02  0.7816164E-02  0.1312668E+00
        -11   -1    0    0    0    0  0.00000000000E+00  0.00000000000E+00  0.45593999997E+02  0.45594000000E+02  0.51100000000E-03 0. -1.
         11   -1    0    0    0    0 -0.00000000000E+00 -0.00000000000E+00 -0.45593999997E+02  0.45594000000E+02  0.51100000000E-03 0.  1.
    9900012    2    1    2    0    0  0.43366987905E+02  0.67544908880E+00  0.15720356463E+01  0.47787272270E+02  0.20000005586E+02 0.  0.
         12    1    1    2    0    0 -0.43366987905E+02 -0.67544908880E+00 -0.15720356463E+01  0.43400727730E+02  0.00000000000E+00 0. -1.
         11    1    3    3    0    0  0.23140534433E+02  0.35964372215E+01 -0.47919040199E+01  0.23903577952E+02  0.51100000000E-03 0. -1.
        -11    1    3    3    0    0  0.17579320717E+02  0.10536807520E+01  0.25969863958E+01  0.17801322945E+02  0.51100000000E-03 0.  1.
        -12    1    3    3    0    0  0.26471327556E+01 -0.39746688847E+01  0.37669532705E+01  0.60823713723E+01  0.00000000000E+00 0.  1.
</event>
<event>
 7    1  0.4005571E-009  0.4778727E+02  0.7816164E-02  0.1312668E+00
        -11   -1    0    0    0    0  0.00000000000E+00  0.00000000000E+00  0.45593999997E+02  0.45594000000E+02  0.51100000000E-03 0.  1.
         11   -1    0    0    0    0 -0.00000000000E+00 -0.00000000000E+00 -0.45593999997E+02  0.45594000000E+02  0.51100000000E-03 0. -1.
    9900012    2    1    2    0    0  0.18633616367E+02  0.66683578566E+01  0.38625699045E+02  0.47787270949E+02  0.19999999566E+02 0.  0.
         12    1    1    2    0    0 -0.18633616367E+02 -0.66683578566E+01 -0.38625699045E+02  0.43400729051E+02  0.00000000000E+00 0. -1.
         11    1    3    3    0    0  0.14368251639E+02  0.11307888289E+02  0.16856036440E+02  0.24868473163E+02  0.51100000000E-03 0. -1.
        -11    1    3    3    0    0  0.10930860866E+01  0.41223810525E+00  0.44436303935E+01  0.45946304295E+01  0.51100000000E-03 0.  1.
         12    1    3    3    0    0  0.31722786413E+01 -0.50517685374E+01  0.17326032211E+02  0.18324167357E+02  0.00000000000E+00 0. -1.
</event>
<event>
 7    1  0.4005571E-009  0.4778727E+02  0.7816164E-02  0.1312668E+00
        -11   -1    0    0    0    0  0.00000000000E+00  0.00000000000E+00  0.45593999997E+02  0.45594000000E+02  0.51100000000E-03 0.  1.
         11   -1    0    0    0    0 -0.00000000000E+00 -0.00000000000E+00 -0.45593999997E+02  0.45594000000E+02  0.51100000000E-03 0. -1.
    9900012    2    1    2    0    0  0.19014489352E+02  0.38993452498E+02  0.12582142582E+01  0.47787271364E+02  0.20000001455E+02 0.  0.
         12    1    1    2    0    0 -0.19014489352E+02 -0.38993452498E+02 -0.12582142582E+01  0.43400728636E+02  0.00000000000E+00 0. -1.
         11    1    3    3    0    0  0.36251044583E+01  0.54811802516E+01 -0.16419871301E+01  0.67735397896E+01  0.51100000000E-03 0.  1.
        -11    1    3    3    0    0  0.12216562792E+02  0.11181450981E+02 -0.46957425172E+01  0.17213926064E+02  0.51100000000E-03 0. -1.
         12    1    3    3    0    0  0.31728221014E+01  0.22330821266E+02  0.75959439055E+01  0.23799805510E+02  0.00000000000E+00 0. -1.
</event>
<event>
 7    1  0.4005571E-009  0.4778727E+02  0.7816164E-02  0.1312668E+00
        -11   -1    0    0    0    0  0.00000000000E+00  0.00000000000E+00  0.45593999997E+02  0.45594000000E+02  0.51100000000E-03 0. -1.
         11   -1    0    0    0    0 -0.00000000000E+00 -0.00000000000E+00 -0.45593999997E+02  0.45594000000E+02  0.51100000000E-03 0.  1.
    9900012    2    1    2    0    0 -0.31261321847E+01  0.24856615726E+02 -0.35440081208E+02  0.47787269547E+02  0.19999993174E+02 0.  0.
         12    1    1    2    0    0  0.31261321847E+01 -0.24856615726E+02  0.35440081208E+02  0.43400730453E+02  0.00000000000E+00 0. -1.
         11    1    3    3    0    0 -0.31602046959E+01  0.39753326939E+00 -0.58802774617E+01  0.66874950249E+01  0.51100000000E-03 0. -1.
        -11    1    3    3    0    0 -0.57532947462E+00  0.37519913984E+00  0.15833510034E+01  0.17259139782E+01  0.51100000000E-03 0.  1.
        -12    1    3    3    0    0  0.60940198577E+00  0.24083883317E+02 -0.31143154750E+02  0.39373860544E+02  0.00000000000E+00 0.  1.
</event>
<event>
 7    1  0.4005571E-009  0.4778727E+02  0.7816164E-02  0.1312668E+00
        -11   -1    0    0    0    0  0.00000000000E+00  0.00000000000E+00  0.45593999997E+02  0.45594000000E+02  0.51100000000E-03 0. -1.
         11   -1    0    0    0    0 -0.00000000000E+00 -0.00000000000E+00 -0.45593999997E+02  0.45594000000E+02  0.51100000000E-03 0.  1.
    9900012    2    1    2    0    0 -0.17807951568E+02 -0.27512939008E+02  0.28452384373E+02  0.47787272721E+02  0.20000007642E+02 0.  0.
         12    1    1    2    0    0  0.17807951568E+02  0.27512939008E+02 -0.28452384373E+02  0.43400727279E+02  0.00000000000E+00 0. -1.
         11    1    3    3    0    0  0.24052074952E+00  0.16068796124E+00  0.58430062750E+01  0.58501618304E+01  0.51100000000E-03 0. -1.
        -11    1    3    3    0    0 -0.46741137007E+00 -0.11195851693E+02  0.78218898570E+01  0.13665559985E+02  0.51100000000E-03 0.  1.
        -12    1    3    3    0    0 -0.17581060948E+02 -0.16477775276E+02  0.14787488241E+02  0.28271550905E+02  0.00000000000E+00 0.  1.
</event>
<event>
 7    1  0.4005571E-009  0.4778727E+02  0.7816164E-02  0.1312668E+00
        -11   -1    0    0    0    0  0.00000000000E+00  0.00000000000E+00  0.45593999997E+02  0.45594000000E+02  0.51100000000E-03 0. -1.
         11   -1    0    0    0    0 -0.00000000000E+00 -0.00000000000E+00 -0.45593999997E+02  0.45594000000E+02  0.51100000000E-03 0.  1.
    9900012    2    1    2    0    0 -0.11651104549E+02  0.40714778936E+02 -0.94963958651E+01  0.47787274252E+02  0.20000014625E+02 0.  0.
         12    1    1    2    0    0  0.11651104549E+02 -0.40714778936E+02  0.94963958651E+01  0.43400725748E+02  0.00000000000E+00 0. -1.
         11    1    3    3    0    0 -0.80248912856E+01  0.10059452222E+02  0.53857843911E+00  0.12879500229E+02  0.51100000000E-03 0. -1.
        -11    1    3    3    0    0 -0.49560759072E+01  0.17083036406E+02  0.31091393017E+00  0.17790151460E+02  0.51100000000E-03 0.  1.
        -12    1    3    3    0    0  0.13298626435E+01  0.13572290308E+02 -0.10345888234E+02  0.17117622563E+02  0.00000000000E+00 0.  1.
</event>
<event>
 7    1  0.4005571E-009  0.4778727E+02  0.7816164E-02  0.1312668E+00
        -11   -1    0    0    0    0  0.00000000000E+00  0.00000000000E+00  0.45593999997E+02  0.45594000000E+02  0.51100000000E-03 0.  1.
         11   -1    0    0    0    0 -0.00000000000E+00 -0.00000000000E+00 -0.45593999997E+02  0.45594000000E+02  0.51100000000E-03 0. -1.
    9900012    2    1    2    0    0  0.27947249280E+02  0.32100497139E+02 -0.84931028242E+01  0.47787268964E+02  0.19999990515E+02 0.  0.
         12    1    1    2    0    0 -0.27947249280E+02 -0.32100497139E+02  0.84931028242E+01  0.43400731036E+02  0.00000000000E+00 0. -1.
         11    1    3    3    0    0  0.16922768818E+02  0.14341615090E+02 -0.12964365598E+00  0.22182850033E+02  0.51100000000E-03 0. -1.
        -11    1    3    3    0    0  0.26797834554E+01  0.12348346870E+02 -0.40232495621E-01  0.12635843015E+02  0.51100000000E-03 0.  1.
         12    1    3    3    0    0  0.83446970066E+01  0.54105351790E+01 -0.83232266726E+01  0.12968575916E+02  0.00000000000E+00 0. -1.
</event>
<event>
 7    1  0.4005571E-009  0.4778727E+02  0.7816164E-02  0.1312668E+00
        -11   -1    0    0    0    0  0.00000000000E+00  0.00000000000E+00  0.45593999997E+02  0.45594000000E+02  0.51100000000E-03 0.  1.
         11   -1    0    0    0    0 -0.00000000000E+00 -0.00000000000E+00 -0.45593999997E+02  0.45594000000E+02  0.51100000000E-03 0. -1.
    9900012    2    1    2    0    0 -0.12899629899E+01  0.28279851487E+01  0.43289278822E+02  0.47787272294E+02  0.20000005697E+02 0.  0.
         12    1    1    2    0    0  0.12899629899E+01 -0.28279851487E+01 -0.43289278822E+02  0.43400727706E+02  0.00000000000E+00 0. -1.
         11    1    3    3    0    0 -0.73868459342E+00 -0.43621404365E+01  0.12107204287E+02  0.12890241271E+02  0.51100000000E-03 0. -1.
        -11    1    3    3    0    0 -0.41107685743E+01 -0.28272728563E+01  0.87253428813E+01  0.10051044659E+02  0.51100000000E-03 0.  1.
         12    1    3    3    0    0  0.35594901778E+01  0.10017398442E+02  0.22456731653E+02  0.24845986364E+02  0.00000000000E+00 0. -1.
</event>
<event>
 7    1  0.4005571E-009  0.4778732E+02  0.7816164E-02  0.1312668E+00
        -11   -1    0    0    0    0  0.00000000000E+00  0.00000000000E+00  0.45593999997E+02  0.45594000000E+02  0.51100000000E-03 0.  1.
         11   -1    0    0    0    0 -0.00000000000E+00 -0.00000000000E+00 -0.45593999997E+02  0.45594000000E+02  0.51100000000E-03 0. -1.
    9900012    2    1    2    0    0 -0.42906029992E+01 -0.39169000975E+02  0.18193384167E+02  0.47787318681E+02  0.20000217193E+02 0.  0.
         12    1    1    2    0    0  0.42906029992E+01  0.39169000975E+02 -0.18193384167E+02  0.43400681319E+02  0.00000000000E+00 0. -1.
         11    1    3    3    0    0  0.90257353369E+00 -0.10853329760E+00  0.25266088707E+01  0.26851761781E+01  0.51100000000E-03 0. -1.
        -11    1    3    3    0    0  0.40044440553E+01 -0.24275197801E+02  0.66137365578E+01  0.25476701356E+02  0.51100000000E-03 0.  1.
         12    1    3    3    0    0 -0.91976205882E+01 -0.14785269877E+02  0.90530387388E+01  0.19625441147E+02  0.00000000000E+00 0. -1.
</event>
<event>
 7    1  0.4005571E-009  0.4778727E+02  0.7816164E-02  0.1312668E+00
        -11   -1    0    0    0    0  0.00000000000E+00  0.00000000000E+00  0.45593999997E+02  0.45594000000E+02  0.51100000000E-03 0. -1.
         11   -1    0    0    0    0 -0.00000000000E+00 -0.00000000000E+00 -0.45593999997E+02  0.45594000000E+02  0.51100000000E-03 0.  1.
    9900012    2    1    2    0    0  0.84085846166E+00  0.43008894318E+02 -0.57577103786E+01  0.47787271179E+02  0.20000000613E+02 0.  0.
         12    1    1    2    0    0 -0.84085846166E+00 -0.43008894318E+02  0.57577103786E+01  0.43400728821E+02  0.00000000000E+00 0. -1.
         11    1    3    3    0    0  0.31155503279E+01  0.81062730274E+01 -0.19683155318E+01  0.89046382596E+01  0.51100000000E-03 0. -1.
        -11    1    3    3    0    0 -0.33437318215E+01  0.35322797161E+02 -0.63791201181E+01  0.36049600768E+02  0.51100000000E-03 0.  1.
        -12    1    3    3    0    0  0.10690399552E+01 -0.42017587099E+00  0.25897252713E+01  0.28330321511E+01  0.00000000000E+00 0.  1.
</event>
<event>
 7    1  0.4005571E-009  0.4778725E+02  0.7816164E-02  0.1312668E+00
        -11   -1    0    0    0    0  0.00000000000E+00  0.00000000000E+00  0.45593999997E+02  0.45594000000E+02  0.51100000000E-03 0.  1.
         11   -1    0    0    0    0 -0.00000000000E+00 -0.00000000000E+00 -0.45593999997E+02  0.45594000000E+02  0.51100000000E-03 0. -1.
    9900012    2    1    2    0    0  0.18631637431E+02  0.31249850582E+02  0.23662925079E+02  0.47787250029E+02  0.19999904183E+02 0.  0.
         12    1    1    2    0    0 -0.18631637431E+02 -0.31249850582E+02 -0.23662925079E+02  0.43400749971E+02  0.00000000000E+00 0. -1.
         11    1    3    3    0    0  0.80001964391E+00  0.26790401784E+01  0.36095736478E+01  0.45657759349E+01  0.51100000000E-03 0. -1.
        -11    1    3    3    0    0  0.15958587801E+02  0.29501165585E+02  0.13181004833E+02  0.36037954772E+02  0.51100000000E-03 0.  1.
        -12    1    3    3    0    0  0.18730299855E+01 -0.93035518113E+00  0.68723465982E+01  0.71835193224E+01  0.00000000000E+00 0.  1.
</event>
<event>
 7    1  0.4005571E-009  0.4778727E+02  0.7816164E-02  0.1312668E+00
        -11   -1    0    0    0    0  0.00000000000E+00  0.00000000000E+00  0.45593999997E+02  0.45594000000E+02  0.51100000000E-03 0. -1.
         11   -1    0    0    0    0 -0.00000000000E+00 -0.00000000000E+00 -0.45593999997E+02  0.45594000000E+02  0.51100000000E-03 0.  1.
    9900012    2    1    2    0    0 -0.31336595648E+01 -0.24715210496E+02 -0.35538171539E+02  0.47787273181E+02  0.20000009741E+02 0.  0.
         12    1    1    2    0    0  0.31336595648E+01  0.24715210496E+02  0.35538171539E+02  0.43400726819E+02  0.00000000000E+00 0. -1.
         11    1    3    3    0    0 -0.25968292230E+00  0.15830354071E+00  0.20435962021E+00  0.36641280904E+00  0.51100000000E-03 0. -1.
        -11    1    3    3    0    0 -0.10754454698E+02 -0.12504317653E+02 -0.19345382160E+02  0.25421645639E+02  0.51100000000E-03 0.  1.
         12    1    3    3    0    0  0.78804780558E+01 -0.12369196383E+02 -0.16397148999E+02  0.21999214733E+02  0.00000000000E+00 0. -1.
</event>
<event>
 7    1  0.4005571E-009  0.4778727E+02  0.7816164E-02  0.1312668E+00
        -11   -1    0    0    0    0  0.00000000000E+00  0.00000000000E+00  0.45593999997E+02  0.45594000000E+02  0.51100000000E-03 0.  1.
         11   -1    0    0    0    0 -0.00000000000E+00 -0.00000000000E+00 -0.45593999997E+02  0.45594000000E+02  0.51100000000E-03 0. -1.
    9900012    2    1    2    0    0 -0.39988571254E+01 -0.16695592586E+02  0.39860879375E+02  0.47787269883E+02  0.19999994705E+02 0.  0.
         12    1    1    2    0    0  0.39988571254E+01  0.16695592586E+02 -0.39860879375E+02  0.43400730117E+02  0.00000000000E+00 0. -1.
         11    1    3    3    0    0  0.14759294601E+01  0.73475313266E+00  0.58500433846E+00  0.17494171242E+01  0.51100000000E-03 0. -1.
        -11    1    3    3    0    0 -0.87828958878E+01 -0.50350309862E+01  0.24261277266E+02  0.26288787953E+02  0.51100000000E-03 0.  1.
        -12    1    3    3    0    0  0.33081093023E+01 -0.12395314733E+02  0.15014597770E+02  0.19749064805E+02  0.00000000000E+00 0.  1.
</event>
<event>
 7    1  0.4005571E-009  0.4778727E+02  0.7816164E-02  0.1312668E+00
        -11   -1    0    0    0    0  0.00000000000E+00  0.00000000000E+00  0.45593999997E+02  0.45594000000E+02  0.51100000000E-03 0. -1.
         11   -1    0    0    0    0 -0.00000000000E+00 -0.00000000000E+00 -0.45593999997E+02  0.45594000000E+02  0.51100000000E-03 0.  1.
    9900012    2    1    2    0    0  0.40215293164E+02  0.13965391655E+02 -0.84452007657E+01  0.47787269772E+02  0.19999994200E+02 0.  0.
         12    1    1    2    0    0 -0.40215293164E+02 -0.13965391655E+02  0.84452007657E+01  0.43400730228E+02  0.00000000000E+00 0. -1.
         11    1    3    3    0    0  0.54988936693E+01 -0.26978847243E+01 -0.40659127657E+01  0.73517386006E+01  0.51100000000E-03 0. -1.
        -11    1    3    3    0    0  0.11167664434E+02 -0.25744420353E-01 -0.28833054330E+01  0.11533899695E+02  0.51100000000E-03 0.  1.
        -12    1    3    3    0    0  0.23548735060E+02  0.16689020800E+02 -0.14959825670E+01  0.28901631477E+02  0.00000000000E+00 0.  1.
</event>
<event>
 7    1  0.4005571E-009  0.4778727E+02  0.7816164E-02  0.1312668E+00
        -11   -1    0    0    0    0  0.00000000000E+00  0.00000000000E+00  0.45593999997E+02  0.45594000000E+02  0.51100000000E-03 0. -1.
         11   -1    0    0    0    0 -0.00000000000E+00 -0.00000000000E+00 -0.45593999997E+02  0.45594000000E+02  0.51100000000E-03 0.  1.
    9900012    2    1    2    0    0  0.31117577205E+02  0.78586157680E+01 -0.29215781294E+02  0.47787270403E+02  0.19999997074E+02 0.  0.
         12    1    1    2    0    0 -0.31117577205E+02 -0.78586157680E+01  0.29215781294E+02  0.43400729597E+02  0.00000000000E+00 0. -1.
         11    1    3    3    0    0  0.37434687892E+01  0.31656174494E+01 -0.70527221907E+01  0.85892713877E+01  0.51100000000E-03 0. -1.
        -11    1    3    3    0    0  0.51003174725E+01  0.82329913838E+01 -0.80437906295E+01  0.12589597031E+02  0.51100000000E-03 0.  1.
         12    1    3    3    0    0  0.22273790944E+02 -0.35399930652E+01 -0.14119268474E+02  0.26608401984E+02  0.00000000000E+00 0. -1.
</event>
<event>
 7    1  0.4005571E-009  0.4778727E+02  0.7816164E-02  0.1312668E+00
        -11   -1    0    0    0    0  0.00000000000E+00  0.00000000000E+00  0.45593999997E+02  0.45594000000E+02  0.51100000000E-03 0. -1.
         11   -1    0    0    0    0 -0.00000000000E+00 -0.00000000000E+00 -0.45593999997E+02  0.45594000000E+02  0.51100000000E-03 0.  1.
    9900012    2    1    2    0    0 -0.89971938793E+01  0.30022410783E+02 -0.30022133038E+02  0.47787272828E+02  0.20000008131E+02 0.  0.
         12    1    1    2    0    0  0.89971938793E+01 -0.30022410783E+02  0.30022133038E+02  0.43400727172E+02  0.00000000000E+00 0. -1.
         11    1    3    3    0    0  0.82140123842E-01  0.50464711498E+01 -0.93001310634E+01  0.10581401425E+02  0.51100000000E-03 0. -1.
        -11    1    3    3    0    0 -0.13092343791E+02  0.14965825376E+02 -0.15564534753E+02  0.25251537329E+02  0.51100000000E-03 0.  1.
         12    1    3    3    0    0  0.40130097879E+01  0.10010114257E+02 -0.51574672217E+01  0.11954334074E+02  0.00000000000E+00 0. -1.
</event>
<event>
 7    1  0.4005571E-009  0.4778727E+02  0.7816164E-02  0.1312668E+00
        -11   -1    0    0    0    0  0.00000000000E+00  0.00000000000E+00  0.45593999997E+02  0.45594000000E+02  0.51100000000E-03 0.  1.
         11   -1    0    0    0    0 -0.00000000000E+00 -0.00000000000E+00 -0.45593999997E+02  0.45594000000E+02  0.51100000000E-03 0. -1.
    9900012    2    1    2    0    0  0.46096178398E+01  0.20232149225E+02  0.38118696804E+02  0.47787268613E+02  0.19999988915E+02 0.  0.
         12    1    1    2    0    0 -0.46096178398E+01 -0.20232149225E+02 -0.38118696804E+02  0.43400731387E+02  0.00000000000E+00 0. -1.
         11    1    3    3    0    0  0.73218956039E+01  0.12321904120E+02  0.21957034309E+02  0.26221190520E+02  0.51100000000E-03 0.  1.
        -11    1    3    3    0    0 -0.11422387043E+01  0.58242100878E+01  0.17607993857E+02  0.18581377245E+02  0.51100000000E-03 0. -1.
         12    1    3    3    0    0 -0.15700390598E+01  0.20860350169E+01 -0.14463313623E+01  0.29847008477E+01  0.00000000000E+00 0. -1.
</event>
<event>
 7    1  0.4005571E-009  0.4778727E+02  0.7816164E-02  0.1312668E+00
        -11   -1    0    0    0    0  0.00000000000E+00  0.00000000000E+00  0.45593999997E+02  0.45594000000E+02  0.51100000000E-03 0.  1.
         11   -1    0    0    0    0 -0.00000000000E+00 -0.00000000000E+00 -0.45593999997E+02  0.45594000000E+02  0.51100000000E-03 0. -1.
    9900012    2    1    2    0    0  0.18498407502E+02 -0.39259210354E+02 -0.38279045764E+00  0.47787271823E+02  0.20000003549E+02 0.  0.
         12    1    1    2    0    0 -0.18498407502E+02  0.39259210354E+02  0.38279045764E+00  0.43400728177E+02  0.00000000000E+00 0. -1.
         11    1    3    3    0    0  0.81740057496E+01 -0.72607098401E+01 -0.14253986346E+01  0.11025608324E+02  0.51100000000E-03 0. -1.
        -11    1    3    3    0    0 -0.27697917745E+01 -0.96240831173E+00 -0.75697900049E+00  0.30283648560E+01  0.51100000000E-03 0.  1.
        -12    1    3    3    0    0  0.13094193527E+02 -0.31036092203E+02  0.17995871774E+01  0.33733298643E+02  0.00000000000E+00 0.  1.
</event>
<event>
 7    1  0.4005571E-009  0.4778727E+02  0.7816164E-02  0.1312668E+00
        -11   -1    0    0    0    0  0.00000000000E+00  0.00000000000E+00  0.45593999997E+02  0.45594000000E+02  0.51100000000E-03 0. -1.
         11   -1    0    0    0    0 -0.00000000000E+00 -0.00000000000E+00 -0.45593999997E+02  0.45594000000E+02  0.51100000000E-03 0.  1.
    9900012    2    1    2    0    0  0.36226523037E+02 -0.20483504894E+02 -0.12316176302E+02  0.47787272555E+02  0.20000006886E+02 0.  0.
         12    1    1    2    0    0 -0.36226523037E+02  0.20483504894E+02  0.12316176302E+02  0.43400727445E+02  0.00000000000E+00 0. -1.
         11    1    3    3    0    0  0.10241470717E+02 -0.14601595624E+01 -0.10639568528E+01  0.10399605417E+02  0.51100000000E-03 0. -1.
        -11    1    3    3    0    0  0.23231813353E+02 -0.84571458214E+01 -0.82498922114E+01  0.26063407085E+02  0.51100000000E-03 0.  1.
         12    1    3    3    0    0  0.27532389676E+01 -0.10566199510E+02 -0.30023272380E+01  0.11324260053E+02  0.00000000000E+00 0. -1.
</event>
<event>
 7    1  0.4005571E-009  0.4778726E+02  0.7816164E-02  0.1312668E+00
        -11   -1    0    0    0    0  0.00000000000E+00  0.00000000000E+00  0.45593999997E+02  0.45594000000E+02  0.51100000000E-03 0.  1.
         11   -1    0    0    0    0 -0.00000000000E+00 -0.00000000000E+00 -0.45593999997E+02  0.45594000000E+02  0.51100000000E-03 0. -1.
    9900012    2    1    2    0    0  0.80047653132E+01 -0.23250548218E+02  0.35762549928E+02  0.47787259943E+02  0.19999949382E+02 0.  0.
         12    1    1    2    0    0 -0.80047653132E+01  0.23250548218E+02 -0.35762549928E+02  0.43400740057E+02  0.00000000000E+00 0. -1.
         11    1    3    3    0    0 -0.21011222975E+01 -0.57664615799E+01  0.46316748592E+01  0.76889015031E+01  0.51100000000E-03 0. -1.
        -11    1    3    3    0    0  0.30023433562E+01  0.13634383945E+01  0.11534701383E+02  0.11996764819E+02  0.51100000000E-03 0.  1.
         12    1    3    3    0    0  0.71035442545E+01 -0.18847525033E+02  0.19596173686E+02  0.28101593620E+02  0.00000000000E+00 0. -1.
</event>
<event>
 7    1  0.4005571E-009  0.4778727E+02  0.7816164E-02  0.1312668E+00
        -11   -1    0    0    0    0  0.00000000000E+00  0.00000000000E+00  0.45593999997E+02  0.45594000000E+02  0.51100000000E-03 0.  1.
         11   -1    0    0    0    0 -0.00000000000E+00 -0.00000000000E+00 -0.45593999997E+02  0.45594000000E+02  0.51100000000E-03 0. -1.
    9900012    2    1    2    0    0  0.21084374453E+01  0.23142129903E+02  0.36655415722E+02  0.47787272049E+02  0.20000004578E+02 0.  0.
         12    1    1    2    0    0 -0.21084374453E+01 -0.23142129903E+02 -0.36655415722E+02  0.43400727951E+02  0.00000000000E+00 0. -1.
         11    1    3    3    0    0 -0.45648493041E+01  0.79929136625E+01  0.19234447325E+02  0.21323425666E+02  0.51100000000E-03 0. -1.
        -11    1    3    3    0    0 -0.59800899211E+00  0.11950330681E+02  0.10914653644E+02  0.16195606891E+02  0.51100000000E-03 0.  1.
         12    1    3    3    0    0  0.72712957415E+01  0.31988855603E+01  0.65063147539E+01  0.10268239492E+02  0.00000000000E+00 0. -1.
</event>
<event>
 7    1  0.4005571E-009  0.4778727E+02  0.7816164E-02  0.1312668E+00
        -11   -1    0    0    0    0  0.00000000000E+00  0.00000000000E+00  0.45593999997E+02  0.45594000000E+02  0.51100000000E-03 0. -1.
         11   -1    0    0    0    0 -0.00000000000E+00 -0.00000000000E+00 -0.45593999997E+02  0.45594000000E+02  0.51100000000E-03 0.  1.
    9900012    2    1    2    0    0 -0.11258833536E+02 -0.13233386594E+02 -0.39771087685E+02  0.47787271100E+02  0.20000000256E+02 0.  0.
         12    1    1    2    0    0  0.11258833536E+02  0.13233386594E+02  0.39771087685E+02  0.43400728900E+02  0.00000000000E+00 0. -1.
         11    1    3    3    0    0 -0.13917823734E-01 -0.17109957957E+01 -0.91373350853E+00  0.19397447008E+01  0.51100000000E-03 0. -1.
        -11    1    3    3    0    0 -0.61393658804E+01 -0.84952899615E+01 -0.38500020666E+02  0.39901295173E+02  0.51100000000E-03 0.  1.
        -12    1    3    3    0    0 -0.51055498322E+01 -0.30271008368E+01 -0.35733351093E+00  0.59462312269E+01  0.00000000000E+00 0.  1.
</event>
<event>
 7    1  0.4005571E-009  0.4778727E+02  0.7816164E-02  0.1312668E+00
        -11   -1    0    0    0    0  0.00000000000E+00  0.00000000000E+00  0.45593999997E+02  0.45594000000E+02  0.51100000000E-03 0. -1.
         11   -1    0    0    0    0 -0.00000000000E+00 -0.00000000000E+00 -0.45593999997E+02  0.45594000000E+02  0.51100000000E-03 0.  1.
    9900012    2    1    2    0    0 -0.12849494446E+02  0.40152033506E+02 -0.10311548570E+02  0.47787270328E+02  0.19999996732E+02 0.  0.
         12    1    1    2    0    0  0.12849494446E+02 -0.40152033506E+02  0.10311548570E+02  0.43400729672E+02  0.00000000000E+00 0. -1.
         11    1    3    3    0    0 -0.25889917945E+01  0.14129586212E+02  0.12368523709E+00  0.14365353575E+02  0.51100000000E-03 0. -1.
        -11    1    3    3    0    0 -0.65137979748E+01  0.40770370722E+01  0.19741498484E+01  0.79340445694E+01  0.51100000000E-03 0.  1.
        -12    1    3    3    0    0 -0.37467046771E+01  0.21945410222E+02 -0.12409383655E+02  0.25487872183E+02  0.00000000000E+00 0.  1.
</event>
<event>
 7    1  0.4005571E-009  0.4778727E+02  0.7816164E-02  0.1312668E+00
        -11   -1    0    0    0    0  0.00000000000E+00  0.00000000000E+00  0.45593999997E+02  0.45594000000E+02  0.51100000000E-03 0. -1.
         11   -1    0    0    0    0 -0.00000000000E+00 -0.00000000000E+00 -0.45593999997E+02  0.45594000000E+02  0.51100000000E-03 0.  1.
    9900012    2    1    2    0    0 -0.20370300057E+02 -0.37575578287E+02 -0.75332820641E+01  0.47787267902E+02  0.19999985671E+02 0.  0.
         12    1    1    2    0    0  0.20370300057E+02  0.37575578287E+02  0.75332820641E+01  0.43400732098E+02  0.00000000000E+00 0. -1.
         11    1    3    3    0    0 -0.28335667067E+01 -0.27292002936E+01 -0.49737876834E+01  0.63416242955E+01  0.51100000000E-03 0. -1.
        -11    1    3    3    0    0 -0.46702481288E+01 -0.26297946292E+01  0.32552382766E+01  0.62708543177E+01  0.51100000000E-03 0.  1.
        -12    1    3    3    0    0 -0.12866485222E+02 -0.32216583364E+02 -0.58147326573E+01  0.35174789288E+02  0.00000000000E+00 0.  1.
</event>
<event>
 7    1  0.4306514E-009  0.4778727E+02  0.7816164E-02  0.1312668E+00
        -11   -1    0    0    0    0  0.00000000000E+00  0.00000000000E+00  0.45593999997E+02  0.45594000000E+02  0.51100000000E-03 0.  1.
         11   -1    0    0    0    0 -0.00000000000E+00 -0.00000000000E+00 -0.45593999997E+02  0.45594000000E+02  0.51100000000E-03 0. -1.
    9900012    2    1    2    0    0  0.32476571772E+02  0.28655475709E+02  0.27855026307E+01  0.47787273888E+02  0.20000012963E+02 0.  0.
         12    1    1    2    0    0 -0.32476571772E+02 -0.28655475709E+02 -0.27855026307E+01  0.43400726112E+02  0.00000000000E+00 0. -1.
         11    1    3    3    0    0  0.41223101689E+01  0.10522502519E+02  0.45764373313E+01  0.12192632173E+02  0.51100000000E-03 0. -1.
        -11    1    3    3    0    0  0.83237521796E+00 -0.15069445073E+01  0.14966834837E+00  0.17280425710E+01  0.51100000000E-03 0.  1.
        -12    1    3    3    0    0  0.27521886385E+02  0.19639917697E+02 -0.19406030489E+01  0.33866599144E+02  0.00000000000E+00 0.  1.
</event>
<event>
 7    1  0.4005571E-009  0.4778727E+02  0.7816164E-02  0.1312668E+00
        -11   -1    0    0    0    0  0.00000000000E+00  0.00000000000E+00  0.45593999997E+02  0.45594000000E+02  0.51100000000E-03 0. -1.
         11   -1    0    0    0    0 -0.00000000000E+00 -0.00000000000E+00 -0.45593999997E+02  0.45594000000E+02  0.51100000000E-03 0.  1.
    9900012    2    1    2    0    0 -0.12850474388E+02 -0.19979137841E+02 -0.36322482644E+02  0.47787269749E+02  0.19999994094E+02 0.  0.
         12    1    1    2    0    0  0.12850474388E+02  0.19979137841E+02  0.36322482644E+02  0.43400730251E+02  0.00000000000E+00 0. -1.
         11    1    3    3    0    0 -0.81203260416E+01 -0.81679135145E+01 -0.19936741684E+02  0.23024512491E+02  0.51100000000E-03 0. -1.
        -11    1    3    3    0    0 -0.39752537663E+01 -0.11924448642E+02 -0.52844740504E+01  0.13635277195E+02  0.51100000000E-03 0.  1.
         12    1    3    3    0    0 -0.75489458043E+00  0.11322431517E+00 -0.11101266910E+02  0.11127480064E+02  0.00000000000E+00 0. -1.
</event>
<event>
 7    1  0.4005571E-009  0.4778727E+02  0.7816164E-02  0.1312668E+00
        -11   -1    0    0    0    0  0.00000000000E+00  0.00000000000E+00  0.45593999997E+02  0.45594000000E+02  0.51100000000E-03 0.  1.
         11   -1    0    0    0    0 -0.00000000000E+00 -0.00000000000E+00 -0.45593999997E+02  0.45594000000E+02  0.51100000000E-03 0. -1.
    9900012    2    1    2    0    0 -0.29135721052E+02 -0.30362112771E+02  0.10624260129E+02  0.47787273779E+02  0.20000012470E+02 0.  0.
         12    1    1    2    0    0  0.29135721052E+02  0.30362112771E+02 -0.10624260129E+02  0.43400726221E+02  0.00000000000E+00 0. -1.
         11    1    3    3    0    0 -0.80712966335E+00 -0.29047581504E+01 -0.19517681110E+01  0.35914450053E+01  0.51100000000E-03 0. -1.
        -11    1    3    3    0    0 -0.50301804483E+00 -0.68260677766E+01  0.56390057076E+01  0.88682926247E+01  0.51100000000E-03 0.  1.
         12    1    3    3    0    0 -0.27825573344E+02 -0.20631286844E+02  0.69370225326E+01  0.35327536150E+02  0.00000000000E+00 0. -1.
</event>
<event>
 7    1  0.4005571E-009  0.4778728E+02  0.7816164E-02  0.1312668E+00
        -11   -1    0    0    0    0  0.00000000000E+00  0.00000000000E+00  0.45593999997E+02  0.45594000000E+02  0.51100000000E-03 0.  1.
         11   -1    0    0    0    0 -0.00000000000E+00 -0.00000000000E+00 -0.45593999997E+02  0.45594000000E+02  0.51100000000E-03 0. -1.
    9900012    2    1    2    0    0  0.31492344380E+02 -0.21287461114E+02  0.20945141289E+02  0.47787277669E+02  0.20000030206E+02 0.  0.
         12    1    1    2    0    0 -0.31492344380E+02  0.21287461114E+02 -0.20945141289E+02  0.43400722331E+02  0.00000000000E+00 0. -1.
         11    1    3    3    0    0  0.93341469758E+01 -0.39583787902E+01  0.43441124681E+01  0.11030248221E+02  0.51100000000E-03 0. -1.
        -11    1    3    3    0    0  0.18293849229E+02 -0.11322290701E+02  0.19511760579E+02  0.29044241899E+02  0.51100000000E-03 0.  1.
         12    1    3    3    0    0  0.38643481751E+01 -0.60067916229E+01 -0.29107317585E+01  0.77127875499E+01  0.00000000000E+00 0. -1.
</event>
<event>
 7    1  0.4005571E-009  0.4778730E+02  0.7816164E-02  0.1312668E+00
        -11   -1    0    0    0    0  0.00000000000E+00  0.00000000000E+00  0.45593999997E+02  0.45594000000E+02  0.51100000000E-03 0. -1.
         11   -1    0    0    0    0 -0.00000000000E+00 -0.00000000000E+00 -0.45593999997E+02  0.45594000000E+02  0.51100000000E-03 0.  1.
    9900012    2    1    2    0    0 -0.37641670127E+02  0.20387279869E+02  0.71473332369E+01  0.47787298591E+02  0.20000125595E+02 0.  0.
         12    1    1    2    0    0  0.37641670127E+02 -0.20387279869E+02 -0.71473332369E+01  0.43400701409E+02  0.00000000000E+00 0. -1.
         11    1    3    3    0    0 -0.20163740165E+02  0.86098198541E+01  0.48690215830E+01  0.22459135932E+02  0.51100000000E-03 0. -1.
        -11    1    3    3    0    0 -0.12138739106E+02  0.12497241730E+02  0.63836064792E+01  0.18554796412E+02  0.51100000000E-03 0.  1.
         12    1    3    3    0    0 -0.53391908561E+01 -0.71978171567E+00 -0.41052948253E+01  0.67733662472E+01  0.00000000000E+00 0. -1.
</event>
<event>
 7    1  0.4005571E-009  0.4778729E+02  0.7816164E-02  0.1312668E+00
        -11   -1    0    0    0    0  0.00000000000E+00  0.00000000000E+00  0.45593999997E+02  0.45594000000E+02  0.51100000000E-03 0.  1.
         11   -1    0    0    0    0 -0.00000000000E+00 -0.00000000000E+00 -0.45593999997E+02  0.45594000000E+02  0.51100000000E-03 0. -1.
    9900012    2    1    2    0    0  0.20082752182E+02 -0.31798721193E+02  0.21659787851E+02  0.47787285554E+02  0.20000066154E+02 0.  0.
         12    1    1    2    0    0 -0.20082752182E+02  0.31798721193E+02 -0.21659787851E+02  0.43400714446E+02  0.00000000000E+00 0. -1.
         11    1    3    3    0    0  0.41365679025E+01 -0.19747491060E+02  0.14370698922E+02  0.24770780871E+02  0.51100000000E-03 0.  1.
        -11    1    3    3    0    0  0.16996232093E+00 -0.18950569116E+00 -0.14198977369E+01  0.14425357680E+01  0.51100000000E-03 0. -1.
        -12    1    3    3    0    0  0.15776221958E+02 -0.11861724441E+02  0.87089866658E+01  0.21573968915E+02  0.00000000000E+00 0.  1.
</event>
<event>
 7    1  0.4005571E-009  0.4778726E+02  0.7816164E-02  0.1312668E+00
        -11   -1    0    0    0    0  0.00000000000E+00  0.00000000000E+00  0.45593999997E+02  0.45594000000E+02  0.51100000000E-03 0.  1.
         11   -1    0    0    0    0 -0.00000000000E+00 -0.00000000000E+00 -0.45593999997E+02  0.45594000000E+02  0.51100000000E-03 0. -1.
    9900012    2    1    2    0    0  0.30505073123E+02  0.62588857054E+01  0.30230625227E+02  0.47787264544E+02  0.19999970362E+02 0.  0.
         12    1    1    2    0    0 -0.30505073123E+02 -0.62588857054E+01 -0.30230625227E+02  0.43400735456E+02  0.00000000000E+00 0. -1.
         11    1    3    3    0    0  0.34089003235E+01 -0.24413882534E+00  0.69605133026E+01  0.77542859683E+01  0.51100000000E-03 0. -1.
        -11    1    3    3    0    0  0.87027884869E+01  0.10361073799E+02  0.73251679676E+01  0.15386632631E+02  0.51100000000E-03 0.  1.
         12    1    3    3    0    0  0.18393384312E+02 -0.38580492682E+01  0.15944943957E+02  0.24646345944E+02  0.00000000000E+00 0. -1.
</event>
<event>
 7    1  0.4005571E-009  0.4778728E+02  0.7816164E-02  0.1312668E+00
        -11   -1    0    0    0    0  0.00000000000E+00  0.00000000000E+00  0.45593999997E+02  0.45594000000E+02  0.51100000000E-03 0. -1.
         11   -1    0    0    0    0 -0.00000000000E+00 -0.00000000000E+00 -0.45593999997E+02  0.45594000000E+02  0.51100000000E-03 0.  1.
    9900012    2    1    2    0    0 -0.35160128571E+02 -0.11683662920E+02 -0.22602660252E+02  0.47787275688E+02  0.20000021173E+02 0.  0.
         12    1    1    2    0    0  0.35160128571E+02  0.11683662920E+02  0.22602660252E+02  0.43400724312E+02  0.00000000000E+00 0. -1.
         11    1    3    3    0    0 -0.17694596675E+01  0.16879970584E+00  0.66438787804E+00  0.18976017414E+01  0.51100000000E-03 0. -1.
        -11    1    3    3    0    0 -0.12493765011E+01 -0.66967774877E+01 -0.58018435726E+01  0.89481372063E+01  0.51100000000E-03 0.  1.
         12    1    3    3    0    0 -0.32141292402E+02 -0.51556851381E+01 -0.17465204558E+02  0.36941536740E+02  0.00000000000E+00 0. -1.
</event>
<event>
 7    1  0.4005571E-009  0.4778727E+02  0.7816164E-02  0.1312668E+00
        -11   -1    0    0    0    0  0.00000000000E+00  0.00000000000E+00  0.45593999997E+02  0.45594000000E+02  0.51100000000E-03 0.  1.
         11   -1    0    0    0    0 -0.00000000000E+00 -0.00000000000E+00 -0.45593999997E+02  0.45594000000E+02  0.51100000000E-03 0. -1.
    9900012    2    1    2    0    0 -0.33727498980E+02  0.26776659052E+02 -0.53934818834E+01  0.47787270694E+02  0.19999998403E+02 0.  0.
         12    1    1    2    0    0  0.33727498980E+02 -0.26776659052E+02  0.53934818834E+01  0.43400729306E+02  0.00000000000E+00 0. -1.
         11    1    3    3    0    0 -0.16263471229E+02  0.82216008432E+01 -0.55418126876E+01  0.19047490778E+02  0.51100000000E-03 0. -1.
        -11    1    3    3    0    0 -0.86795088961E+01  0.87590488269E+01 -0.65633620466E+01  0.13968984668E+02  0.51100000000E-03 0.  1.
         12    1    3    3    0    0 -0.87845188554E+01  0.97960093823E+01  0.67116928508E+01  0.14770795248E+02  0.00000000000E+00 0. -1.
</event>
<event>
 7    1  0.4005571E-009  0.4778727E+02  0.7816164E-02  0.1312668E+00
        -11   -1    0    0    0    0  0.00000000000E+00  0.00000000000E+00  0.45593999997E+02  0.45594000000E+02  0.51100000000E-03 0. -1.
         11   -1    0    0    0    0 -0.00000000000E+00 -0.00000000000E+00 -0.45593999997E+02  0.45594000000E+02  0.51100000000E-03 0.  1.
    9900012    2    1    2    0    0 -0.25530725182E+02  0.78602994187E+01 -0.34205569770E+02  0.47787271451E+02  0.20000001855E+02 0.  0.
         12    1    1    2    0    0  0.25530725182E+02 -0.78602994187E+01  0.34205569770E+02  0.43400728549E+02  0.00000000000E+00 0. -1.
         11    1    3    3    0    0 -0.72890048035E+00  0.44656635088E+01 -0.32899225734E+01  0.55943755044E+01  0.51100000000E-03 0. -1.
        -11    1    3    3    0    0 -0.18528399171E+02  0.71013568959E+01 -0.15629685534E+02  0.25259016524E+02  0.51100000000E-03 0.  1.
        -12    1    3    3    0    0 -0.62734255304E+01 -0.37067209859E+01 -0.15285961663E+02  0.16933879423E+02  0.00000000000E+00 0.  1.
</event>
<event>
 7    1  0.4005571E-009  0.4778727E+02  0.7816164E-02  0.1312668E+00
        -11   -1    0    0    0    0  0.00000000000E+00  0.00000000000E+00  0.45593999997E+02  0.45594000000E+02  0.51100000000E-03 0.  1.
         11   -1    0    0    0    0 -0.00000000000E+00 -0.00000000000E+00 -0.45593999997E+02  0.45594000000E+02  0.51100000000E-03 0. -1.
    9900012    2    1    2    0    0 -0.21188865658E+02 -0.28767844189E+02  0.24638718584E+02  0.47787270276E+02  0.19999996495E+02 0.  0.
         12    1    1    2    0    0  0.21188865658E+02  0.28767844189E+02 -0.24638718584E+02  0.43400729724E+02  0.00000000000E+00 0. -1.
         11    1    3    3    0    0 -0.39777590907E+00 -0.33403798788E+01  0.63906855988E+01  0.72219959909E+01  0.51100000000E-03 0. -1.
        -11    1    3    3    0    0 -0.34093318482E+01 -0.10335719242E+02 -0.47386031173E+00  0.10893813830E+02  0.51100000000E-03 0.  1.
        -12    1    3    3    0    0 -0.17381757900E+02 -0.15091745069E+02  0.18721893297E+02  0.29671460455E+02  0.00000000000E+00 0.  1.
</event>
<event>
 7    1  0.4005571E-009  0.4778729E+02  0.7816164E-02  0.1312668E+00
        -11   -1    0    0    0    0  0.00000000000E+00  0.00000000000E+00  0.45593999997E+02  0.45594000000E+02  0.51100000000E-03 0. -1.
         11   -1    0    0    0    0 -0.00000000000E+00 -0.00000000000E+00 -0.45593999997E+02  0.45594000000E+02  0.51100000000E-03 0.  1.
    9900012    2    1    2    0    0  0.25284483257E+02 -0.22350410516E+02 -0.27290572055E+02  0.47787294166E+02  0.20000105420E+02 0.  0.
         12    1    1    2    0    0 -0.25284483257E+02  0.22350410516E+02  0.27290572055E+02  0.43400705834E+02  0.00000000000E+00 0. -1.
         11    1    3    3    0    0  0.32698155288E+01 -0.34014304621E+01 -0.16066546497E+01  0.49842514188E+01  0.51100000000E-03 0. -1.
        -11    1    3    3    0    0  0.24592130695E+02 -0.17847564381E+02 -0.19750067089E+02  0.36240496640E+02  0.51100000000E-03 0.  1.
         12    1    3    3    0    0 -0.25774629666E+01 -0.11014156724E+01 -0.59338503166E+01  0.65625461071E+01  0.00000000000E+00 0. -1.
</event>
<event>
 7    1  0.4005571E-009  0.4778727E+02  0.7816164E-02  0.1312668E+00
        -11   -1    0    0    0    0  0.00000000000E+00  0.00000000000E+00  0.45593999997E+02  0.45594000000E+02  0.51100000000E-03 0. -1.
         11   -1    0    0    0    0 -0.00000000000E+00 -0.00000000000E+00 -0.45593999997E+02  0.45594000000E+02  0.51100000000E-03 0.  1.
    9900012    2    1    2    0    0 -0.31839915013E+01  0.23765052189E+02 -0.36176065666E+02  0.47787271498E+02  0.20000002070E+02 0.  0.
         12    1    1    2    0    0  0.31839915013E+01 -0.23765052189E+02  0.36176065666E+02  0.43400728502E+02  0.00000000000E+00 0. -1.
         11    1    3    3    0    0  0.45316215704E+01  0.11848583642E+02 -0.15959133116E+02  0.20386722602E+02  0.51100000000E-03 0. -1.
        -11    1    3    3    0    0 -0.14436302551E+01  0.31497935190E+00 -0.11493734951E+02  0.11588322730E+02  0.51100000000E-03 0.  1.
        -12    1    3    3    0    0 -0.62719828166E+01  0.11601489195E+02 -0.87231975989E+01  0.15812226166E+02  0.00000000000E+00 0.  1.
</event>
<event>
 7    1  0.4005571E-009  0.4778727E+02  0.7816164E-02  0.1312668E+00
        -11   -1    0    0    0    0  0.00000000000E+00  0.00000000000E+00  0.45593999997E+02  0.45594000000E+02  0.51100000000E-03 0.  1.
         11   -1    0    0    0    0 -0.00000000000E+00 -0.00000000000E+00 -0.45593999997E+02  0.45594000000E+02  0.51100000000E-03 0. -1.
    9900012    2    1    2    0    0 -0.31611816561E+02  0.24689184779E+02 -0.16575897463E+02  0.47787272264E+02  0.20000005560E+02 0.  0.
         12    1    1    2    0    0  0.31611816561E+02 -0.24689184779E+02  0.16575897463E+02  0.43400727736E+02  0.00000000000E+00 0. -1.
         11    1    3    3    0    0 -0.42129105785E+01  0.29669237287E+01 -0.71159441512E+01  0.87856652212E+01  0.51100000000E-03 0. -1.
        -11    1    3    3    0    0 -0.14116295011E+02  0.14503387120E+02 -0.12208697743E+02  0.23636207894E+02  0.51100000000E-03 0.  1.
         12    1    3    3    0    0 -0.13282610971E+02  0.72188739303E+01  0.27487444313E+01  0.15365399148E+02  0.00000000000E+00 0. -1.
</event>
<event>
 7    1  0.4005571E-009  0.4778727E+02  0.7816164E-02  0.1312668E+00
        -11   -1    0    0    0    0  0.00000000000E+00  0.00000000000E+00  0.45593999997E+02  0.45594000000E+02  0.51100000000E-03 0. -1.
         11   -1    0    0    0    0 -0.00000000000E+00 -0.00000000000E+00 -0.45593999997E+02  0.45594000000E+02  0.51100000000E-03 0.  1.
    9900012    2    1    2    0    0 -0.88255255784E+01 -0.31103420121E+02 -0.28953594413E+02  0.47787271039E+02  0.19999999973E+02 0.  0.
         12    1    1    2    0    0  0.88255255784E+01  0.31103420121E+02  0.28953594413E+02  0.43400728961E+02  0.00000000000E+00 0. -1.
         11    1    3    3    0    0 -0.22397578056E+01  0.13883127558E+00 -0.10189839708E+02  0.10434012779E+02  0.51100000000E-03 0. -1.
        -11    1    3    3    0    0  0.18755488676E+00 -0.91238550066E+01 -0.61596079750E+01  0.11010026234E+02  0.51100000000E-03 0.  1.
         12    1    3    3    0    0 -0.67733226595E+01 -0.22118396390E+02 -0.12604146730E+02  0.26343232025E+02  0.00000000000E+00 0. -1.
</event>
<event>
 7    1  0.4005571E-009  0.4778727E+02  0.7816164E-02  0.1312668E+00
        -11   -1    0    0    0    0  0.00000000000E+00  0.00000000000E+00  0.45593999997E+02  0.45594000000E+02  0.51100000000E-03 0.  1.
         11   -1    0    0    0    0 -0.00000000000E+00 -0.00000000000E+00 -0.45593999997E+02  0.45594000000E+02  0.51100000000E-03 0. -1.
    9900012    2    1    2    0    0  0.40223356945E+02  0.72775762085E+01 -0.14585666822E+02  0.47787271480E+02  0.20000001987E+02 0.  0.
         12    1    1    2    0    0 -0.40223356945E+02 -0.72775762085E+01  0.14585666822E+02  0.43400728520E+02  0.00000000000E+00 0. -1.
         11    1    3    3    0    0  0.16870789044E+02  0.20599040048E+01  0.55437631593E+00  0.17005118666E+02  0.51100000000E-03 0.  1.
        -11    1    3    3    0    0  0.98476688780E+01 -0.34764755094E+01 -0.37675614695E+01  0.11102116194E+02  0.51100000000E-03 0. -1.
        -12    1    3    3    0    0  0.13504899023E+02  0.86941477131E+01 -0.11372481668E+02  0.19680036620E+02  0.00000000000E+00 0.  1.
</event>
<event>
 7    1  0.4005571E-009  0.4778727E+02  0.7816164E-02  0.1312668E+00
        -11   -1    0    0    0    0  0.00000000000E+00  0.00000000000E+00  0.45593999997E+02  0.45594000000E+02  0.51100000000E-03 0. -1.
         11   -1    0    0    0    0 -0.00000000000E+00 -0.00000000000E+00 -0.45593999997E+02  0.45594000000E+02  0.51100000000E-03 0.  1.
    9900012    2    1    2    0    0 -0.32425609740E+02 -0.22553142055E+02 -0.17987748564E+02  0.47787268647E+02  0.19999989071E+02 0.  0.
         12    1    1    2    0    0  0.32425609740E+02  0.22553142055E+02  0.17987748564E+02  0.43400731353E+02  0.00000000000E+00 0. -1.
         11    1    3    3    0    0 -0.68842051986E+01  0.20761351518E+01 -0.71513681719E+01  0.10141236876E+02  0.51100000000E-03 0. -1.
        -11    1    3    3    0    0 -0.29070504313E+01 -0.19448315242E+01  0.73790056426E+00  0.35746061841E+01  0.51100000000E-03 0.  1.
        -12    1    3    3    0    0 -0.22634354110E+02 -0.22684445682E+02 -0.11574280957E+02  0.34071425587E+02  0.00000000000E+00 0.  1.
</event>
<event>
 7    1  0.4005571E-009  0.4778728E+02  0.7816164E-02  0.1312668E+00
        -11   -1    0    0    0    0  0.00000000000E+00  0.00000000000E+00  0.45593999997E+02  0.45594000000E+02  0.51100000000E-03 0.  1.
         11   -1    0    0    0    0 -0.00000000000E+00 -0.00000000000E+00 -0.45593999997E+02  0.45594000000E+02  0.51100000000E-03 0. -1.
    9900012    2    1    2    0    0 -0.39181778045E+02 -0.18575239738E+02  0.18360543568E+01  0.47787281600E+02  0.20000048125E+02 0.  0.
         12    1    1    2    0    0  0.39181778045E+02  0.18575239738E+02 -0.18360543568E+01  0.43400718400E+02  0.00000000000E+00 0. -1.
         11    1    3    3    0    0 -0.13105170004E+02 -0.90657702493E+01 -0.24905473628E+01  0.16128747548E+02  0.51100000000E-03 0. -1.
        -11    1    3    3    0    0 -0.16071321994E+02 -0.11596573573E+02  0.71274382452E+01  0.21061060882E+02  0.51100000000E-03 0.  1.
         12    1    3    3    0    0 -0.10005286047E+02  0.20871040844E+01 -0.28008365256E+01  0.10597473170E+02  0.00000000000E+00 0. -1.
</event>
<event>
 7    1  0.4005571E-009  0.4778728E+02  0.7816164E-02  0.1312668E+00
        -11   -1    0    0    0    0  0.00000000000E+00  0.00000000000E+00  0.45593999997E+02  0.45594000000E+02  0.51100000000E-03 0.  1.
         11   -1    0    0    0    0 -0.00000000000E+00 -0.00000000000E+00 -0.45593999997E+02  0.45594000000E+02  0.51100000000E-03 0. -1.
    9900012    2    1    2    0    0 -0.16818507601E+02  0.17092055691E+02  0.36174881022E+02  0.47787279008E+02  0.20000036310E+02 0.  0.
         12    1    1    2    0    0  0.16818507601E+02 -0.17092055691E+02 -0.36174881022E+02  0.43400720992E+02  0.00000000000E+00 0. -1.
         11    1    3    3    0    0 -0.14394040634E+01  0.16003825698E+01  0.56256968281E+00  0.22247681534E+01  0.51100000000E-03 0. -1.
        -11    1    3    3    0    0 -0.13419954246E+02  0.19116301552E+02  0.25173378978E+02  0.34339877205E+02  0.51100000000E-03 0.  1.
         12    1    3    3    0    0 -0.19591492916E+01 -0.36246284308E+01  0.10438932361E+02  0.11222633650E+02  0.00000000000E+00 0. -1.
</event>
<event>
 7    1  0.4005571E-009  0.4778727E+02  0.7816164E-02  0.1312668E+00
        -11   -1    0    0    0    0  0.00000000000E+00  0.00000000000E+00  0.45593999997E+02  0.45594000000E+02  0.51100000000E-03 0. -1.
         11   -1    0    0    0    0 -0.00000000000E+00 -0.00000000000E+00 -0.45593999997E+02  0.45594000000E+02  0.51100000000E-03 0.  1.
    9900012    2    1    2    0    0 -0.34157729611E+02 -0.34460601226E+01  0.26551790244E+02  0.47787269733E+02  0.19999994019E+02 0.  0.
         12    1    1    2    0    0  0.34157729611E+02  0.34460601226E+01 -0.26551790244E+02  0.43400730267E+02  0.00000000000E+00 0. -1.
         11    1    3    3    0    0 -0.38589136962E+01 -0.52806357409E+01  0.86809215793E+01  0.10868980103E+02  0.51100000000E-03 0. -1.
        -11    1    3    3    0    0 -0.19633787919E+02 -0.22482758075E+01  0.15823313730E+02  0.25316351036E+02  0.51100000000E-03 0.  1.
         12    1    3    3    0    0 -0.10665027996E+02  0.40828514259E+01  0.20475549356E+01  0.11601938594E+02  0.00000000000E+00 0. -1.
</event>
<event>
 7    1  0.4005571E-009  0.4778727E+02  0.7816164E-02  0.1312668E+00
        -11   -1    0    0    0    0  0.00000000000E+00  0.00000000000E+00  0.45593999997E+02  0.45594000000E+02  0.51100000000E-03 0. -1.
         11   -1    0    0    0    0 -0.00000000000E+00 -0.00000000000E+00 -0.45593999997E+02  0.45594000000E+02  0.51100000000E-03 0.  1.
    9900012    2    1    2    0    0  0.27109249429E+02  0.33859470805E+02  0.14994417786E+01  0.47787268515E+02  0.19999988466E+02 0.  0.
         12    1    1    2    0    0 -0.27109249429E+02 -0.33859470805E+02 -0.14994417786E+01  0.43400731485E+02  0.00000000000E+00 0. -1.
         11    1    3    3    0    0 -0.11040616503E+01  0.73863652333E+01  0.57189473672E+00  0.74902875338E+01  0.51100000000E-03 0. -1.
        -11    1    3    3    0    0 -0.98846308681E+00  0.16812454627E+01 -0.28721540895E+00  0.19713291283E+01  0.51100000000E-03 0.  1.
        -12    1    3    3    0    0  0.29201774166E+02  0.24791860109E+02  0.12147624508E+01  0.38325651853E+02  0.00000000000E+00 0.  1.
</event>
<event>
 7    1  0.4005571E-009  0.4778727E+02  0.7816164E-02  0.1312668E+00
        -11   -1    0    0    0    0  0.00000000000E+00  0.00000000000E+00  0.45593999997E+02  0.45594000000E+02  0.51100000000E-03 0.  1.
         11   -1    0    0    0    0 -0.00000000000E+00 -0.00000000000E+00 -0.45593999997E+02  0.45594000000E+02  0.51100000000E-03 0. -1.
    9900012    2    1    2    0    0 -0.24156032206E+02 -0.10444277552E+02  0.34511248133E+02  0.47787273357E+02  0.20000010542E+02 0.  0.
         12    1    1    2    0    0  0.24156032206E+02  0.10444277552E+02 -0.34511248133E+02  0.43400726643E+02  0.00000000000E+00 0. -1.
         11    1    3    3    0    0  0.42455891171E+00  0.12159135883E+01  0.85681682847E+00  0.15468779727E+01  0.51100000000E-03 0. -1.
        -11    1    3    3    0    0 -0.89207695650E+01  0.36388509742E+01  0.80701542646E+01  0.12567766554E+02  0.51100000000E-03 0.  1.
        -12    1    3    3    0    0 -0.15659821552E+02 -0.15299042114E+02  0.25584277040E+02  0.33672628830E+02  0.00000000000E+00 0.  1.
</event>
<event>
 7    1  0.4005571E-009  0.4778727E+02  0.7816164E-02  0.1312668E+00
        -11   -1    0    0    0    0  0.00000000000E+00  0.00000000000E+00  0.45593999997E+02  0.45594000000E+02  0.51100000000E-03 0. -1.
         11   -1    0    0    0    0 -0.00000000000E+00 -0.00000000000E+00 -0.45593999997E+02  0.45594000000E+02  0.51100000000E-03 0.  1.
    9900012    2    1    2    0    0  0.28107684727E+02 -0.29405279159E+02 -0.15129797734E+02  0.47787272326E+02  0.20000005842E+02 0.  0.
         12    1    1    2    0    0 -0.28107684727E+02  0.29405279159E+02  0.15129797734E+02  0.43400727674E+02  0.00000000000E+00 0. -1.
         11    1    3    3    0    0  0.91359881959E+01 -0.75090184526E+01 -0.12752945742E+02  0.17392218484E+02  0.51100000000E-03 0. -1.
        -11    1    3    3    0    0  0.32442127995E+01 -0.68072188163E+01  0.27119716773E+01  0.80136093829E+01  0.51100000000E-03 0.  1.
        -12    1    3    3    0    0  0.15727483732E+02 -0.15089041890E+02 -0.50888236690E+01  0.22381444458E+02  0.00000000000E+00 0.  1.
</event>
<event>
 7    1  0.4005571E-009  0.4778727E+02  0.7816164E-02  0.1312668E+00
        -11   -1    0    0    0    0  0.00000000000E+00  0.00000000000E+00  0.45593999997E+02  0.45594000000E+02  0.51100000000E-03 0.  1.
         11   -1    0    0    0    0 -0.00000000000E+00 -0.00000000000E+00 -0.45593999997E+02  0.45594000000E+02  0.51100000000E-03 0. -1.
    9900012    2    1    2    0    0 -0.93036705219E+01 -0.33718896050E+02  0.25692436262E+02  0.47787268242E+02  0.19999987223E+02 0.  0.
         12    1    1    2    0    0  0.93036705219E+01  0.33718896050E+02 -0.25692436262E+02  0.43400731758E+02  0.00000000000E+00 0. -1.
         11    1    3    3    0    0  0.17983582977E+01 -0.15062765804E+01  0.15357315882E+01  0.28038247940E+01  0.51100000000E-03 0. -1.
        -11    1    3    3    0    0 -0.69949735950E+01 -0.15964247688E+02  0.22027850430E+02  0.28089376188E+02  0.51100000000E-03 0.  1.
         12    1    3    3    0    0 -0.41070552245E+01 -0.16248371782E+02  0.21288542442E+01  0.16894067260E+02  0.00000000000E+00 0. -1.
</event>
<event>
 7    1  0.4005571E-009  0.4778727E+02  0.7816164E-02  0.1312668E+00
        -11   -1    0    0    0    0  0.00000000000E+00  0.00000000000E+00  0.45593999997E+02  0.45594000000E+02  0.51100000000E-03 0. -1.
         11   -1    0    0    0    0 -0.00000000000E+00 -0.00000000000E+00 -0.45593999997E+02  0.45594000000E+02  0.51100000000E-03 0.  1.
    9900012    2    1    2    0    0  0.41733790076E+02 -0.72331909531E+01 -0.94654741315E+01  0.47787268600E+02  0.19999988856E+02 0.  0.
         12    1    1    2    0    0 -0.41733790076E+02  0.72331909531E+01  0.94654741315E+01  0.43400731400E+02  0.00000000000E+00 0. -1.
         11    1    3    3    0    0  0.83364891407E+01  0.42528739800E+01 -0.76540811853E+01  0.12090035043E+02  0.51100000000E-03 0. -1.
        -11    1    3    3    0    0  0.11418992389E+02 -0.19561749385E+01 -0.19089750856E+01  0.11741558402E+02  0.51100000000E-03 0.  1.
         12    1    3    3    0    0  0.21978308547E+02 -0.95298899946E+01  0.97582139390E-01  0.23955675155E+02  0.00000000000E+00 0. -1.
</event>
<event>
 7    1  0.4005571E-009  0.4778727E+02  0.7816164E-02  0.1312668E+00
        -11   -1    0    0    0    0  0.00000000000E+00  0.00000000000E+00  0.45593999997E+02  0.45594000000E+02  0.51100000000E-03 0. -1.
         11   -1    0    0    0    0 -0.00000000000E+00 -0.00000000000E+00 -0.45593999997E+02  0.45594000000E+02  0.51100000000E-03 0.  1.
    9900012    2    1    2    0    0 -0.12658251259E+02  0.46990710741E+01 -0.41246944262E+02  0.47787274144E+02  0.20000014130E+02 0.  0.
         12    1    1    2    0    0  0.12658251259E+02 -0.46990710741E+01  0.41246944262E+02  0.43400725856E+02  0.00000000000E+00 0. -1.
         11    1    3    3    0    0 -0.82188577777E+01  0.68999033543E+00 -0.79472198324E+01  0.11453558973E+02  0.51100000000E-03 0. -1.
        -11    1    3    3    0    0 -0.28173052383E+01  0.83764634386E+01 -0.14635309678E+02  0.17096626515E+02  0.51100000000E-03 0.  1.
        -12    1    3    3    0    0 -0.16220882430E+01 -0.43673826999E+01 -0.18664414751E+02  0.19237088655E+02  0.00000000000E+00 0.  1.
</event>
<event>
 7    1  0.4005571E-009  0.4778727E+02  0.7816164E-02  0.1312668E+00
        -11   -1    0    0    0    0  0.00000000000E+00  0.00000000000E+00  0.45593999997E+02  0.45594000000E+02  0.51100000000E-03 0.  1.
         11   -1    0    0    0    0 -0.00000000000E+00 -0.00000000000E+00 -0.45593999997E+02  0.45594000000E+02  0.51100000000E-03 0. -1.
    9900012    2    1    2    0    0 -0.71216369753E+01  0.34181351407E+02 -0.25778688153E+02  0.47787271203E+02  0.20000000723E+02 0.  0.
         12    1    1    2    0    0  0.71216369753E+01 -0.34181351407E+02  0.25778688153E+02  0.43400728797E+02  0.00000000000E+00 0. -1.
         11    1    3    3    0    0 -0.98368241836E+01  0.22857576478E+02 -0.20053054648E+02  0.31958675089E+02  0.51100000000E-03 0.  1.
        -11    1    3    3    0    0 -0.12178194775E+00  0.18595367395E+00 -0.42327626897E+01  0.42385952697E+01  0.51100000000E-03 0. -1.
        -12    1    3    3    0    0  0.28369691560E+01  0.11137821255E+02 -0.14928708157E+01  0.11590000844E+02  0.00000000000E+00 0.  1.
</event>
<event>
 7    1  0.4005571E-009  0.4778727E+02  0.7816164E-02  0.1312668E+00
        -11   -1    0    0    0    0  0.00000000000E+00  0.00000000000E+00  0.45593999997E+02  0.45594000000E+02  0.51100000000E-03 0.  1.
         11   -1    0    0    0    0 -0.00000000000E+00 -0.00000000000E+00 -0.45593999997E+02  0.45594000000E+02  0.51100000000E-03 0. -1.
    9900012    2    1    2    0    0  0.25954920137E+02  0.22677910433E+02  0.26375698889E+02  0.47787274282E+02  0.20000014763E+02 0.  0.
         12    1    1    2    0    0 -0.25954920137E+02 -0.22677910433E+02 -0.26375698889E+02  0.43400725718E+02  0.00000000000E+00 0. -1.
         11    1    3    3    0    0  0.99213158527E+01  0.75047639337E+01  0.92076849831E+01  0.15476932931E+02  0.51100000000E-03 0. -1.
        -11    1    3    3    0    0  0.11845917263E+02  0.78320389706E+00  0.45320864876E+01  0.12707437678E+02  0.51100000000E-03 0.  1.
         12    1    3    3    0    0  0.41876870208E+01  0.14389942603E+02  0.12635927418E+02  0.19602903673E+02  0.00000000000E+00 0. -1.
</event>
<event>
 7    1  0.4005571E-009  0.4778729E+02  0.7816164E-02  0.1312668E+00
        -11   -1    0    0    0    0  0.00000000000E+00  0.00000000000E+00  0.45593999997E+02  0.45594000000E+02  0.51100000000E-03 0. -1.
         11   -1    0    0    0    0 -0.00000000000E+00 -0.00000000000E+00 -0.45593999997E+02  0.45594000000E+02  0.51100000000E-03 0.  1.
    9900012    2    1    2    0    0 -0.87574202046E+01  0.13828914826E+01 -0.42485489813E+02  0.47787289843E+02  0.20000085709E+02 0.  0.
         12    1    1    2    0    0  0.87574202046E+01 -0.13828914826E+01  0.42485489813E+02  0.43400710157E+02  0.00000000000E+00 0. -1.
         11    1    3    3    0    0 -0.78660447354E+01  0.73075775171E+01 -0.98400329568E+01  0.14563708243E+02  0.51100000000E-03 0. -1.
        -11    1    3    3    0    0 -0.23814427751E+00 -0.17179241740E+01 -0.62146075322E+01  0.64520789831E+01  0.51100000000E-03 0.  1.
         12    1    3    3    0    0 -0.65323119171E+00 -0.42067618605E+01 -0.26430849324E+02  0.26771502616E+02  0.00000000000E+00 0. -1.
</event>
<event>
 7    1  0.4005571E-009  0.4778728E+02  0.7816164E-02  0.1312668E+00
        -11   -1    0    0    0    0  0.00000000000E+00  0.00000000000E+00  0.45593999997E+02  0.45594000000E+02  0.51100000000E-03 0. -1.
         11   -1    0    0    0    0 -0.00000000000E+00 -0.00000000000E+00 -0.45593999997E+02  0.45594000000E+02  0.51100000000E-03 0.  1.
    9900012    2    1    2    0    0  0.40230232576E+02  0.37342204455E+01 -0.15849508118E+02  0.47787275086E+02  0.20000018427E+02 0.  0.
         12    1    1    2    0    0 -0.40230232576E+02 -0.37342204455E+01  0.15849508118E+02  0.43400724914E+02  0.00000000000E+00 0. -1.
         11    1    3    3    0    0  0.18848257903E+02  0.20323852693E+01  0.45710564072E+00  0.18963026174E+02  0.51100000000E-03 0. -1.
        -11    1    3    3    0    0 -0.86828861604E+00 -0.10281130536E+01 -0.78375719397E+00  0.15573108784E+01  0.51100000000E-03 0.  1.
        -12    1    3    3    0    0  0.22250263289E+02  0.27299482298E+01 -0.15522856565E+02  0.27266938034E+02  0.00000000000E+00 0.  1.
</event>
<event>
 7    1  0.4005571E-009  0.4778728E+02  0.7816164E-02  0.1312668E+00
        -11   -1    0    0    0    0  0.00000000000E+00  0.00000000000E+00  0.45593999997E+02  0.45594000000E+02  0.51100000000E-03 0.  1.
         11   -1    0    0    0    0 -0.00000000000E+00 -0.00000000000E+00 -0.45593999997E+02  0.45594000000E+02  0.51100000000E-03 0. -1.
    9900012    2    1    2    0    0  0.15044205215E+02 -0.22723065548E+02  0.33778053580E+02  0.47787277401E+02  0.20000028984E+02 0.  0.
         12    1    1    2    0    0 -0.15044205215E+02  0.22723065548E+02 -0.33778053580E+02  0.43400722599E+02  0.00000000000E+00 0. -1.
         11    1    3    3    0    0  0.59224231006E+01 -0.57577835919E+01  0.80079385388E+01  0.11504531593E+02  0.51100000000E-03 0. -1.
        -11    1    3    3    0    0  0.10286175209E+02 -0.19405725929E+02  0.19179093645E+02  0.29158621925E+02  0.51100000000E-03 0.  1.
         12    1    3    3    0    0 -0.11643930943E+01  0.24404439731E+01  0.65910213958E+01  0.71241238833E+01  0.00000000000E+00 0. -1.
</event>
<event>
 7    1  0.4005571E-009  0.4778727E+02  0.7816164E-02  0.1312668E+00
        -11   -1    0    0    0    0  0.00000000000E+00  0.00000000000E+00  0.45593999997E+02  0.45594000000E+02  0.51100000000E-03 0.  1.
         11   -1    0    0    0    0 -0.00000000000E+00 -0.00000000000E+00 -0.45593999997E+02  0.45594000000E+02  0.51100000000E-03 0. -1.
    9900012    2    1    2    0    0  0.13398662190E+02  0.26346544770E+02  0.31779849468E+02  0.47787269568E+02  0.19999993268E+02 0.  0.
         12    1    1    2    0    0 -0.13398662190E+02 -0.26346544770E+02 -0.31779849468E+02  0.43400730432E+02  0.00000000000E+00 0. -1.
         11    1    3    3    0    0 -0.26479131682E+01  0.20287142401E+01  0.71554108235E+01  0.78947469832E+01  0.51100000000E-03 0. -1.
        -11    1    3    3    0    0  0.65064384628E+00  0.98994737351E+01  0.51219812930E+01  0.11165017254E+02  0.51100000000E-03 0.  1.
        -12    1    3    3    0    0  0.15395931512E+02  0.14418356795E+02  0.19502457352E+02  0.28727505331E+02  0.00000000000E+00 0.  1.
</event>
<event>
 7    1  0.4005571E-009  0.4778726E+02  0.7816164E-02  0.1312668E+00
        -11   -1    0    0    0    0  0.00000000000E+00  0.00000000000E+00  0.45593999997E+02  0.45594000000E+02  0.51100000000E-03 0.  1.
         11   -1    0    0    0    0 -0.00000000000E+00 -0.00000000000E+00 -0.45593999997E+02  0.45594000000E+02  0.51100000000E-03 0. -1.
    9900012    2    1    2    0    0 -0.27133968114E+00  0.40548557233E+02  0.15471429392E+02  0.47787259841E+02  0.19999948919E+02 0.  0.
         12    1    1    2    0    0  0.27133968114E+00 -0.40548557233E+02 -0.15471429392E+02  0.43400740159E+02  0.00000000000E+00 0. -1.
         11    1    3    3    0    0 -0.46305786850E+01  0.43214160987E+01  0.57528004058E+01  0.85563782540E+01  0.51100000000E-03 0. -1.
        -11    1    3    3    0    0 -0.28505333863E+01  0.13391293095E+02  0.61890777584E+01  0.15025210650E+02  0.51100000000E-03 0.  1.
        -12    1    3    3    0    0  0.72097723902E+01  0.22835848040E+02  0.35295512277E+01  0.24205670937E+02  0.00000000000E+00 0.  1.
</event>
<event>
 7    1  0.4005571E-009  0.4778727E+02  0.7816164E-02  0.1312668E+00
        -11   -1    0    0    0    0  0.00000000000E+00  0.00000000000E+00  0.45593999997E+02  0.45594000000E+02  0.51100000000E-03 0.  1.
         11   -1    0    0    0    0 -0.00000000000E+00 -0.00000000000E+00 -0.45593999997E+02  0.45594000000E+02  0.51100000000E-03 0. -1.
    9900012    2    1    2    0    0 -0.18774391336E+02  0.38627365414E+01  0.38938729192E+02  0.47787272648E+02  0.20000007311E+02 0.  0.
         12    1    1    2    0    0  0.18774391336E+02 -0.38627365414E+01 -0.38938729192E+02  0.43400727352E+02  0.00000000000E+00 0. -1.
         11    1    3    3    0    0  0.96716667477E+00  0.26035048337E+01  0.13827137906E+02  0.14103311374E+02  0.51100000000E-03 0. -1.
        -11    1    3    3    0    0 -0.91480103186E+01  0.57169467635E+01  0.14229433758E+02  0.17856269443E+02  0.51100000000E-03 0.  1.
        -12    1    3    3    0    0 -0.10593547692E+02 -0.44577150558E+01  0.10882157529E+02  0.15827691831E+02  0.00000000000E+00 0.  1.
</event>
<event>
 7    1  0.4005571E-009  0.4778727E+02  0.7816164E-02  0.1312668E+00
        -11   -1    0    0    0    0  0.00000000000E+00  0.00000000000E+00  0.45593999997E+02  0.45594000000E+02  0.51100000000E-03 0.  1.
         11   -1    0    0    0    0 -0.00000000000E+00 -0.00000000000E+00 -0.45593999997E+02  0.45594000000E+02  0.51100000000E-03 0. -1.
    9900012    2    1    2    0    0 -0.39073141210E+00 -0.98161553171E+01  0.42274268005E+02  0.47787270610E+02  0.19999998019E+02 0.  0.
         12    1    1    2    0    0  0.39073141210E+00  0.98161553171E+01 -0.42274268005E+02  0.43400729390E+02  0.00000000000E+00 0. -1.
         11    1    3    3    0    0  0.26454060252E+01 -0.39072724791E+01  0.63467113594E+01  0.79085837293E+01  0.51100000000E-03 0. -1.
        -11    1    3    3    0    0  0.63898066357E+01 -0.28758032453E+01  0.10838477141E+02  0.12906295369E+02  0.51100000000E-03 0.  1.
         12    1    3    3    0    0 -0.94259440730E+01 -0.30330795927E+01  0.25089079504E+02  0.26972391512E+02  0.00000000000E+00 0. -1.
</event>
<event>
 7    1  0.4005571E-009  0.4778729E+02  0.7816164E-02  0.1312668E+00
        -11   -1    0    0    0    0  0.00000000000E+00  0.00000000000E+00  0.45593999997E+02  0.45594000000E+02  0.51100000000E-03 0.  1.
         11   -1    0    0    0    0 -0.00000000000E+00 -0.00000000000E+00 -0.45593999997E+02  0.45594000000E+02  0.51100000000E-03 0. -1.
    9900012    2    1    2    0    0  0.51401191523E+01  0.14174979047E+02  0.40697307933E+02  0.47787288844E+02  0.20000081154E+02 0.  0.
         12    1    1    2    0    0 -0.51401191523E+01 -0.14174979047E+02 -0.40697307933E+02  0.43400711156E+02  0.00000000000E+00 0. -1.
         11    1    3    3    0    0 -0.67658645899E+01  0.43698399497E+01  0.72556348078E+01  0.10840510208E+02  0.51100000000E-03 0. -1.
        -11    1    3    3    0    0  0.75444584873E+00  0.18281081843E+01  0.36464410593E+01  0.41482165725E+01  0.51100000000E-03 0.  1.
         12    1    3    3    0    0  0.11151537893E+02  0.79770309130E+01  0.29795232066E+02  0.32798562064E+02  0.00000000000E+00 0. -1.
</event>
<event>
 7    1  0.4005571E-009  0.4778727E+02  0.7816164E-02  0.1312668E+00
        -11   -1    0    0    0    0  0.00000000000E+00  0.00000000000E+00  0.45593999997E+02  0.45594000000E+02  0.51100000000E-03 0.  1.
         11   -1    0    0    0    0 -0.00000000000E+00 -0.00000000000E+00 -0.45593999997E+02  0.45594000000E+02  0.51100000000E-03 0. -1.
    9900012    2    1    2    0    0 -0.21878942273E+02  0.10964582619E+02  0.35842896258E+02  0.47787269601E+02  0.19999993419E+02 0.  0.
         12    1    1    2    0    0  0.21878942273E+02 -0.10964582619E+02 -0.35842896258E+02  0.43400730399E+02  0.00000000000E+00 0. -1.
         11    1    3    3    0    0 -0.72067476891E+01  0.83832734008E+01  0.84131383466E+01  0.13892349775E+02  0.51100000000E-03 0. -1.
        -11    1    3    3    0    0 -0.61637963564E+01  0.73516601088E+01  0.17610488653E+02  0.20054141785E+02  0.51100000000E-03 0.  1.
        -12    1    3    3    0    0 -0.85083982271E+01 -0.47703508907E+01  0.98192692584E+01  0.13840778041E+02  0.00000000000E+00 0.  1.
</event>
<event>
 7    1  0.4005571E-009  0.4778727E+02  0.7816164E-02  0.1312668E+00
        -11   -1    0    0    0    0  0.00000000000E+00  0.00000000000E+00  0.45593999997E+02  0.45594000000E+02  0.51100000000E-03 0.  1.
         11   -1    0    0    0    0 -0.00000000000E+00 -0.00000000000E+00 -0.45593999997E+02  0.45594000000E+02  0.51100000000E-03 0. -1.
    9900012    2    1    2    0    0 -0.20839375522E+02 -0.29447352839E+01  0.37956190889E+02  0.47787268845E+02  0.19999989972E+02 0.  0.
         12    1    1    2    0    0  0.20839375522E+02  0.29447352839E+01 -0.37956190889E+02  0.43400731155E+02  0.00000000000E+00 0. -1.
         11    1    3    3    0    0  0.10850384059E+01 -0.73602483629E+00 -0.68894480517E+00  0.14811097554E+01  0.51100000000E-03 0. -1.
        -11    1    3    3    0    0  0.21261091943E+00 -0.32716063295E+01  0.39061314768E+01  0.50996543759E+01  0.51100000000E-03 0.  1.
        -12    1    3    3    0    0 -0.22137024847E+02  0.10628958819E+01  0.34739004217E+02  0.41206504714E+02  0.00000000000E+00 0.  1.
</event>
<event>
 7    1  0.4005571E-009  0.4778727E+02  0.7816164E-02  0.1312668E+00
        -11   -1    0    0    0    0  0.00000000000E+00  0.00000000000E+00  0.45593999997E+02  0.45594000000E+02  0.51100000000E-03 0. -1.
         11   -1    0    0    0    0 -0.00000000000E+00 -0.00000000000E+00 -0.45593999997E+02  0.45594000000E+02  0.51100000000E-03 0.  1.
    9900012    2    1    2    0    0 -0.24726986814E+02  0.15728668634E+02 -0.32012624515E+02  0.47787273943E+02  0.20000013217E+02 0.  0.
         12    1    1    2    0    0  0.24726986814E+02 -0.15728668634E+02  0.32012624515E+02  0.43400726057E+02  0.00000000000E+00 0. -1.
         11    1    3    3    0    0 -0.90345568323E+01 -0.25263633750E+01 -0.13774017729E+02  0.16665212082E+02  0.51100000000E-03 0. -1.
        -11    1    3    3    0    0  0.57707061418E+00 -0.15631885535E+00 -0.16336560743E+00  0.61978598008E+00  0.51100000000E-03 0.  1.
        -12    1    3    3    0    0 -0.16269500596E+02  0.18411350864E+02 -0.18075241179E+02  0.30502275882E+02  0.00000000000E+00 0.  1.
</event>
<event>
 7    1  0.4005571E-009  0.4778728E+02  0.7816164E-02  0.1312668E+00
        -11   -1    0    0    0    0  0.00000000000E+00  0.00000000000E+00  0.45593999997E+02  0.45594000000E+02  0.51100000000E-03 0.  1.
         11   -1    0    0    0    0 -0.00000000000E+00 -0.00000000000E+00 -0.45593999997E+02  0.45594000000E+02  0.51100000000E-03 0. -1.
    9900012    2    1    2    0    0  0.31606989843E+02 -0.21588535412E+01  0.29664123593E+02  0.47787277839E+02  0.20000030980E+02 0.  0.
         12    1    1    2    0    0 -0.31606989843E+02  0.21588535412E+01 -0.29664123593E+02  0.43400722161E+02  0.00000000000E+00 0. -1.
         11    1    3    3    0    0  0.73697007275E+01 -0.51411449535E+01  0.12902305077E+01  0.90779157999E+01  0.51100000000E-03 0. -1.
        -11    1    3    3    0    0  0.10965591141E+02 -0.27168722228E+01  0.84829213354E+01  0.14127474593E+02  0.51100000000E-03 0.  1.
        -12    1    3    3    0    0  0.13271697975E+02  0.56991636351E+01  0.19890971750E+02  0.24581887446E+02  0.00000000000E+00 0.  1.
</event>
<event>
 7    1  0.4005571E-009  0.4778727E+02  0.7816164E-02  0.1312668E+00
        -11   -1    0    0    0    0  0.00000000000E+00  0.00000000000E+00  0.45593999997E+02  0.45594000000E+02  0.51100000000E-03 0.  1.
         11   -1    0    0    0    0 -0.00000000000E+00 -0.00000000000E+00 -0.45593999997E+02  0.45594000000E+02  0.51100000000E-03 0. -1.
    9900012    2    1    2    0    0  0.33603388845E+01 -0.19365657117E+02  0.38694993806E+02  0.47787273063E+02  0.20000009203E+02 0.  0.
         12    1    1    2    0    0 -0.33603388845E+01  0.19365657117E+02 -0.38694993806E+02  0.43400726937E+02  0.00000000000E+00 0. -1.
         11    1    3    3    0    0 -0.22516320117E+01 -0.86155061386E+00  0.11430290991E+02  0.11681766501E+02  0.51100000000E-03 0. -1.
        -11    1    3    3    0    0 -0.42701038042E+01 -0.89407626196E+01  0.10914785709E+02  0.14741220101E+02  0.51100000000E-03 0.  1.
        -12    1    3    3    0    0  0.98820747004E+01 -0.95633438838E+01  0.16349917106E+02  0.21364286461E+02  0.00000000000E+00 0.  1.
</event>
<event>
 7    1  0.4005571E-009  0.4778727E+02  0.7816164E-02  0.1312668E+00
        -11   -1    0    0    0    0  0.00000000000E+00  0.00000000000E+00  0.45593999997E+02  0.45594000000E+02  0.51100000000E-03 0. -1.
         11   -1    0    0    0    0 -0.00000000000E+00 -0.00000000000E+00 -0.45593999997E+02  0.45594000000E+02  0.51100000000E-03 0.  1.
    9900012    2    1    2    0    0 -0.11733159921E+02  0.40552227846E+02 -0.10073381883E+02  0.47787271347E+02  0.20000001379E+02 0.  0.
         12    1    1    2    0    0  0.11733159921E+02 -0.40552227846E+02  0.10073381883E+02  0.43400728653E+02  0.00000000000E+00 0. -1.
         11    1    3    3    0    0  0.23202359498E+01  0.17679328059E+02 -0.20288024809E+00  0.17832086141E+02  0.51100000000E-03 0. -1.
        -11    1    3    3    0    0 -0.18495411525E+01  0.68306957080E-01  0.74720667007E+00  0.19959424801E+01  0.51100000000E-03 0.  1.
        -12    1    3    3    0    0 -0.12203854718E+02  0.22804592830E+02 -0.10617708305E+02  0.27959242726E+02  0.00000000000E+00 0.  1.
</event>
<event>
 7    1  0.4005571E-009  0.4778728E+02  0.7816164E-02  0.1312668E+00
        -11   -1    0    0    0    0  0.00000000000E+00  0.00000000000E+00  0.45593999997E+02  0.45594000000E+02  0.51100000000E-03 0.  1.
         11   -1    0    0    0    0 -0.00000000000E+00 -0.00000000000E+00 -0.45593999997E+02  0.45594000000E+02  0.51100000000E-03 0. -1.
    9900012    2    1    2    0    0  0.29007696286E+02 -0.44182727856E+00  0.32279727499E+02  0.47787280391E+02  0.20000042616E+02 0.  0.
         12    1    1    2    0    0 -0.29007696286E+02  0.44182727856E+00 -0.32279727499E+02  0.43400719609E+02  0.00000000000E+00 0. -1.
         11    1    3    3    0    0  0.83387310758E+01 -0.11422947949E+01  0.88804842941E+01  0.12235288101E+02  0.51100000000E-03 0. -1.
        -11    1    3    3    0    0  0.21939816820E+02  0.19280818445E+01  0.24893503252E+02  0.33237923613E+02  0.51100000000E-03 0.  1.
         12    1    3    3    0    0 -0.12708516095E+01 -0.12276143282E+01 -0.14942600477E+01  0.23140686771E+01  0.00000000000E+00 0. -1.
</event>
<event>
 7    1  0.4005571E-009  0.4778727E+02  0.7816164E-02  0.1312668E+00
        -11   -1    0    0    0    0  0.00000000000E+00  0.00000000000E+00  0.45593999997E+02  0.45594000000E+02  0.51100000000E-03 0.  1.
         11   -1    0    0    0    0 -0.00000000000E+00 -0.00000000000E+00 -0.45593999997E+02  0.45594000000E+02  0.51100000000E-03 0. -1.
    9900012    2    1    2    0    0  0.20495073449E+02  0.29859362798E+02  0.23916394832E+02  0.47787268161E+02  0.19999986852E+02 0.  0.
         12    1    1    2    0    0 -0.20495073449E+02 -0.29859362798E+02 -0.23916394832E+02  0.43400731839E+02  0.00000000000E+00 0. -1.
         11    1    3    3    0    0  0.31457870701E+01  0.89396076852E+01  0.55968293686E+01  0.11006228287E+02  0.51100000000E-03 0. -1.
        -11    1    3    3    0    0 -0.40194418828E+00 -0.12399148282E+01  0.54569806431E+01  0.56104889191E+01  0.51100000000E-03 0.  1.
         12    1    3    3    0    0  0.17751230567E+02  0.22159669941E+02  0.12862584821E+02  0.31170550955E+02  0.00000000000E+00 0. -1.
</event>
<event>
 7    1  0.4005571E-009  0.4778727E+02  0.7816164E-02  0.1312668E+00
        -11   -1    0    0    0    0  0.00000000000E+00  0.00000000000E+00  0.45593999997E+02  0.45594000000E+02  0.51100000000E-03 0. -1.
         11   -1    0    0    0    0 -0.00000000000E+00 -0.00000000000E+00 -0.45593999997E+02  0.45594000000E+02  0.51100000000E-03 0.  1.
    9900012    2    1    2    0    0 -0.36153990948E+02 -0.16180332551E+02  0.17740045999E+02  0.47787268958E+02  0.19999990487E+02 0.  0.
         12    1    1    2    0    0  0.36153990948E+02  0.16180332551E+02 -0.17740045999E+02  0.43400731042E+02  0.00000000000E+00 0. -1.
         11    1    3    3    0    0 -0.11909739824E+02 -0.97090386739E+01  0.70769628478E+01  0.16917172874E+02  0.51100000000E-03 0. -1.
        -11    1    3    3    0    0 -0.21494600071E+02 -0.18220180068E+00  0.52465152218E+01  0.22126385876E+02  0.51100000000E-03 0.  1.
        -12    1    3    3    0    0 -0.27496510534E+01 -0.62890920767E+01  0.54165679295E+01  0.87437102079E+01  0.00000000000E+00 0.  1.
</event>
<event>
 7    1  0.4005571E-009  0.4778726E+02  0.7816164E-02  0.1312668E+00
        -11   -1    0    0    0    0  0.00000000000E+00  0.00000000000E+00  0.45593999997E+02  0.45594000000E+02  0.51100000000E-03 0.  1.
         11   -1    0    0    0    0 -0.00000000000E+00 -0.00000000000E+00 -0.45593999997E+02  0.45594000000E+02  0.51100000000E-03 0. -1.
    9900012    2    1    2    0    0 -0.23135533207E+02 -0.79036819760E+01  0.35859493204E+02  0.47787258781E+02  0.19999944085E+02 0.  0.
         12    1    1    2    0    0  0.23135533207E+02  0.79036819760E+01 -0.35859493204E+02  0.43400741219E+02  0.00000000000E+00 0. -1.
         11    1    3    3    0    0 -0.84440869495E+01  0.46516352555E+01  0.66275028963E+01  0.11698893532E+02  0.51100000000E-03 0. -1.
        -11    1    3    3    0    0 -0.54104312363E+01 -0.72823057718E+00  0.41965602838E+01  0.68857972969E+01  0.51100000000E-03 0.  1.
        -12    1    3    3    0    0 -0.92810150212E+01 -0.11827086654E+02  0.25035430024E+02  0.29202567952E+02  0.00000000000E+00 0.  1.
</event>
<event>
 7    1  0.4005571E-009  0.4778727E+02  0.7816164E-02  0.1312668E+00
        -11   -1    0    0    0    0  0.00000000000E+00  0.00000000000E+00  0.45593999997E+02  0.45594000000E+02  0.51100000000E-03 0. -1.
         11   -1    0    0    0    0 -0.00000000000E+00 -0.00000000000E+00 -0.45593999997E+02  0.45594000000E+02  0.51100000000E-03 0.  1.
    9900012    2    1    2    0    0 -0.37982837543E+02 -0.87781562321E+01 -0.19075402017E+02  0.47787274928E+02  0.20000017708E+02 0.  0.
         12    1    1    2    0    0  0.37982837543E+02  0.87781562321E+01  0.19075402017E+02  0.43400725072E+02  0.00000000000E+00 0. -1.
         11    1    3    3    0    0 -0.14024752299E+02 -0.11763457041E+02 -0.12359061809E+02  0.22086625085E+02  0.51100000000E-03 0. -1.
        -11    1    3    3    0    0 -0.50711555127E+00 -0.34382649400E+00  0.65222929096E+00  0.89486655398E+00  0.51100000000E-03 0.  1.
        -12    1    3    3    0    0 -0.23450969693E+02  0.33291273026E+01 -0.73685694994E+01  0.24805783289E+02  0.00000000000E+00 0.  1.
</event>
<event>
 7    1  0.4005571E-009  0.4778727E+02  0.7816164E-02  0.1312668E+00
        -11   -1    0    0    0    0  0.00000000000E+00  0.00000000000E+00  0.45593999997E+02  0.45594000000E+02  0.51100000000E-03 0. -1.
         11   -1    0    0    0    0 -0.00000000000E+00 -0.00000000000E+00 -0.45593999997E+02  0.45594000000E+02  0.51100000000E-03 0.  1.
    9900012    2    1    2    0    0  0.14309075946E+01  0.73057897780E+01 -0.42757469432E+02  0.47787271284E+02  0.20000001092E+02 0.  0.
         12    1    1    2    0    0 -0.14309075946E+01 -0.73057897780E+01  0.42757469432E+02  0.43400728716E+02  0.00000000000E+00 0. -1.
         11    1    3    3    0    0 -0.13519485397E+01 -0.52084670178E+01 -0.36747295413E+01  0.65160978348E+01  0.51100000000E-03 0. -1.
        -11    1    3    3    0    0  0.33706749802E+01  0.78479945325E+01 -0.24206609675E+02  0.25669289438E+02  0.51100000000E-03 0.  1.
        -12    1    3    3    0    0 -0.58781884601E+00  0.46662622632E+01 -0.14876130216E+02  0.15601884011E+02  0.00000000000E+00 0.  1.
</event>
<event>
 7    1  0.4005571E-009  0.4778728E+02  0.7816164E-02  0.1312668E+00
        -11   -1    0    0    0    0  0.00000000000E+00  0.00000000000E+00  0.45593999997E+02  0.45594000000E+02  0.51100000000E-03 0.  1.
         11   -1    0    0    0    0 -0.00000000000E+00 -0.00000000000E+00 -0.45593999997E+02  0.45594000000E+02  0.51100000000E-03 0. -1.
    9900012    2    1    2    0    0  0.33659030646E+02  0.60205499520E+01  0.26729111793E+02  0.47787276700E+02  0.20000025786E+02 0.  0.
         12    1    1    2    0    0 -0.33659030646E+02 -0.60205499520E+01 -0.26729111793E+02  0.43400723300E+02  0.00000000000E+00 0. -1.
         11    1    3    3    0    0  0.58567979175E+01  0.17493995725E+01  0.59421352122E+01  0.85247552371E+01  0.51100000000E-03 0. -1.
        -11    1    3    3    0    0  0.19904688839E+02  0.73927771986E+00  0.22906439622E+02  0.30355364365E+02  0.51100000000E-03 0.  1.
         12    1    3    3    0    0  0.78975438894E+01  0.35318726597E+01 -0.21194630421E+01  0.89071570973E+01  0.00000000000E+00 0. -1.
</event>
<event>
 7    1  0.4005571E-009  0.4778727E+02  0.7816164E-02  0.1312668E+00
        -11   -1    0    0    0    0  0.00000000000E+00  0.00000000000E+00  0.45593999997E+02  0.45594000000E+02  0.51100000000E-03 0.  1.
         11   -1    0    0    0    0 -0.00000000000E+00 -0.00000000000E+00 -0.45593999997E+02  0.45594000000E+02  0.51100000000E-03 0. -1.
    9900012    2    1    2    0    0  0.17754185859E+02  0.19629540617E+02  0.34396123922E+02  0.47787270500E+02  0.19999997517E+02 0.  0.
         12    1    1    2    0    0 -0.17754185859E+02 -0.19629540617E+02 -0.34396123922E+02  0.43400729500E+02  0.00000000000E+00 0. -1.
         11    1    3    3    0    0 -0.14441139312E+01  0.36869683067E+01  0.17854407325E+01  0.43436159143E+01  0.51100000000E-03 0. -1.
        -11    1    3    3    0    0  0.93839115733E+01  0.16225581906E+02  0.19304002902E+02  0.26906724678E+02  0.51100000000E-03 0.  1.
        -12    1    3    3    0    0  0.98143882164E+01 -0.28300959610E+00  0.13306680288E+02  0.16536929908E+02  0.00000000000E+00 0.  1.
</event>
<event>
 7    1  0.4005571E-009  0.4778726E+02  0.7816164E-02  0.1312668E+00
        -11   -1    0    0    0    0  0.00000000000E+00  0.00000000000E+00  0.45593999997E+02  0.45594000000E+02  0.51100000000E-03 0.  1.
         11   -1    0    0    0    0 -0.00000000000E+00 -0.00000000000E+00 -0.45593999997E+02  0.45594000000E+02  0.51100000000E-03 0. -1.
    9900012    2    1    2    0    0 -0.40309237387E+02  0.69789219205E+01  0.14494274766E+02  0.47787263015E+02  0.19999963389E+02 0.  0.
         12    1    1    2    0    0  0.40309237387E+02 -0.69789219205E+01 -0.14494274766E+02  0.43400736985E+02  0.00000000000E+00 0. -1.
         11    1    3    3    0    0 -0.15244243399E+01 -0.11107618900E+01 -0.24899940961E+01  0.31237369295E+01  0.51100000000E-03 0. -1.
        -11    1    3    3    0    0 -0.89382623654E+01 -0.26208790137E+01  0.17251589045E+01  0.94729992307E+01  0.51100000000E-03 0.  1.
         12    1    3    3    0    0 -0.29846550681E+02  0.10710562824E+02  0.15259109958E+02  0.35190526854E+02  0.00000000000E+00 0. -1.
</event>
<event>
 7    1  0.4005571E-009  0.4778727E+02  0.7816164E-02  0.1312668E+00
        -11   -1    0    0    0    0  0.00000000000E+00  0.00000000000E+00  0.45593999997E+02  0.45594000000E+02  0.51100000000E-03 0. -1.
         11   -1    0    0    0    0 -0.00000000000E+00 -0.00000000000E+00 -0.45593999997E+02  0.45594000000E+02  0.51100000000E-03 0.  1.
    9900012    2    1    2    0    0 -0.34745460562E+02  0.12510178065E+02 -0.22800699943E+02  0.47787268408E+02  0.19999987978E+02 0.  0.
         12    1    1    2    0    0  0.34745460562E+02 -0.12510178065E+02  0.22800699943E+02  0.43400731592E+02  0.00000000000E+00 0. -1.
         11    1    3    3    0    0 -0.15521650552E+02  0.12760154285E+02 -0.69951130978E+01  0.21276155215E+02  0.51100000000E-03 0. -1.
        -11    1    3    3    0    0  0.10244582486E+00 -0.15521335469E+01 -0.73598416146E-01  0.15572510017E+01  0.51100000000E-03 0.  1.
        -12    1    3    3    0    0 -0.19326255835E+02  0.13021573269E+01 -0.15731988429E+02  0.24953862190E+02  0.00000000000E+00 0.  1.
</event>
<event>
 7    1  0.4005571E-009  0.4778727E+02  0.7816164E-02  0.1312668E+00
        -11   -1    0    0    0    0  0.00000000000E+00  0.00000000000E+00  0.45593999997E+02  0.45594000000E+02  0.51100000000E-03 0. -1.
         11   -1    0    0    0    0 -0.00000000000E+00 -0.00000000000E+00 -0.45593999997E+02  0.45594000000E+02  0.51100000000E-03 0.  1.
    9900012    2    1    2    0    0  0.32827439688E+02 -0.17316908111E+02 -0.22496827755E+02  0.47787270029E+02  0.19999995369E+02 0.  0.
         12    1    1    2    0    0 -0.32827439688E+02  0.17316908111E+02  0.22496827755E+02  0.43400729971E+02  0.00000000000E+00 0. -1.
         11    1    3    3    0    0  0.78671402652E+01 -0.27142313170E+01 -0.95354929150E+01  0.12656404426E+02  0.51100000000E-03 0. -1.
        -11    1    3    3    0    0  0.70847635501E+01  0.12859437036E+01 -0.78922376524E+01  0.10683395583E+02  0.51100000000E-03 0.  1.
        -12    1    3    3    0    0  0.17875535873E+02 -0.15888620497E+02 -0.50690971876E+01  0.24447470019E+02  0.00000000000E+00 0.  1.
</event>
<event>
 7    1  0.4005571E-009  0.4778727E+02  0.7816164E-02  0.1312668E+00
        -11   -1    0    0    0    0  0.00000000000E+00  0.00000000000E+00  0.45593999997E+02  0.45594000000E+02  0.51100000000E-03 0. -1.
         11   -1    0    0    0    0 -0.00000000000E+00 -0.00000000000E+00 -0.45593999997E+02  0.45594000000E+02  0.51100000000E-03 0.  1.
    9900012    2    1    2    0    0 -0.65661012095E+01 -0.42569431081E+02  0.53247727590E+01  0.47787270138E+02  0.19999995866E+02 0.  0.
         12    1    1    2    0    0  0.65661012095E+01  0.42569431081E+02 -0.53247727590E+01  0.43400729862E+02  0.00000000000E+00 0. -1.
         11    1    3    3    0    0 -0.31391545615E+01 -0.74105855970E+01  0.40376865210E+01  0.90041092261E+01  0.51100000000E-03 0. -1.
        -11    1    3    3    0    0  0.59480957175E+01 -0.86472322982E+01 -0.11453006945E+01  0.10557754639E+02  0.51100000000E-03 0.  1.
        -12    1    3    3    0    0 -0.93750423655E+01 -0.26511613185E+02  0.24323869325E+01  0.28225406272E+02  0.00000000000E+00 0.  1.
</event>
<event>
 7    1  0.4005571E-009  0.4778727E+02  0.7816164E-02  0.1312668E+00
        -11   -1    0    0    0    0  0.00000000000E+00  0.00000000000E+00  0.45593999997E+02  0.45594000000E+02  0.51100000000E-03 0.  1.
         11   -1    0    0    0    0 -0.00000000000E+00 -0.00000000000E+00 -0.45593999997E+02  0.45594000000E+02  0.51100000000E-03 0. -1.
    9900012    2    1    2    0    0  0.38734393858E+02  0.32759508586E+00  0.19574549591E+02  0.47787267544E+02  0.19999984039E+02 0.  0.
         12    1    1    2    0    0 -0.38734393858E+02 -0.32759508586E+00 -0.19574549591E+02  0.43400732456E+02  0.00000000000E+00 0. -1.
         11    1    3    3    0    0  0.13528200946E+02  0.54741033994E+01  0.20343904836E+01  0.14734882890E+02  0.51100000000E-03 0. -1.
        -11    1    3    3    0    0  0.93658786612E+01  0.34245571749E+01  0.55060479768E+01  0.11391393221E+02  0.51100000000E-03 0.  1.
        -12    1    3    3    0    0  0.15840314250E+02 -0.85710654884E+01  0.12034111130E+02  0.21660991433E+02  0.00000000000E+00 0.  1.
</event>
<event>
 7    1  0.4005571E-009  0.4778727E+02  0.7816164E-02  0.1312668E+00
        -11   -1    0    0    0    0  0.00000000000E+00  0.00000000000E+00  0.45593999997E+02  0.45594000000E+02  0.51100000000E-03 0.  1.
         11   -1    0    0    0    0 -0.00000000000E+00 -0.00000000000E+00 -0.45593999997E+02  0.45594000000E+02  0.51100000000E-03 0. -1.
    9900012    2    1    2    0    0 -0.54848397804E+01  0.10751576925E+02  0.41688645377E+02  0.47787273887E+02  0.20000012961E+02 0.  0.
         12    1    1    2    0    0  0.54848397804E+01 -0.10751576925E+02 -0.41688645377E+02  0.43400726113E+02  0.00000000000E+00 0. -1.
         11    1    3    3    0    0 -0.69011321133E+01  0.41607194944E+01  0.38947903545E+01  0.89502292330E+01  0.51100000000E-03 0. -1.
        -11    1    3    3    0    0  0.37954480029E+00  0.49113422253E+01  0.12054788276E+02  0.13022413653E+02  0.51100000000E-03 0.  1.
         12    1    3    3    0    0  0.10367475326E+01  0.16795152049E+01  0.25739066746E+02  0.25814631001E+02  0.00000000000E+00 0. -1.
</event>
<event>
 7    1  0.4005571E-009  0.4778727E+02  0.7816164E-02  0.1312668E+00
        -11   -1    0    0    0    0  0.00000000000E+00  0.00000000000E+00  0.45593999997E+02  0.45594000000E+02  0.51100000000E-03 0. -1.
         11   -1    0    0    0    0 -0.00000000000E+00 -0.00000000000E+00 -0.45593999997E+02  0.45594000000E+02  0.51100000000E-03 0.  1.
    9900012    2    1    2    0    0 -0.24159554724E+02 -0.36038240746E+02  0.10883748072E+01  0.47787269128E+02  0.19999991262E+02 0.  0.
         12    1    1    2    0    0  0.24159554724E+02  0.36038240746E+02 -0.10883748072E+01  0.43400730872E+02  0.00000000000E+00 0. -1.
         11    1    3    3    0    0  0.44737893150E+00 -0.42684471963E+01 -0.35139033429E+01  0.55468284938E+01  0.51100000000E-03 0. -1.
        -11    1    3    3    0    0 -0.12845542753E+02 -0.11030656050E+02 -0.30422148639E+01  0.17202860607E+02  0.51100000000E-03 0.  1.
         12    1    3    3    0    0 -0.11761390902E+02 -0.20739137500E+02  0.76444930140E+01  0.25037580027E+02  0.00000000000E+00 0. -1.
</event>
<event>
 7    1  0.4005571E-009  0.4778726E+02  0.7816164E-02  0.1312668E+00
        -11   -1    0    0    0    0  0.00000000000E+00  0.00000000000E+00  0.45593999997E+02  0.45594000000E+02  0.51100000000E-03 0.  1.
         11   -1    0    0    0    0 -0.00000000000E+00 -0.00000000000E+00 -0.45593999997E+02  0.45594000000E+02  0.51100000000E-03 0. -1.
    9900012    2    1    2    0    0  0.29963676106E+01  0.31317835906E+02  0.29897136141E+02  0.47787264821E+02  0.19999971623E+02 0.  0.
         12    1    1    2    0    0 -0.29963676106E+01 -0.31317835906E+02 -0.29897136141E+02  0.43400735179E+02  0.00000000000E+00 0. -1.
         11    1    3    3    0    0 -0.24011939966E+00  0.41829180783E+01  0.39688492346E+01  0.57711546058E+01  0.51100000000E-03 0. -1.
        -11    1    3    3    0    0  0.82330711094E+01  0.26213728499E+02  0.18921769618E+02  0.33361300745E+02  0.51100000000E-03 0.  1.
         12    1    3    3    0    0 -0.49965840992E+01  0.92118932903E+00  0.70065172883E+01  0.86548094694E+01  0.00000000000E+00 0. -1.
</event>
<event>
 7    1  0.4005571E-009  0.4778727E+02  0.7816164E-02  0.1312668E+00
        -11   -1    0    0    0    0  0.00000000000E+00  0.00000000000E+00  0.45593999997E+02  0.45594000000E+02  0.51100000000E-03 0.  1.
         11   -1    0    0    0    0 -0.00000000000E+00 -0.00000000000E+00 -0.45593999997E+02  0.45594000000E+02  0.51100000000E-03 0. -1.
    9900012    2    1    2    0    0  0.15851800605E+01 -0.75090760390E+01  0.42716791860E+02  0.47787270449E+02  0.19999997284E+02 0.  0.
         12    1    1    2    0    0 -0.15851800605E+01  0.75090760390E+01 -0.42716791860E+02  0.43400729551E+02  0.00000000000E+00 0. -1.
         11    1    3    3    0    0  0.20840450214E+01 -0.65391362255E+01  0.65031140801E+01  0.94548421048E+01  0.51100000000E-03 0. -1.
        -11    1    3    3    0    0 -0.37112323509E+01 -0.26191047816E+01  0.44321041753E+01  0.63463771635E+01  0.51100000000E-03 0.  1.
         12    1    3    3    0    0  0.32123673900E+01  0.16491649681E+01  0.31781573604E+02  0.31986051180E+02  0.00000000000E+00 0. -1.
</event>
<event>
 7    1  0.4005571E-009  0.4778728E+02  0.7816164E-02  0.1312668E+00
        -11   -1    0    0    0    0  0.00000000000E+00  0.00000000000E+00  0.45593999997E+02  0.45594000000E+02  0.51100000000E-03 0.  1.
         11   -1    0    0    0    0 -0.00000000000E+00 -0.00000000000E+00 -0.45593999997E+02  0.45594000000E+02  0.51100000000E-03 0. -1.
    9900012    2    1    2    0    0  0.28624806724E+02 -0.24781604613E+02  0.21215921420E+02  0.47787276401E+02  0.20000024424E+02 0.  0.
         12    1    1    2    0    0 -0.28624806724E+02  0.24781604613E+02 -0.21215921420E+02  0.43400723599E+02  0.00000000000E+00 0. -1.
         11    1    3    3    0    0  0.16367554598E+02 -0.44577540393E+01  0.12963534864E+02  0.21349980117E+02  0.51100000000E-03 0. -1.
        -11    1    3    3    0    0  0.96768022552E+00 -0.41490198506E+01  0.47901625429E+01  0.64106495917E+01  0.51100000000E-03 0.  1.
        -12    1    3    3    0    0  0.11289571901E+02 -0.16174830723E+02  0.34622240138E+01  0.20026646692E+02  0.00000000000E+00 0.  1.
</event>
<event>
 7    1  0.4005571E-009  0.4778727E+02  0.7816164E-02  0.1312668E+00
        -11   -1    0    0    0    0  0.00000000000E+00  0.00000000000E+00  0.45593999997E+02  0.45594000000E+02  0.51100000000E-03 0. -1.
         11   -1    0    0    0    0 -0.00000000000E+00 -0.00000000000E+00 -0.45593999997E+02  0.45594000000E+02  0.51100000000E-03 0.  1.
    9900012    2    1    2    0    0 -0.11067318418E+02 -0.35764787411E+02 -0.21954895055E+02  0.47787274518E+02  0.20000015836E+02 0.  0.
         12    1    1    2    0    0  0.11067318418E+02  0.35764787411E+02  0.21954895055E+02  0.43400725482E+02  0.00000000000E+00 0. -1.
         11    1    3    3    0    0 -0.57703890828E+01 -0.59062962346E+01 -0.14913713039E+01  0.83908232019E+01  0.51100000000E-03 0. -1.
        -11    1    3    3    0    0 -0.82946526993E+01 -0.11363146112E+02 -0.44687345467E+01  0.14761163290E+02  0.51100000000E-03 0.  1.
        -12    1    3    3    0    0  0.29977233643E+01 -0.18495345064E+02 -0.15994789205E+02  0.24635288026E+02  0.00000000000E+00 0.  1.
</event>
<event>
 7    1  0.4005571E-009  0.4778727E+02  0.7816164E-02  0.1312668E+00
        -11   -1    0    0    0    0  0.00000000000E+00  0.00000000000E+00  0.45593999997E+02  0.45594000000E+02  0.51100000000E-03 0.  1.
         11   -1    0    0    0    0 -0.00000000000E+00 -0.00000000000E+00 -0.45593999997E+02  0.45594000000E+02  0.51100000000E-03 0. -1.
    9900012    2    1    2    0    0 -0.32743775136E+01 -0.43154322881E+02  0.32567032501E+01  0.47787271348E+02  0.20000001385E+02 0.  0.
         12    1    1    2    0    0  0.32743775136E+01  0.43154322881E+02 -0.32567032501E+01  0.43400728652E+02  0.00000000000E+00 0. -1.
         11    1    3    3    0    0  0.19248247818E+00 -0.98259033148E+01 -0.12134315128E+00  0.98285375249E+01  0.51100000000E-03 0. -1.
        -11    1    3    3    0    0 -0.97964612114E+01 -0.12181483515E+02  0.27594279926E-01  0.15632016972E+02  0.51100000000E-03 0.  1.
         12    1    3    3    0    0  0.63296012197E+01 -0.21146936051E+02  0.33504521214E+01  0.22326716852E+02  0.00000000000E+00 0. -1.
</event>
<event>
 7    1  0.4005571E-009  0.4778727E+02  0.7816164E-02  0.1312668E+00
        -11   -1    0    0    0    0  0.00000000000E+00  0.00000000000E+00  0.45593999997E+02  0.45594000000E+02  0.51100000000E-03 0.  1.
         11   -1    0    0    0    0 -0.00000000000E+00 -0.00000000000E+00 -0.45593999997E+02  0.45594000000E+02  0.51100000000E-03 0. -1.
    9900012    2    1    2    0    0  0.26945138795E+02  0.15990591888E+02  0.30031383468E+02  0.47787268133E+02  0.19999986724E+02 0.  0.
         12    1    1    2    0    0 -0.26945138795E+02 -0.15990591888E+02 -0.30031383468E+02  0.43400731867E+02  0.00000000000E+00 0. -1.
         11    1    3    3    0    0  0.17703073538E+00 -0.29639836354E-01  0.16521826278E+01  0.16619043588E+01  0.51100000000E-03 0. -1.
        -11    1    3    3    0    0  0.55474940666E+01  0.57612028423E+01  0.19256141122E+02  0.20851022032E+02  0.51100000000E-03 0.  1.
        -12    1    3    3    0    0  0.21220613993E+02  0.10259028882E+02  0.91230597178E+01  0.25274341741E+02  0.00000000000E+00 0.  1.
</event>
<event>
 7    1  0.4005571E-009  0.4778727E+02  0.7816164E-02  0.1312668E+00
        -11   -1    0    0    0    0  0.00000000000E+00  0.00000000000E+00  0.45593999997E+02  0.45594000000E+02  0.51100000000E-03 0. -1.
         11   -1    0    0    0    0 -0.00000000000E+00 -0.00000000000E+00 -0.45593999997E+02  0.45594000000E+02  0.51100000000E-03 0.  1.
    9900012    2    1    2    0    0  0.24976200348E+02 -0.16755932712E+02 -0.31289797004E+02  0.47787271188E+02  0.20000000654E+02 0.  0.
         12    1    1    2    0    0 -0.24976200348E+02  0.16755932712E+02  0.31289797004E+02  0.43400728812E+02  0.00000000000E+00 0. -1.
         11    1    3    3    0    0  0.16261203205E+01  0.12914896208E-01  0.25345152420E+01  0.30113455239E+01  0.51100000000E-03 0. -1.
        -11    1    3    3    0    0  0.87770448348E+01 -0.29784045666E+01 -0.10232548522E+02  0.13806247112E+02  0.51100000000E-03 0.  1.
         12    1    3    3    0    0  0.14573035193E+02 -0.13790443042E+02 -0.23591763724E+02  0.30969678552E+02  0.00000000000E+00 0. -1.
</event>
<event>
 7    1  0.4005571E-009  0.4778727E+02  0.7816164E-02  0.1312668E+00
        -11   -1    0    0    0    0  0.00000000000E+00  0.00000000000E+00  0.45593999997E+02  0.45594000000E+02  0.51100000000E-03 0.  1.
         11   -1    0    0    0    0 -0.00000000000E+00 -0.00000000000E+00 -0.45593999997E+02  0.45594000000E+02  0.51100000000E-03 0. -1.
    9900012    2    1    2    0    0 -0.15350895742E+01  0.31656815145E+02  0.29649838998E+02  0.47787269618E+02  0.19999993495E+02 0.  0.
         12    1    1    2    0    0  0.15350895742E+01 -0.31656815145E+02 -0.29649838998E+02  0.43400730382E+02  0.00000000000E+00 0. -1.
         11    1    3    3    0    0  0.39596405112E+01  0.41359532366E+01  0.41205337683E+00  0.57406141134E+01  0.51100000000E-03 0. -1.
        -11    1    3    3    0    0 -0.48289388976E+01  0.12753284550E+02  0.69596936297E+01  0.15310200958E+02  0.51100000000E-03 0.  1.
         12    1    3    3    0    0 -0.66579118774E+00  0.14767577359E+02  0.22278091991E+02  0.26736454547E+02  0.00000000000E+00 0. -1.
</event>
<event>
 7    1  0.4005571E-009  0.4778727E+02  0.7816164E-02  0.1312668E+00
        -11   -1    0    0    0    0  0.00000000000E+00  0.00000000000E+00  0.45593999997E+02  0.45594000000E+02  0.51100000000E-03 0. -1.
         11   -1    0    0    0    0 -0.00000000000E+00 -0.00000000000E+00 -0.45593999997E+02  0.45594000000E+02  0.51100000000E-03 0.  1.
    9900012    2    1    2    0    0 -0.40719455826E+02 -0.14815055404E+02  0.24623863280E+01  0.47787270792E+02  0.19999998847E+02 0.  0.
         12    1    1    2    0    0  0.40719455826E+02  0.14815055404E+02 -0.24623863280E+01  0.43400729208E+02  0.00000000000E+00 0. -1.
         11    1    3    3    0    0 -0.77601776445E+00  0.27447550570E+00 -0.21713370517E+01  0.23221208468E+01  0.51100000000E-03 0. -1.
        -11    1    3    3    0    0 -0.81491651966E+01 -0.72319415170E+01  0.64544845965E+01  0.12663737330E+02  0.51100000000E-03 0.  1.
        -12    1    3    3    0    0 -0.31794272865E+02 -0.78575893925E+01 -0.18207612168E+01  0.32801412614E+02  0.00000000000E+00 0.  1.
</event>
<event>
 7    1  0.4005571E-009  0.4778727E+02  0.7816164E-02  0.1312668E+00
        -11   -1    0    0    0    0  0.00000000000E+00  0.00000000000E+00  0.45593999997E+02  0.45594000000E+02  0.51100000000E-03 0.  1.
         11   -1    0    0    0    0 -0.00000000000E+00 -0.00000000000E+00 -0.45593999997E+02  0.45594000000E+02  0.51100000000E-03 0. -1.
    9900012    2    1    2    0    0  0.40719136305E+02 -0.12356914766E+02 -0.85370923544E+01  0.47787270170E+02  0.19999996012E+02 0.  0.
         12    1    1    2    0    0 -0.40719136305E+02  0.12356914766E+02  0.85370923544E+01  0.43400729830E+02  0.00000000000E+00 0. -1.
         11    1    3    3    0    0 -0.52681526306E+00  0.16730905671E+01  0.78181943987E+00  0.19204187733E+01  0.51100000000E-03 0. -1.
        -11    1    3    3    0    0  0.87988926421E+01 -0.12997511677E+01  0.21916122711E+01  0.91604055277E+01  0.51100000000E-03 0.  1.
        -12    1    3    3    0    0  0.32447058926E+02 -0.12730254166E+02 -0.11510524065E+02  0.36706445869E+02  0.00000000000E+00 0.  1.
</event>
<event>
 7    1  0.4005571E-009  0.4778727E+02  0.7816164E-02  0.1312668E+00
        -11   -1    0    0    0    0  0.00000000000E+00  0.00000000000E+00  0.45593999997E+02  0.45594000000E+02  0.51100000000E-03 0. -1.
         11   -1    0    0    0    0 -0.00000000000E+00 -0.00000000000E+00 -0.45593999997E+02  0.45594000000E+02  0.51100000000E-03 0.  1.
    9900012    2    1    2    0    0  0.11989846725E+02  0.30887760220E+02 -0.28032357504E+02  0.47787271629E+02  0.20000002666E+02 0.  0.
         12    1    1    2    0    0 -0.11989846725E+02 -0.30887760220E+02  0.28032357504E+02  0.43400728371E+02  0.00000000000E+00 0. -1.
         11    1    3    3    0    0  0.94312043032E+01  0.28182286252E+02 -0.16027784331E+02  0.33765052108E+02  0.51100000000E-03 0.  1.
        -11    1    3    3    0    0 -0.16621591289E+01  0.13360348446E+01 -0.70760325769E+01  0.73903991345E+01  0.51100000000E-03 0. -1.
        -12    1    3    3    0    0  0.42208015506E+01  0.13694391231E+01 -0.49285405955E+01  0.66318203868E+01  0.00000000000E+00 0.  1.
</event>
<event>
 7    1  0.4005571E-009  0.4778728E+02  0.7816164E-02  0.1312668E+00
        -11   -1    0    0    0    0  0.00000000000E+00  0.00000000000E+00  0.45593999997E+02  0.45594000000E+02  0.51100000000E-03 0.  1.
         11   -1    0    0    0    0 -0.00000000000E+00 -0.00000000000E+00 -0.45593999997E+02  0.45594000000E+02  0.51100000000E-03 0. -1.
    9900012    2    1    2    0    0  0.40063280708E+02 -0.22500456417E+01  0.16537625911E+02  0.47787282987E+02  0.20000054450E+02 0.  0.
         12    1    1    2    0    0 -0.40063280708E+02  0.22500456417E+01 -0.16537625911E+02  0.43400717013E+02  0.00000000000E+00 0. -1.
         11    1    3    3    0    0  0.63145460126E+01 -0.28970506672E+01  0.31143721754E+01  0.76135214075E+01  0.51100000000E-03 0. -1.
        -11    1    3    3    0    0  0.27237238147E+01  0.30988428943E+01  0.74030960632E+01  0.84751006061E+01  0.51100000000E-03 0.  1.
        -12    1    3    3    0    0  0.31025010881E+02 -0.24518378688E+01  0.60201576728E+01  0.31698660973E+02  0.00000000000E+00 0.  1.
</event>
<event>
 7    1  0.4005571E-009  0.4778727E+02  0.7816164E-02  0.1312668E+00
        -11   -1    0    0    0    0  0.00000000000E+00  0.00000000000E+00  0.45593999997E+02  0.45594000000E+02  0.51100000000E-03 0.  1.
         11   -1    0    0    0    0 -0.00000000000E+00 -0.00000000000E+00 -0.45593999997E+02  0.45594000000E+02  0.51100000000E-03 0. -1.
    9900012    2    1    2    0    0 -0.36409314838E+02 -0.22847447942E+02  0.59982928804E+01  0.47787267265E+02  0.19999982767E+02 0.  0.
         12    1    1    2    0    0  0.36409314838E+02  0.22847447942E+02 -0.59982928804E+01  0.43400732735E+02  0.00000000000E+00 0. -1.
         11    1    3    3    0    0 -0.11133108510E+02  0.65714453021E+00  0.47162471700E+01  0.12108713047E+02  0.51100000000E-03 0. -1.
        -11    1    3    3    0    0 -0.19859358790E+02 -0.15517494123E+02  0.42997266420E+01  0.25567057024E+02  0.51100000000E-03 0.  1.
        -12    1    3    3    0    0 -0.54168475387E+01 -0.79870983491E+01 -0.30176809316E+01  0.10111497194E+02  0.00000000000E+00 0.  1.
</event>
<event>
 7    1  0.4005571E-009  0.4778727E+02  0.7816164E-02  0.1312668E+00
        -11   -1    0    0    0    0  0.00000000000E+00  0.00000000000E+00  0.45593999997E+02  0.45594000000E+02  0.51100000000E-03 0.  1.
         11   -1    0    0    0    0 -0.00000000000E+00 -0.00000000000E+00 -0.45593999997E+02  0.45594000000E+02  0.51100000000E-03 0. -1.
    9900012    2    1    2    0    0 -0.48285006512E+01 -0.13495541319E+02  0.40965587706E+02  0.47787269244E+02  0.19999991793E+02 0.  0.
         12    1    1    2    0    0  0.48285006512E+01  0.13495541319E+02 -0.40965587706E+02  0.43400730756E+02  0.00000000000E+00 0. -1.
         11    1    3    3    0    0  0.32832523768E+01 -0.10072852469E+02  0.82670531385E+01  0.13438239129E+02  0.51100000000E-03 0. -1.
        -11    1    3    3    0    0 -0.18742081457E+01  0.11207958203E+01  0.33193852021E+01  0.39733056546E+01  0.51100000000E-03 0.  1.
        -12    1    3    3    0    0 -0.62375448824E+01 -0.45434846706E+01  0.29379149365E+02  0.30375724461E+02  0.00000000000E+00 0.  1.
</event>
<event>
 7    1  0.4005571E-009  0.4778727E+02  0.7816164E-02  0.1312668E+00
        -11   -1    0    0    0    0  0.00000000000E+00  0.00000000000E+00  0.45593999997E+02  0.45594000000E+02  0.51100000000E-03 0.  1.
         11   -1    0    0    0    0 -0.00000000000E+00 -0.00000000000E+00 -0.45593999997E+02  0.45594000000E+02  0.51100000000E-03 0. -1.
    9900012    2    1    2    0    0 -0.27068238157E+02  0.83857691420E+01 -0.32872670395E+02  0.47787273049E+02  0.20000009139E+02 0.  0.
         12    1    1    2    0    0  0.27068238157E+02 -0.83857691420E+01  0.32872670395E+02  0.43400726951E+02  0.00000000000E+00 0. -1.
         11    1    3    3    0    0 -0.67541190230E+01  0.52497256210E+01 -0.18524354755E+02  0.20404153064E+02  0.51100000000E-03 0. -1.
        -11    1    3    3    0    0  0.12166216450E+01  0.95352615629E+00 -0.17786708071E+01  0.23564911328E+01  0.51100000000E-03 0.  1.
        -12    1    3    3    0    0 -0.21530740779E+02  0.21825173646E+01 -0.12569644832E+02  0.25026628853E+02  0.00000000000E+00 0.  1.
</event>
<event>
 7    1  0.4005571E-009  0.4778727E+02  0.7816164E-02  0.1312668E+00
        -11   -1    0    0    0    0  0.00000000000E+00  0.00000000000E+00  0.45593999997E+02  0.45594000000E+02  0.51100000000E-03 0.  1.
         11   -1    0    0    0    0 -0.00000000000E+00 -0.00000000000E+00 -0.45593999997E+02  0.45594000000E+02  0.51100000000E-03 0. -1.
    9900012    2    1    2    0    0 -0.18412640699E+02 -0.22543090432E+02  0.32193279709E+02  0.47787268184E+02  0.19999986958E+02 0.  0.
         12    1    1    2    0    0  0.18412640699E+02  0.22543090432E+02 -0.32193279709E+02  0.43400731816E+02  0.00000000000E+00 0. -1.
         11    1    3    3    0    0 -0.74448616473E+01 -0.42406129847E+01  0.28957651651E+01  0.90440156781E+01  0.51100000000E-03 0. -1.
        -11    1    3    3    0    0 -0.79437737389E+01 -0.18314707548E+01  0.63418705616E+01  0.10328463043E+02  0.51100000000E-03 0.  1.
        -12    1    3    3    0    0 -0.30240053123E+01 -0.16471006693E+02  0.22955643982E+02  0.28414789463E+02  0.00000000000E+00 0.  1.
</event>
<event>
 7    1  0.4005571E-009  0.4778728E+02  0.7816164E-02  0.1312668E+00
        -11   -1    0    0    0    0  0.00000000000E+00  0.00000000000E+00  0.45593999997E+02  0.45594000000E+02  0.51100000000E-03 0.  1.
         11   -1    0    0    0    0 -0.00000000000E+00 -0.00000000000E+00 -0.45593999997E+02  0.45594000000E+02  0.51100000000E-03 0. -1.
    9900012    2    1    2    0    0 -0.98499999495E+01 -0.59611926142E+01  0.41845718343E+02  0.47787280421E+02  0.20000042750E+02 0.  0.
         12    1    1    2    0    0  0.98499999495E+01  0.59611926142E+01 -0.41845718343E+02  0.43400719579E+02  0.00000000000E+00 0. -1.
         11    1    3    3    0    0 -0.95124992512E+01 -0.19130895579E+00  0.10192980988E+02  0.13943496793E+02  0.51100000000E-03 0.  1.
        -11    1    3    3    0    0 -0.13401807481E+01 -0.62459059147E+01  0.83436213816E+01  0.10508255952E+02  0.51100000000E-03 0. -1.
        -12    1    3    3    0    0  0.10026800498E+01  0.47602225624E+00  0.23309115973E+02  0.23335527676E+02  0.00000000000E+00 0.  1.
</event>
<event>
 7    1  0.4005571E-009  0.4778726E+02  0.7816164E-02  0.1312668E+00
        -11   -1    0    0    0    0  0.00000000000E+00  0.00000000000E+00  0.45593999997E+02  0.45594000000E+02  0.51100000000E-03 0.  1.
         11   -1    0    0    0    0 -0.00000000000E+00 -0.00000000000E+00 -0.45593999997E+02  0.45594000000E+02  0.51100000000E-03 0. -1.
    9900012    2    1    2    0    0 -0.18903504280E+02 -0.32559508374E+02  0.21590738251E+02  0.47787262243E+02  0.19999959873E+02 0.  0.
         12    1    1    2    0    0  0.18903504280E+02  0.32559508374E+02 -0.21590738251E+02  0.43400737757E+02  0.00000000000E+00 0. -1.
         11    1    3    3    0    0 -0.44951198207E+01 -0.83190585469E+01  0.11919820073E+01  0.95306693718E+01  0.51100000000E-03 0.  1.
        -11    1    3    3    0    0  0.16493294952E+01  0.85673261352E+00 -0.42463011354E+00  0.19064599521E+01  0.51100000000E-03 0. -1.
         12    1    3    3    0    0 -0.16057713954E+02 -0.25097182440E+02  0.20823386357E+02  0.36350132919E+02  0.00000000000E+00 0. -1.
</event>
<event>
 7    1  0.4005571E-009  0.4778727E+02  0.7816164E-02  0.1312668E+00
        -11   -1    0    0    0    0  0.00000000000E+00  0.00000000000E+00  0.45593999997E+02  0.45594000000E+02  0.51100000000E-03 0. -1.
         11   -1    0    0    0    0 -0.00000000000E+00 -0.00000000000E+00 -0.45593999997E+02  0.45594000000E+02  0.51100000000E-03 0.  1.
    9900012    2    1    2    0    0 -0.36172194343E+02 -0.13147975309E+02 -0.20058071920E+02  0.47787272501E+02  0.20000006639E+02 0.  0.
         12    1    1    2    0    0  0.36172194343E+02  0.13147975309E+02  0.20058071920E+02  0.43400727499E+02  0.00000000000E+00 0. -1.
         11    1    3    3    0    0 -0.41160341553E+01 -0.17966630069E+01 -0.76440457523E+01  0.88657301365E+01  0.51100000000E-03 0. -1.
        -11    1    3    3    0    0 -0.73394725597E+01 -0.60373918300E+01 -0.95590792010E+01  0.13479389934E+02  0.51100000000E-03 0.  1.
        -12    1    3    3    0    0 -0.24716687628E+02 -0.53139204717E+01 -0.28549469671E+01  0.25442152430E+02  0.00000000000E+00 0.  1.
</event>
<event>
 7    1  0.4005571E-009  0.4778727E+02  0.7816164E-02  0.1312668E+00
        -11   -1    0    0    0    0  0.00000000000E+00  0.00000000000E+00  0.45593999997E+02  0.45594000000E+02  0.51100000000E-03 0.  1.
         11   -1    0    0    0    0 -0.00000000000E+00 -0.00000000000E+00 -0.45593999997E+02  0.45594000000E+02  0.51100000000E-03 0. -1.
    9900012    2    1    2    0    0  0.29848454925E+02 -0.15236204454E+02  0.27578098095E+02  0.47787266342E+02  0.19999978558E+02 0.  0.
         12    1    1    2    0    0 -0.29848454925E+02  0.15236204454E+02 -0.27578098095E+02  0.43400733658E+02  0.00000000000E+00 0. -1.
         11    1    3    3    0    0  0.23407451521E+02 -0.11641234725E+02  0.97392791258E+01  0.27897682534E+02  0.51100000000E-03 0. -1.
        -11    1    3    3    0    0  0.85420810865E+00 -0.28788567786E+01  0.44958388067E+01  0.54064826534E+01  0.51100000000E-03 0.  1.
         12    1    3    3    0    0  0.55867952951E+01 -0.71611295096E+00  0.13342980162E+02  0.14483101154E+02  0.00000000000E+00 0. -1.
</event>
<event>
 7    1  0.4005571E-009  0.4778727E+02  0.7816164E-02  0.1312668E+00
        -11   -1    0    0    0    0  0.00000000000E+00  0.00000000000E+00  0.45593999997E+02  0.45594000000E+02  0.51100000000E-03 0.  1.
         11   -1    0    0    0    0 -0.00000000000E+00 -0.00000000000E+00 -0.45593999997E+02  0.45594000000E+02  0.51100000000E-03 0. -1.
    9900012    2    1    2    0    0  0.13441820314E+02 -0.37159066341E+02  0.17948386891E+02  0.47787270321E+02  0.19999996702E+02 0.  0.
         12    1    1    2    0    0 -0.13441820314E+02  0.37159066341E+02 -0.17948386891E+02  0.43400729679E+02  0.00000000000E+00 0. -1.
         11    1    3    3    0    0  0.11177119778E+02 -0.16149433617E+02  0.78243233823E+01  0.21141245218E+02  0.51100000000E-03 0. -1.
        -11    1    3    3    0    0  0.59557219478E+01 -0.19768793269E+02  0.93986295272E+01  0.22685018150E+02  0.51100000000E-03 0.  1.
         12    1    3    3    0    0 -0.36910214126E+01 -0.12408394548E+01  0.72543398118E+00  0.39610069531E+01  0.00000000000E+00 0. -1.
</event>
<event>
 7    1  0.4005571E-009  0.4778728E+02  0.7816164E-02  0.1312668E+00
        -11   -1    0    0    0    0  0.00000000000E+00  0.00000000000E+00  0.45593999997E+02  0.45594000000E+02  0.51100000000E-03 0.  1.
         11   -1    0    0    0    0 -0.00000000000E+00 -0.00000000000E+00 -0.45593999997E+02  0.45594000000E+02  0.51100000000E-03 0. -1.
    9900012    2    1    2    0    0 -0.30197015850E+02 -0.23435516434E+02  0.20555752141E+02  0.47787284075E+02  0.20000059410E+02 0.  0.
         12    1    1    2    0    0  0.30197015850E+02  0.23435516434E+02 -0.20555752141E+02  0.43400715925E+02  0.00000000000E+00 0. -1.
         11    1    3    3    0    0 -0.91610284062E+01 -0.86032661740E+01 -0.80090715628E+00  0.12592937817E+02  0.51100000000E-03 0. -1.
        -11    1    3    3    0    0 -0.43311941595E+01 -0.90177956183E+01  0.53781295070E+01  0.11357999732E+02  0.51100000000E-03 0.  1.
        -12    1    3    3    0    0 -0.16704793284E+02 -0.58144546412E+01  0.15978529790E+02  0.23836346526E+02  0.00000000000E+00 0.  1.
</event>
<event>
 7    1  0.4005571E-009  0.4778727E+02  0.7816164E-02  0.1312668E+00
        -11   -1    0    0    0    0  0.00000000000E+00  0.00000000000E+00  0.45593999997E+02  0.45594000000E+02  0.51100000000E-03 0. -1.
         11   -1    0    0    0    0 -0.00000000000E+00 -0.00000000000E+00 -0.45593999997E+02  0.45594000000E+02  0.51100000000E-03 0.  1.
    9900012    2    1    2    0    0  0.35070341119E+02  0.24524658991E+02 -0.72273928237E+01  0.47787274985E+02  0.20000017967E+02 0.  0.
         12    1    1    2    0    0 -0.35070341119E+02 -0.24524658991E+02  0.72273928237E+01  0.43400725015E+02  0.00000000000E+00 0. -1.
         11    1    3    3    0    0  0.66598221600E+01  0.16642893870E+01  0.20743733001E+01  0.71712004027E+01  0.51100000000E-03 0. -1.
        -11    1    3    3    0    0  0.22189671557E+02  0.16457122999E+02  0.13341054658E+00  0.27626730169E+02  0.51100000000E-03 0.  1.
         12    1    3    3    0    0  0.62208474012E+01  0.64032466051E+01 -0.94351766704E+01  0.12989344413E+02  0.00000000000E+00 0. -1.
</event>
<event>
 7    1  0.4005571E-009  0.4778727E+02  0.7816164E-02  0.1312668E+00
        -11   -1    0    0    0    0  0.00000000000E+00  0.00000000000E+00  0.45593999997E+02  0.45594000000E+02  0.51100000000E-03 0. -1.
         11   -1    0    0    0    0 -0.00000000000E+00 -0.00000000000E+00 -0.45593999997E+02  0.45594000000E+02  0.51100000000E-03 0.  1.
    9900012    2    1    2    0    0  0.55490041783E+01 -0.42988690411E+02 -0.21919833559E+01  0.47787265656E+02  0.19999975430E+02 0.  0.
         12    1    1    2    0    0 -0.55490041783E+01  0.42988690411E+02  0.21919833559E+01  0.43400734344E+02  0.00000000000E+00 0. -1.
         11    1    3    3    0    0  0.50061837155E+01 -0.68472016978E+01 -0.28535374231E+01  0.89492302781E+01  0.51100000000E-03 0. -1.
        -11    1    3    3    0    0  0.39347020326E+01 -0.25429766788E+02 -0.50663015435E+01  0.26226367087E+02  0.51100000000E-03 0.  1.
        -12    1    3    3    0    0 -0.33918815697E+01 -0.10711721925E+02  0.57278556107E+01  0.12611668291E+02  0.00000000000E+00 0.  1.
</event>
<event>
 7    1  0.4005571E-009  0.4778727E+02  0.7816164E-02  0.1312668E+00
        -11   -1    0    0    0    0  0.00000000000E+00  0.00000000000E+00  0.45593999997E+02  0.45594000000E+02  0.51100000000E-03 0. -1.
         11   -1    0    0    0    0 -0.00000000000E+00 -0.00000000000E+00 -0.45593999997E+02  0.45594000000E+02  0.51100000000E-03 0.  1.
    9900012    2    1    2    0    0 -0.16999435706E+02  0.39565949295E+02 -0.54016787448E+01  0.47787270845E+02  0.19999999091E+02 0.  0.
         12    1    1    2    0    0  0.16999435706E+02 -0.39565949295E+02  0.54016787448E+01  0.43400729155E+02  0.00000000000E+00 0. -1.
         11    1    3    3    0    0 -0.16848433033E+01  0.40616910673E+01  0.34730367701E+01  0.56033932532E+01  0.51100000000E-03 0. -1.
        -11    1    3    3    0    0 -0.12633814430E+02  0.30805345265E+02 -0.18897872634E+01  0.33348970900E+02  0.51100000000E-03 0.  1.
        -12    1    3    3    0    0 -0.26807779727E+01  0.46989129625E+01 -0.69849282514E+01  0.88349066914E+01  0.00000000000E+00 0.  1.
</event>
<event>
 7    1  0.4005571E-009  0.4778727E+02  0.7816164E-02  0.1312668E+00
        -11   -1    0    0    0    0  0.00000000000E+00  0.00000000000E+00  0.45593999997E+02  0.45594000000E+02  0.51100000000E-03 0.  1.
         11   -1    0    0    0    0 -0.00000000000E+00 -0.00000000000E+00 -0.45593999997E+02  0.45594000000E+02  0.51100000000E-03 0. -1.
    9900012    2    1    2    0    0  0.20331890942E+02  0.36465703359E+02  0.11852846578E+02  0.47787270942E+02  0.19999999533E+02 0.  0.
         12    1    1    2    0    0 -0.20331890942E+02 -0.36465703359E+02 -0.11852846578E+02  0.43400729058E+02  0.00000000000E+00 0. -1.
         11    1    3    3    0    0 -0.47771203589E+00  0.11476205315E+02  0.25373527283E+01  0.11763063221E+02  0.51100000000E-03 0. -1.
        -11    1    3    3    0    0  0.13920322570E+01  0.49739671660E+01 -0.24993341289E+01  0.57380113734E+01  0.51100000000E-03 0.  1.
        -12    1    3    3    0    0  0.19417570721E+02  0.20015530879E+02  0.11814827978E+02  0.30286196348E+02  0.00000000000E+00 0.  1.
</event>
<event>
 7    1  0.4005571E-009  0.4778726E+02  0.7816164E-02  0.1312668E+00
        -11   -1    0    0    0    0  0.00000000000E+00  0.00000000000E+00  0.45593999997E+02  0.45594000000E+02  0.51100000000E-03 0. -1.
         11   -1    0    0    0    0 -0.00000000000E+00 -0.00000000000E+00 -0.45593999997E+02  0.45594000000E+02  0.51100000000E-03 0.  1.
    9900012    2    1    2    0    0  0.10876890201E+02  0.11079776521E+02 -0.40528455131E+02  0.47787264251E+02  0.19999969028E+02 0.  0.
         12    1    1    2    0    0 -0.10876890201E+02 -0.11079776521E+02  0.40528455131E+02  0.43400735749E+02  0.00000000000E+00 0. -1.
         11    1    3    3    0    0 -0.22056760492E+01 -0.86280470171E+00 -0.29347367818E+00  0.23865384657E+01  0.51100000000E-03 0. -1.
        -11    1    3    3    0    0  0.53537856571E+01  0.26948660371E+00 -0.20598679488E+02  0.21284765462E+02  0.51100000000E-03 0.  1.
        -12    1    3    3    0    0  0.77287805929E+01  0.11673094619E+02 -0.19636301965E+02  0.24115960323E+02  0.00000000000E+00 0.  1.
</event>
<event>
 7    1  0.4005571E-009  0.4778727E+02  0.7816164E-02  0.1312668E+00
        -11   -1    0    0    0    0  0.00000000000E+00  0.00000000000E+00  0.45593999997E+02  0.45594000000E+02  0.51100000000E-03 0. -1.
         11   -1    0    0    0    0 -0.00000000000E+00 -0.00000000000E+00 -0.45593999997E+02  0.45594000000E+02  0.51100000000E-03 0.  1.
    9900012    2    1    2    0    0 -0.85926022833E+01  0.89744651405E+01 -0.41584248045E+02  0.47787268162E+02  0.19999986858E+02 0.  0.
         12    1    1    2    0    0  0.85926022833E+01 -0.89744651405E+01  0.41584248045E+02  0.43400731838E+02  0.00000000000E+00 0. -1.
         11    1    3    3    0    0 -0.11478718382E+00  0.30657553516E+01 -0.96389872971E+00  0.32157632058E+01  0.51100000000E-03 0. -1.
        -11    1    3    3    0    0 -0.18588093242E+01 -0.46966733109E+01 -0.64922311243E+01  0.82257508791E+01  0.51100000000E-03 0.  1.
        -12    1    3    3    0    0 -0.66190057753E+01  0.10605383100E+02 -0.34128118191E+02  0.36345754077E+02  0.00000000000E+00 0.  1.
</event>
<event>
 7    1  0.4005571E-009  0.4778727E+02  0.7816164E-02  0.1312668E+00
        -11   -1    0    0    0    0  0.00000000000E+00  0.00000000000E+00  0.45593999997E+02  0.45594000000E+02  0.51100000000E-03 0.  1.
         11   -1    0    0    0    0 -0.00000000000E+00 -0.00000000000E+00 -0.45593999997E+02  0.45594000000E+02  0.51100000000E-03 0. -1.
    9900012    2    1    2    0    0  0.34778974763E+01 -0.17376671813E+02  0.39617906651E+02  0.47787273951E+02  0.20000013253E+02 0.  0.
         12    1    1    2    0    0 -0.34778974763E+01  0.17376671813E+02 -0.39617906651E+02  0.43400726049E+02  0.00000000000E+00 0. -1.
         11    1    3    3    0    0  0.36060990471E+01 -0.15741116376E+01  0.28431342849E+01  0.48543990986E+01  0.51100000000E-03 0. -1.
        -11    1    3    3    0    0  0.75468521246E+01 -0.59199079462E+01  0.14532758723E+02  0.17412678239E+02  0.51100000000E-03 0.  1.
        -12    1    3    3    0    0 -0.76750536955E+01 -0.98826522292E+01  0.22242013643E+02  0.25520196614E+02  0.00000000000E+00 0.  1.
</event>
<event>
 7    1  0.4005571E-009  0.4778727E+02  0.7816164E-02  0.1312668E+00
        -11   -1    0    0    0    0  0.00000000000E+00  0.00000000000E+00  0.45593999997E+02  0.45594000000E+02  0.51100000000E-03 0.  1.
         11   -1    0    0    0    0 -0.00000000000E+00 -0.00000000000E+00 -0.45593999997E+02  0.45594000000E+02  0.51100000000E-03 0. -1.
    9900012    2    1    2    0    0 -0.25897836846E+02 -0.28077855511E+02 -0.20604840965E+02  0.47787269654E+02  0.19999993659E+02 0.  0.
         12    1    1    2    0    0  0.25897836846E+02  0.28077855511E+02  0.20604840965E+02  0.43400730346E+02  0.00000000000E+00 0. -1.
         11    1    3    3    0    0 -0.10559135231E+01 -0.76282859736E+01 -0.90142494691E+01  0.11855901232E+02  0.51100000000E-03 0. -1.
        -11    1    3    3    0    0 -0.54400097542E+00 -0.93762327275E-01  0.15291571808E+01  0.16257460995E+01  0.51100000000E-03 0.  1.
        -12    1    3    3    0    0 -0.24297922347E+02 -0.20355807211E+02 -0.13119748676E+02  0.34305622322E+02  0.00000000000E+00 0.  1.
</event>
<event>
 7    1  0.4005571E-009  0.4778727E+02  0.7816164E-02  0.1312668E+00
        -11   -1    0    0    0    0  0.00000000000E+00  0.00000000000E+00  0.45593999997E+02  0.45594000000E+02  0.51100000000E-03 0. -1.
         11   -1    0    0    0    0 -0.00000000000E+00 -0.00000000000E+00 -0.45593999997E+02  0.45594000000E+02  0.51100000000E-03 0.  1.
    9900012    2    1    2    0    0 -0.14975257599E+02 -0.22905648418E+02 -0.33685258609E+02  0.47787265938E+02  0.19999976717E+02 0.  0.
         12    1    1    2    0    0  0.14975257599E+02  0.22905648418E+02  0.33685258609E+02  0.43400734062E+02  0.00000000000E+00 0. -1.
         11    1    3    3    0    0 -0.87572177134E+01 -0.62466449021E+01 -0.91644819310E+01  0.14131424696E+02  0.51100000000E-03 0. -1.
        -11    1    3    3    0    0 -0.45991140691E+01 -0.14375399207E+02 -0.83587495642E+01  0.17253192375E+02  0.51100000000E-03 0.  1.
         12    1    3    3    0    0 -0.16189258164E+01 -0.22836043087E+01 -0.16162027113E+02  0.16402648867E+02  0.00000000000E+00 0. -1.
</event>
<event>
 7    1  0.4005571E-009  0.4778727E+02  0.7816164E-02  0.1312668E+00
        -11   -1    0    0    0    0  0.00000000000E+00  0.00000000000E+00  0.45593999997E+02  0.45594000000E+02  0.51100000000E-03 0. -1.
         11   -1    0    0    0    0 -0.00000000000E+00 -0.00000000000E+00 -0.45593999997E+02  0.45594000000E+02  0.51100000000E-03 0.  1.
    9900012    2    1    2    0    0 -0.38682233315E+02  0.19034895331E+02  0.49980546002E+01  0.47787274611E+02  0.20000016263E+02 0.  0.
         12    1    1    2    0    0  0.38682233315E+02 -0.19034895331E+02 -0.49980546002E+01  0.43400725389E+02  0.00000000000E+00 0. -1.
         11    1    3    3    0    0 -0.22476111532E+02  0.71206773758E+01 -0.22558735493E+01  0.23684775735E+02  0.51100000000E-03 0. -1.
        -11    1    3    3    0    0 -0.10182873073E+02  0.95343979429E+01 -0.55084701024E+00  0.13960626091E+02  0.51100000000E-03 0.  1.
         12    1    3    3    0    0 -0.60232487104E+01  0.23798200121E+01  0.78047751598E+01  0.10141872786E+02  0.00000000000E+00 0. -1.
</event>
<event>
 7    1  0.4005571E-009  0.4778728E+02  0.7816164E-02  0.1312668E+00
        -11   -1    0    0    0    0  0.00000000000E+00  0.00000000000E+00  0.45593999997E+02  0.45594000000E+02  0.51100000000E-03 0. -1.
         11   -1    0    0    0    0 -0.00000000000E+00 -0.00000000000E+00 -0.45593999997E+02  0.45594000000E+02  0.51100000000E-03 0.  1.
    9900012    2    1    2    0    0 -0.22409332800E+02 -0.24150477828E+02 -0.28252407486E+02  0.47787282211E+02  0.20000050912E+02 0.  0.
         12    1    1    2    0    0  0.22409332800E+02  0.24150477828E+02  0.28252407486E+02  0.43400717789E+02  0.00000000000E+00 0. -1.
         11    1    3    3    0    0 -0.45990855137E+00  0.18170682046E+01 -0.55150344933E+01  0.58248483636E+01  0.51100000000E-03 0. -1.
        -11    1    3    3    0    0 -0.87790489647E+01 -0.52779484935E+01 -0.10045682008E+02  0.14347270413E+02  0.51100000000E-03 0.  1.
         12    1    3    3    0    0 -0.13170375284E+02 -0.20689597539E+02 -0.12691690984E+02  0.27615163434E+02  0.00000000000E+00 0. -1.
</event>
<event>
 7    1  0.4005571E-009  0.4778727E+02  0.7816164E-02  0.1312668E+00
        -11   -1    0    0    0    0  0.00000000000E+00  0.00000000000E+00  0.45593999997E+02  0.45594000000E+02  0.51100000000E-03 0. -1.
         11   -1    0    0    0    0 -0.00000000000E+00 -0.00000000000E+00 -0.45593999997E+02  0.45594000000E+02  0.51100000000E-03 0.  1.
    9900012    2    1    2    0    0 -0.30834231468E+02 -0.24698578054E+02  0.17968129230E+02  0.47787271249E+02  0.20000000934E+02 0.  0.
         12    1    1    2    0    0  0.30834231468E+02  0.24698578054E+02 -0.17968129230E+02  0.43400728751E+02  0.00000000000E+00 0. -1.
         11    1    3    3    0    0 -0.56104606646E+01 -0.12134013804E+02 -0.13245196927E+01  0.13433760179E+02  0.51100000000E-03 0. -1.
        -11    1    3    3    0    0 -0.16275526837E+02 -0.88636864949E+01  0.10653421168E+02  0.21376461235E+02  0.51100000000E-03 0.  1.
         12    1    3    3    0    0 -0.89482439659E+01 -0.37008777547E+01  0.86392277540E+01  0.12977049835E+02  0.00000000000E+00 0. -1.
</event>
<event>
 7    1  0.4005571E-009  0.4778727E+02  0.7816164E-02  0.1312668E+00
        -11   -1    0    0    0    0  0.00000000000E+00  0.00000000000E+00  0.45593999997E+02  0.45594000000E+02  0.51100000000E-03 0. -1.
         11   -1    0    0    0    0 -0.00000000000E+00 -0.00000000000E+00 -0.45593999997E+02  0.45594000000E+02  0.51100000000E-03 0.  1.
    9900012    2    1    2    0    0  0.55733194216E+01  0.41300726538E+02 -0.12116589989E+02  0.47787266655E+02  0.19999979985E+02 0.  0.
         12    1    1    2    0    0 -0.55733194216E+01 -0.41300726538E+02  0.12116589989E+02  0.43400733345E+02  0.00000000000E+00 0. -1.
         11    1    3    3    0    0 -0.42773428493E+00  0.30701962923E+02 -0.13150777940E+02  0.33402641282E+02  0.51100000000E-03 0. -1.
        -11    1    3    3    0    0  0.66028124759E+01  0.66851869441E+01 -0.17320017365E+01  0.95545113610E+01  0.51100000000E-03 0.  1.
        -12    1    3    3    0    0 -0.60175876945E+00  0.39135766714E+01  0.27661896874E+01  0.48301140117E+01  0.00000000000E+00 0.  1.
</event>
<event>
 7    1  0.4005571E-009  0.4778727E+02  0.7816164E-02  0.1312668E+00
        -11   -1    0    0    0    0  0.00000000000E+00  0.00000000000E+00  0.45593999997E+02  0.45594000000E+02  0.51100000000E-03 0.  1.
         11   -1    0    0    0    0 -0.00000000000E+00 -0.00000000000E+00 -0.45593999997E+02  0.45594000000E+02  0.51100000000E-03 0. -1.
    9900012    2    1    2    0    0  0.21941390164E+02  0.29886722750E+02  0.22560639288E+02  0.47787271387E+02  0.20000001561E+02 0.  0.
         12    1    1    2    0    0 -0.21941390164E+02 -0.29886722750E+02 -0.22560639288E+02  0.43400728613E+02  0.00000000000E+00 0. -1.
         11    1    3    3    0    0  0.35125250696E+00  0.33250411573E+01  0.27160199259E+01  0.43076724017E+01  0.51100000000E-03 0. -1.
        -11    1    3    3    0    0  0.13424081628E+02  0.26776009693E+02  0.12367778447E+02  0.32405595298E+02  0.51100000000E-03 0.  1.
         12    1    3    3    0    0  0.81660560287E+01 -0.21432810001E+00  0.74768409153E+01  0.11074003688E+02  0.00000000000E+00 0. -1.
</event>
<event>
 7    1  0.4005571E-009  0.4778727E+02  0.7816164E-02  0.1312668E+00
        -11   -1    0    0    0    0  0.00000000000E+00  0.00000000000E+00  0.45593999997E+02  0.45594000000E+02  0.51100000000E-03 0.  1.
         11   -1    0    0    0    0 -0.00000000000E+00 -0.00000000000E+00 -0.45593999997E+02  0.45594000000E+02  0.51100000000E-03 0. -1.
    9900012    2    1    2    0    0 -0.20657620389E+02  0.37774023183E+02 -0.54780619406E+01  0.47787271087E+02  0.20000000196E+02 0.  0.
         12    1    1    2    0    0  0.20657620389E+02 -0.37774023183E+02  0.54780619406E+01  0.43400728913E+02  0.00000000000E+00 0. -1.
         11    1    3    3    0    0 -0.68983933654E+01  0.43833966049E+01 -0.42895577094E+01  0.92305093263E+01  0.51100000000E-03 0.  1.
        -11    1    3    3    0    0 -0.98483403215E+01  0.90073481651E+01  0.25285649027E+01  0.13583658152E+02  0.51100000000E-03 0. -1.
        -12    1    3    3    0    0 -0.39108867017E+01  0.24383278413E+02 -0.37170691338E+01  0.24973103609E+02  0.00000000000E+00 0.  1.
</event>
<event>
 7    1  0.4005571E-009  0.4778727E+02  0.7816164E-02  0.1312668E+00
        -11   -1    0    0    0    0  0.00000000000E+00  0.00000000000E+00  0.45593999997E+02  0.45594000000E+02  0.51100000000E-03 0.  1.
         11   -1    0    0    0    0 -0.00000000000E+00 -0.00000000000E+00 -0.45593999997E+02  0.45594000000E+02  0.51100000000E-03 0. -1.
    9900012    2    1    2    0    0  0.27782586366E+02  0.83460602749E+00  0.33332489250E+02  0.47787268301E+02  0.19999987493E+02 0.  0.
         12    1    1    2    0    0 -0.27782586366E+02 -0.83460602749E+00 -0.33332489250E+02  0.43400731699E+02  0.00000000000E+00 0. -1.
         11    1    3    3    0    0  0.54958014810E+01  0.24404158826E+01  0.14276427357E+02  0.15491153667E+02  0.51100000000E-03 0. -1.
        -11    1    3    3    0    0  0.84514730388E+01 -0.33691887208E+01  0.53922095025E+00  0.91142519526E+01  0.51100000000E-03 0.  1.
         12    1    3    3    0    0  0.13835311846E+02  0.17633788657E+01  0.18516840943E+02  0.23181862682E+02  0.00000000000E+00 0. -1.
</event>
<event>
 7    1  0.4005571E-009  0.4778728E+02  0.7816164E-02  0.1312668E+00
        -11   -1    0    0    0    0  0.00000000000E+00  0.00000000000E+00  0.45593999997E+02  0.45594000000E+02  0.51100000000E-03 0. -1.
         11   -1    0    0    0    0 -0.00000000000E+00 -0.00000000000E+00 -0.45593999997E+02  0.45594000000E+02  0.51100000000E-03 0.  1.
    9900012    2    1    2    0    0 -0.94576854219E+00 -0.42953743247E+02  0.61403417818E+01  0.47787281869E+02  0.20000049355E+02 0.  0.
         12    1    1    2    0    0  0.94576854219E+00  0.42953743247E+02 -0.61403417818E+01  0.43400718131E+02  0.00000000000E+00 0. -1.
         11    1    3    3    0    0 -0.48938187629E+01 -0.77299709950E+01  0.35067404389E+01  0.97979152086E+01  0.51100000000E-03 0. -1.
        -11    1    3    3    0    0 -0.21746427048E+01 -0.29068465446E+02  0.10809189134E+01  0.29169729862E+02  0.51100000000E-03 0.  1.
         12    1    3    3    0    0  0.61226929255E+01 -0.61553068063E+01  0.15526824295E+01  0.88196367990E+01  0.00000000000E+00 0. -1.
</event>
<event>
 7    1  0.4005571E-009  0.4778727E+02  0.7816164E-02  0.1312668E+00
        -11   -1    0    0    0    0  0.00000000000E+00  0.00000000000E+00  0.45593999997E+02  0.45594000000E+02  0.51100000000E-03 0. -1.
         11   -1    0    0    0    0 -0.00000000000E+00 -0.00000000000E+00 -0.45593999997E+02  0.45594000000E+02  0.51100000000E-03 0.  1.
    9900012    2    1    2    0    0  0.29363181321E+02  0.19979175962E+02 -0.24945130491E+02  0.47787269307E+02  0.19999992080E+02 0.  0.
         12    1    1    2    0    0 -0.29363181321E+02 -0.19979175962E+02  0.24945130491E+02  0.43400730693E+02  0.00000000000E+00 0. -1.
         11    1    3    3    0    0  0.47260950821E+01  0.50818717561E+01 -0.13410529143E+02  0.15099790973E+02  0.51100000000E-03 0. -1.
        -11    1    3    3    0    0  0.79674920454E+01  0.57264506929E+00 -0.60886927317E+01  0.10043954964E+02  0.51100000000E-03 0.  1.
        -12    1    3    3    0    0  0.16669594194E+02  0.14324659137E+02 -0.54459086160E+01  0.22643523371E+02  0.00000000000E+00 0.  1.
</event>
<event>
 7    1  0.4005571E-009  0.4778727E+02  0.7816164E-02  0.1312668E+00
        -11   -1    0    0    0    0  0.00000000000E+00  0.00000000000E+00  0.45593999997E+02  0.45594000000E+02  0.51100000000E-03 0.  1.
         11   -1    0    0    0    0 -0.00000000000E+00 -0.00000000000E+00 -0.45593999997E+02  0.45594000000E+02  0.51100000000E-03 0. -1.
    9900012    2    1    2    0    0 -0.36369000884E+02  0.22192573810E+01  0.23579518770E+02  0.47787273808E+02  0.20000012599E+02 0.  0.
         12    1    1    2    0    0  0.36369000884E+02 -0.22192573810E+01 -0.23579518770E+02  0.43400726192E+02  0.00000000000E+00 0. -1.
         11    1    3    3    0    0  0.70838569938E-01 -0.20848911844E+01  0.14967491371E+01  0.25674983143E+01  0.51100000000E-03 0. -1.
        -11    1    3    3    0    0 -0.18975903211E+02 -0.38683634123E+01  0.64977060022E+01  0.20427171163E+02  0.51100000000E-03 0.  1.
        -12    1    3    3    0    0 -0.17463936242E+02  0.81725119776E+01  0.15585063631E+02  0.24792604330E+02  0.00000000000E+00 0.  1.
</event>
<event>
 7    1  0.4005571E-009  0.4778729E+02  0.7816164E-02  0.1312668E+00
        -11   -1    0    0    0    0  0.00000000000E+00  0.00000000000E+00  0.45593999997E+02  0.45594000000E+02  0.51100000000E-03 0.  1.
         11   -1    0    0    0    0 -0.00000000000E+00 -0.00000000000E+00 -0.45593999997E+02  0.45594000000E+02  0.51100000000E-03 0. -1.
    9900012    2    1    2    0    0  0.15259110781E+02  0.25721888179E+02  0.31451008636E+02  0.47787286440E+02  0.20000070193E+02 0.  0.
         12    1    1    2    0    0 -0.15259110781E+02 -0.25721888179E+02 -0.31451008636E+02  0.43400713560E+02  0.00000000000E+00 0. -1.
         11    1    3    3    0    0  0.14647442843E+01  0.67825677237E+01  0.95538721421E+01  0.11807843745E+02  0.51100000000E-03 0. -1.
        -11    1    3    3    0    0  0.15769876358E+02  0.20168268383E+02  0.17520464527E+02  0.31022809793E+02  0.51100000000E-03 0.  1.
        -12    1    3    3    0    0 -0.19755098607E+01 -0.12289479280E+01  0.43766719667E+01  0.49566329018E+01  0.00000000000E+00 0.  1.
</event>
<event>
 7    1  0.4005571E-009  0.4778727E+02  0.7816164E-02  0.1312668E+00
        -11   -1    0    0    0    0  0.00000000000E+00  0.00000000000E+00  0.45593999997E+02  0.45594000000E+02  0.51100000000E-03 0.  1.
         11   -1    0    0    0    0 -0.00000000000E+00 -0.00000000000E+00 -0.45593999997E+02  0.45594000000E+02  0.51100000000E-03 0. -1.
    9900012    2    1    2    0    0 -0.14625479325E+02 -0.11798791096E+02  0.39121697546E+02  0.47787270332E+02  0.19999996754E+02 0.  0.
         12    1    1    2    0    0  0.14625479325E+02  0.11798791096E+02 -0.39121697546E+02  0.43400729668E+02  0.00000000000E+00 0. -1.
         11    1    3    3    0    0 -0.86726295091E+01  0.99305787096E+00  0.13661417419E+02  0.16212186549E+02  0.51100000000E-03 0. -1.
        -11    1    3    3    0    0  0.29695553629E+01  0.12955397852E+00  0.40952666470E+01  0.50602620937E+01  0.51100000000E-03 0.  1.
        -12    1    3    3    0    0 -0.89224051784E+01 -0.12921402945E+02  0.21365013480E+02  0.26514821690E+02  0.00000000000E+00 0.  1.
</event>
<event>
 7    1  0.4005571E-009  0.4778728E+02  0.7816164E-02  0.1312668E+00
        -11   -1    0    0    0    0  0.00000000000E+00  0.00000000000E+00  0.45593999997E+02  0.45594000000E+02  0.51100000000E-03 0.  1.
         11   -1    0    0    0    0 -0.00000000000E+00 -0.00000000000E+00 -0.45593999997E+02  0.45594000000E+02  0.51100000000E-03 0. -1.
    9900012    2    1    2    0    0  0.21802332638E+02 -0.66815994791E+01  0.36927458248E+02  0.47787278201E+02  0.20000032628E+02 0.  0.
         12    1    1    2    0    0 -0.21802332638E+02  0.66815994791E+01 -0.36927458248E+02  0.43400721799E+02  0.00000000000E+00 0. -1.
         11    1    3    3    0    0  0.25629111296E+01 -0.45207075658E+01  0.59059299077E+01  0.78667222329E+01  0.51100000000E-03 0. -1.
        -11    1    3    3    0    0  0.82846968545E+00 -0.61950902741E+01  0.69276769166E+01  0.93304990888E+01  0.51100000000E-03 0.  1.
        -12    1    3    3    0    0  0.18410951823E+02  0.40341983609E+01  0.24093851424E+02  0.30590056879E+02  0.00000000000E+00 0.  1.
</event>
<event>
 7    1  0.4005571E-009  0.4778727E+02  0.7816164E-02  0.1312668E+00
        -11   -1    0    0    0    0  0.00000000000E+00  0.00000000000E+00  0.45593999997E+02  0.45594000000E+02  0.51100000000E-03 0.  1.
         11   -1    0    0    0    0 -0.00000000000E+00 -0.00000000000E+00 -0.45593999997E+02  0.45594000000E+02  0.51100000000E-03 0. -1.
    9900012    2    1    2    0    0 -0.12194258803E+02 -0.28935420744E+02  0.29961055407E+02  0.47787270024E+02  0.19999995346E+02 0.  0.
         12    1    1    2    0    0  0.12194258803E+02  0.28935420744E+02 -0.29961055407E+02  0.43400729976E+02  0.00000000000E+00 0. -1.
         11    1    3    3    0    0 -0.11859839608E+02 -0.11413810286E+02  0.14920170347E+02  0.22215812932E+02  0.51100000000E-03 0. -1.
        -11    1    3    3    0    0 -0.10061512566E+01 -0.16460066524E+02  0.16713581945E+02  0.23479564561E+02  0.51100000000E-03 0.  1.
        -12    1    3    3    0    0  0.67173206189E+00 -0.10615439346E+01 -0.16726968853E+01  0.20918925303E+01  0.00000000000E+00 0.  1.
</event>
<event>
 7    1  0.4005571E-009  0.4778727E+02  0.7816164E-02  0.1312668E+00
        -11   -1    0    0    0    0  0.00000000000E+00  0.00000000000E+00  0.45593999997E+02  0.45594000000E+02  0.51100000000E-03 0. -1.
         11   -1    0    0    0    0 -0.00000000000E+00 -0.00000000000E+00 -0.45593999997E+02  0.45594000000E+02  0.51100000000E-03 0.  1.
    9900012    2    1    2    0    0  0.34310370477E+02 -0.26577388559E+02 -0.25349526771E+00  0.47787269998E+02  0.19999995227E+02 0.  0.
         12    1    1    2    0    0 -0.34310370477E+02  0.26577388559E+02  0.25349526771E+00  0.43400730002E+02  0.00000000000E+00 0. -1.
         11    1    3    3    0    0  0.10768288077E+02 -0.79603603286E+00  0.52033702048E+01  0.11986023662E+02  0.51100000000E-03 0.  1.
        -11    1    3    3    0    0  0.10557448867E+01 -0.31559943619E+01  0.45578755810E+00  0.33589641614E+01  0.51100000000E-03 0. -1.
        -12    1    3    3    0    0  0.22486337514E+02 -0.22625358164E+02 -0.59126530306E+01  0.32442282174E+02  0.00000000000E+00 0.  1.
</event>
<event>
 7    1  0.4005571E-009  0.4778727E+02  0.7816164E-02  0.1312668E+00
        -11   -1    0    0    0    0  0.00000000000E+00  0.00000000000E+00  0.45593999997E+02  0.45594000000E+02  0.51100000000E-03 0.  1.
         11   -1    0    0    0    0 -0.00000000000E+00 -0.00000000000E+00 -0.45593999997E+02  0.45594000000E+02  0.51100000000E-03 0. -1.
    9900012    2    1    2    0    0 -0.16282046072E+02  0.39845626474E+02 -0.55537407721E+01  0.47787274085E+02  0.20000013862E+02 0.  0.
         12    1    1    2    0    0  0.16282046072E+02 -0.39845626474E+02  0.55537407721E+01  0.43400725915E+02  0.00000000000E+00 0. -1.
         11    1    3    3    0    0 -0.13480633486E+02  0.22259343158E+02  0.57981206834E+01  0.26661283554E+02  0.51100000000E-03 0. -1.
        -11    1    3    3    0    0 -0.85386294522E+00  0.51390614814E+01 -0.30219911509E+01  0.60225796480E+01  0.51100000000E-03 0.  1.
         12    1    3    3    0    0 -0.19475496401E+01  0.12447221835E+02 -0.83298703046E+01  0.15103410883E+02  0.00000000000E+00 0. -1.
</event>
<event>
 7    1  0.4005571E-009  0.4778727E+02  0.7816164E-02  0.1312668E+00
        -11   -1    0    0    0    0  0.00000000000E+00  0.00000000000E+00  0.45593999997E+02  0.45594000000E+02  0.51100000000E-03 0.  1.
         11   -1    0    0    0    0 -0.00000000000E+00 -0.00000000000E+00 -0.45593999997E+02  0.45594000000E+02  0.51100000000E-03 0. -1.
    9900012    2    1    2    0    0 -0.11480836371E+02 -0.27604734280E+02  0.31460963381E+02  0.47787272180E+02  0.20000005178E+02 0.  0.
         12    1    1    2    0    0  0.11480836371E+02  0.27604734280E+02 -0.31460963381E+02  0.43400727820E+02  0.00000000000E+00 0. -1.
         11    1    3    3    0    0 -0.67612641572E+00  0.14227062400E+01  0.37461586025E+01  0.40638583282E+01  0.51100000000E-03 0. -1.
        -11    1    3    3    0    0 -0.65765583802E+01 -0.50799790885E+01  0.12591442353E+02  0.15086475018E+02  0.51100000000E-03 0.  1.
        -12    1    3    3    0    0 -0.42281515750E+01 -0.23947461432E+02  0.15123362425E+02  0.28636938834E+02  0.00000000000E+00 0.  1.
</event>
<event>
 7    1  0.4005571E-009  0.4778727E+02  0.7816164E-02  0.1312668E+00
        -11   -1    0    0    0    0  0.00000000000E+00  0.00000000000E+00  0.45593999997E+02  0.45594000000E+02  0.51100000000E-03 0.  1.
         11   -1    0    0    0    0 -0.00000000000E+00 -0.00000000000E+00 -0.45593999997E+02  0.45594000000E+02  0.51100000000E-03 0. -1.
    9900012    2    1    2    0    0  0.40318673676E+02 -0.10235597951E+02  0.12379830062E+02  0.47787272992E+02  0.20000008882E+02 0.  0.
         12    1    1    2    0    0 -0.40318673676E+02  0.10235597951E+02 -0.12379830062E+02  0.43400727008E+02  0.00000000000E+00 0. -1.
         11    1    3    3    0    0  0.18653586326E+02 -0.63786144159E+01 -0.14914863597E+00  0.19714594854E+02  0.51100000000E-03 0. -1.
        -11    1    3    3    0    0  0.22232314869E+02 -0.19100767816E+01  0.91196572007E+01  0.24105857493E+02  0.51100000000E-03 0.  1.
        -12    1    3    3    0    0 -0.56722751862E+00 -0.19469067533E+01  0.34093214971E+01  0.39668206456E+01  0.00000000000E+00 0.  1.
</event>
<event>
 7    1  0.4005571E-009  0.4778727E+02  0.7816164E-02  0.1312668E+00
        -11   -1    0    0    0    0  0.00000000000E+00  0.00000000000E+00  0.45593999997E+02  0.45594000000E+02  0.51100000000E-03 0. -1.
         11   -1    0    0    0    0 -0.00000000000E+00 -0.00000000000E+00 -0.45593999997E+02  0.45594000000E+02  0.51100000000E-03 0.  1.
    9900012    2    1    2    0    0 -0.61094797832E+01 -0.47056849278E+01 -0.42710117038E+02  0.47787270614E+02  0.19999998038E+02 0.  0.
         12    1    1    2    0    0  0.61094797832E+01  0.47056849278E+01  0.42710117038E+02  0.43400729386E+02  0.00000000000E+00 0. -1.
         11    1    3    3    0    0 -0.17249107959E+01  0.38608721739E+01 -0.15209041559E+02  0.15785962011E+02  0.51100000000E-03 0. -1.
        -11    1    3    3    0    0 -0.42094316616E+01 -0.17003218017E+01 -0.23740622529E+02  0.24170799893E+02  0.51100000000E-03 0.  1.
         12    1    3    3    0    0 -0.17513732571E+00 -0.68662353001E+01 -0.37604529499E+01  0.78305087106E+01  0.00000000000E+00 0. -1.
</event>
<event>
 7    1  0.4005571E-009  0.4778727E+02  0.7816164E-02  0.1312668E+00
        -11   -1    0    0    0    0  0.00000000000E+00  0.00000000000E+00  0.45593999997E+02  0.45594000000E+02  0.51100000000E-03 0.  1.
         11   -1    0    0    0    0 -0.00000000000E+00 -0.00000000000E+00 -0.45593999997E+02  0.45594000000E+02  0.51100000000E-03 0. -1.
    9900012    2    1    2    0    0  0.22375415258E+02  0.12273597213E+02  0.35104462379E+02  0.47787266418E+02  0.19999978908E+02 0.  0.
         12    1    1    2    0    0 -0.22375415258E+02 -0.12273597213E+02 -0.35104462379E+02  0.43400733582E+02  0.00000000000E+00 0. -1.
         11    1    3    3    0    0  0.13780178485E+01 -0.23572274949E+01  0.55457633838E+01  0.61815003376E+01  0.51100000000E-03 0. -1.
        -11    1    3    3    0    0  0.10449684158E+01  0.64039229948E+01  0.24050464479E+01  0.69200027016E+01  0.51100000000E-03 0.  1.
        -12    1    3    3    0    0  0.19952428993E+02  0.82269017128E+01  0.27153652548E+02  0.34685763379E+02  0.00000000000E+00 0.  1.
</event>
<event>
 7    1  0.4005571E-009  0.4778727E+02  0.7816164E-02  0.1312668E+00
        -11   -1    0    0    0    0  0.00000000000E+00  0.00000000000E+00  0.45593999997E+02  0.45594000000E+02  0.51100000000E-03 0.  1.
         11   -1    0    0    0    0 -0.00000000000E+00 -0.00000000000E+00 -0.45593999997E+02  0.45594000000E+02  0.51100000000E-03 0. -1.
    9900012    2    1    2    0    0  0.46987172944E+01  0.42257711750E+02 -0.87081326100E+01  0.47787265904E+02  0.19999976563E+02 0.  0.
         12    1    1    2    0    0 -0.46987172944E+01 -0.42257711750E+02  0.87081326100E+01  0.43400734096E+02  0.00000000000E+00 0. -1.
         11    1    3    3    0    0  0.93805791426E+01  0.12109132318E+02 -0.62534968960E+01  0.16544865494E+02  0.51100000000E-03 0. -1.
        -11    1    3    3    0    0 -0.79037205260E+00  0.11267234152E+02 -0.38007732563E+01  0.11917261892E+02  0.51100000000E-03 0.  1.
        -12    1    3    3    0    0 -0.38914897955E+01  0.18881345280E+02  0.13461375423E+01  0.19325138517E+02  0.00000000000E+00 0.  1.
</event>
<event>
 7    1  0.4005571E-009  0.4778727E+02  0.7816164E-02  0.1312668E+00
        -11   -1    0    0    0    0  0.00000000000E+00  0.00000000000E+00  0.45593999997E+02  0.45594000000E+02  0.51100000000E-03 0.  1.
         11   -1    0    0    0    0 -0.00000000000E+00 -0.00000000000E+00 -0.45593999997E+02  0.45594000000E+02  0.51100000000E-03 0. -1.
    9900012    2    1    2    0    0 -0.66228230690E+00  0.25248866598E+02  0.35294182864E+02  0.47787271592E+02  0.20000002498E+02 0.  0.
         12    1    1    2    0    0  0.66228230690E+00 -0.25248866598E+02 -0.35294182864E+02  0.43400728408E+02  0.00000000000E+00 0. -1.
         11    1    3    3    0    0 -0.19243851166E+00  0.15564506976E+02  0.10348379786E+02  0.18691706033E+02  0.51100000000E-03 0. -1.
        -11    1    3    3    0    0 -0.25041587480E+01  0.89115705513E+01  0.86959527644E+01  0.12700649411E+02  0.51100000000E-03 0.  1.
         12    1    3    3    0    0  0.20343149528E+01  0.77278907022E+00  0.16249850314E+02  0.16394916148E+02  0.00000000000E+00 0. -1.
</event>
<event>
 7    1  0.4005571E-009  0.4778727E+02  0.7816164E-02  0.1312668E+00
        -11   -1    0    0    0    0  0.00000000000E+00  0.00000000000E+00  0.45593999997E+02  0.45594000000E+02  0.51100000000E-03 0.  1.
         11   -1    0    0    0    0 -0.00000000000E+00 -0.00000000000E+00 -0.45593999997E+02  0.45594000000E+02  0.51100000000E-03 0. -1.
    9900012    2    1    2    0    0  0.27415596903E+02  0.32721532724E+02  0.78300420479E+01  0.47787271713E+02  0.20000003048E+02 0.  0.
         12    1    1    2    0    0 -0.27415596903E+02 -0.32721532724E+02 -0.78300420479E+01  0.43400728287E+02  0.00000000000E+00 0. -1.
         11    1    3    3    0    0  0.12594928109E+02  0.60374760895E+01  0.67486495889E+01  0.15512175964E+02  0.51100000000E-03 0. -1.
        -11    1    3    3    0    0 -0.13025816030E+01  0.18183567290E+01  0.13983687322E+01  0.26379111809E+01  0.51100000000E-03 0.  1.
         12    1    3    3    0    0  0.16123250397E+02  0.24865699906E+02 -0.31697627314E+00  0.29637184568E+02  0.00000000000E+00 0. -1.
</event>
<event>
 7    1  0.4005571E-009  0.4778727E+02  0.7816164E-02  0.1312668E+00
        -11   -1    0    0    0    0  0.00000000000E+00  0.00000000000E+00  0.45593999997E+02  0.45594000000E+02  0.51100000000E-03 0.  1.
         11   -1    0    0    0    0 -0.00000000000E+00 -0.00000000000E+00 -0.45593999997E+02  0.45594000000E+02  0.51100000000E-03 0. -1.
    9900012    2    1    2    0    0  0.73155320280E+01  0.35833176015E+02  0.23368560460E+02  0.47787272700E+02  0.20000007550E+02 0.  0.
         12    1    1    2    0    0 -0.73155320280E+01 -0.35833176015E+02 -0.23368560460E+02  0.43400727300E+02  0.00000000000E+00 0. -1.
         11    1    3    3    0    0  0.26481045837E+01  0.60019415701E+01  0.70753380644E+01  0.96486356281E+01  0.51100000000E-03 0.  1.
        -11    1    3    3    0    0  0.26531432077E+01  0.13072094868E+01 -0.25401006648E+01  0.38987276350E+01  0.51100000000E-03 0. -1.
         12    1    3    3    0    0  0.20142842366E+01  0.28524024958E+02  0.18833323060E+02  0.34239909437E+02  0.00000000000E+00 0. -1.
</event>
<event>
 7    1  0.4005571E-009  0.4778727E+02  0.7816164E-02  0.1312668E+00
        -11   -1    0    0    0    0  0.00000000000E+00  0.00000000000E+00  0.45593999997E+02  0.45594000000E+02  0.51100000000E-03 0.  1.
         11   -1    0    0    0    0 -0.00000000000E+00 -0.00000000000E+00 -0.45593999997E+02  0.45594000000E+02  0.51100000000E-03 0. -1.
    9900012    2    1    2    0    0 -0.49271036196E+01  0.14318919333E+02  0.40673276381E+02  0.47787271752E+02  0.20000003225E+02 0.  0.
         12    1    1    2    0    0  0.49271036196E+01 -0.14318919333E+02 -0.40673276381E+02  0.43400728248E+02  0.00000000000E+00 0. -1.
         11    1    3    3    0    0 -0.10691425068E+02  0.12144138696E+02  0.18444594309E+02  0.24535479089E+02  0.51100000000E-03 0.  1.
        -11    1    3    3    0    0  0.32292356444E+01  0.88259214816E+00  0.69968998674E+01  0.77565159551E+01  0.51100000000E-03 0. -1.
        -12    1    3    3    0    0  0.25350858039E+01  0.12921884885E+01  0.15231782205E+02  0.15495276708E+02  0.00000000000E+00 0.  1.
</event>
<event>
 7    1  0.4005571E-009  0.4778727E+02  0.7816164E-02  0.1312668E+00
        -11   -1    0    0    0    0  0.00000000000E+00  0.00000000000E+00  0.45593999997E+02  0.45594000000E+02  0.51100000000E-03 0.  1.
         11   -1    0    0    0    0 -0.00000000000E+00 -0.00000000000E+00 -0.45593999997E+02  0.45594000000E+02  0.51100000000E-03 0. -1.
    9900012    2    1    2    0    0  0.40728532022E+02  0.14119624559E+02  0.50444434674E+01  0.47787268114E+02  0.19999986640E+02 0.  0.
         12    1    1    2    0    0 -0.40728532022E+02 -0.14119624559E+02 -0.50444434674E+01  0.43400731886E+02  0.00000000000E+00 0. -1.
         11    1    3    3    0    0  0.65108925714E+01  0.78539857161E+01 -0.63366435396E+00  0.10221464889E+02  0.51100000000E-03 0. -1.
        -11    1    3    3    0    0  0.14961158613E+02  0.90583937560E+01  0.45669148414E+01  0.18076157664E+02  0.51100000000E-03 0.  1.
         12    1    3    3    0    0  0.19256480837E+02 -0.27927549130E+01  0.11111929799E+01  0.19489645561E+02  0.00000000000E+00 0. -1.
</event>
<event>
 7    1  0.4005571E-009  0.4778727E+02  0.7816164E-02  0.1312668E+00
        -11   -1    0    0    0    0  0.00000000000E+00  0.00000000000E+00  0.45593999997E+02  0.45594000000E+02  0.51100000000E-03 0.  1.
         11   -1    0    0    0    0 -0.00000000000E+00 -0.00000000000E+00 -0.45593999997E+02  0.45594000000E+02  0.51100000000E-03 0. -1.
    9900012    2    1    2    0    0  0.24559444804E+02  0.76652276228E+01  0.34952845075E+02  0.47787269333E+02  0.19999992197E+02 0.  0.
         12    1    1    2    0    0 -0.24559444804E+02 -0.76652276228E+01 -0.34952845075E+02  0.43400730667E+02  0.00000000000E+00 0. -1.
         11    1    3    3    0    0  0.81325086606E+01  0.68155791145E+00  0.91633285607E+01  0.12270648266E+02  0.51100000000E-03 0.  1.
        -11    1    3    3    0    0  0.35289003426E+00  0.41031750293E+00  0.15130550096E+02  0.15140225834E+02  0.51100000000E-03 0. -1.
         12    1    3    3    0    0  0.16074046109E+02  0.65733522085E+01  0.10658966418E+02  0.20376395233E+02  0.00000000000E+00 0. -1.
</event>
<event>
 7    1  0.4005571E-009  0.4778727E+02  0.7816164E-02  0.1312668E+00
        -11   -1    0    0    0    0  0.00000000000E+00  0.00000000000E+00  0.45593999997E+02  0.45594000000E+02  0.51100000000E-03 0. -1.
         11   -1    0    0    0    0 -0.00000000000E+00 -0.00000000000E+00 -0.45593999997E+02  0.45594000000E+02  0.51100000000E-03 0.  1.
    9900012    2    1    2    0    0 -0.36614492803E+02  0.17049800850E+02 -0.15884150717E+02  0.47787273782E+02  0.20000012482E+02 0.  0.
         12    1    1    2    0    0  0.36614492803E+02 -0.17049800850E+02  0.15884150717E+02  0.43400726218E+02  0.00000000000E+00 0. -1.
         11    1    3    3    0    0 -0.92736464814E+01  0.23744139589E+00  0.23926320268E+01  0.95802706515E+01  0.51100000000E-03 0. -1.
        -11    1    3    3    0    0 -0.96141353625E+01  0.90620139788E+01 -0.29808967248E+01  0.13543907917E+02  0.51100000000E-03 0.  1.
         12    1    3    3    0    0 -0.17726710959E+02  0.77503454749E+01 -0.15295886019E+02  0.24663095214E+02  0.00000000000E+00 0. -1.
</event>
<event>
 7    1  0.4005571E-009  0.4778727E+02  0.7816164E-02  0.1312668E+00
        -11   -1    0    0    0    0  0.00000000000E+00  0.00000000000E+00  0.45593999997E+02  0.45594000000E+02  0.51100000000E-03 0. -1.
         11   -1    0    0    0    0 -0.00000000000E+00 -0.00000000000E+00 -0.45593999997E+02  0.45594000000E+02  0.51100000000E-03 0.  1.
    9900012    2    1    2    0    0  0.22087811733E+02  0.35382670913E+02  0.11992431868E+02  0.47787271317E+02  0.20000001244E+02 0.  0.
         12    1    1    2    0    0 -0.22087811733E+02 -0.35382670913E+02 -0.11992431868E+02  0.43400728683E+02  0.00000000000E+00 0. -1.
         11    1    3    3    0    0 -0.13955994770E+01  0.38587369667E+01  0.26153245013E+00  0.41116843704E+01  0.51100000000E-03 0. -1.
        -11    1    3    3    0    0  0.60178308974E+01  0.19138361440E+02  0.20157795557E+01  0.20163197534E+02  0.51100000000E-03 0.  1.
         12    1    3    3    0    0  0.17465580313E+02  0.12385572506E+02  0.97151198622E+01  0.23512389413E+02  0.00000000000E+00 0. -1.
</event>
<event>
 7    1  0.4005571E-009  0.4778727E+02  0.7816164E-02  0.1312668E+00
        -11   -1    0    0    0    0  0.00000000000E+00  0.00000000000E+00  0.45593999997E+02  0.45594000000E+02  0.51100000000E-03 0.  1.
         11   -1    0    0    0    0 -0.00000000000E+00 -0.00000000000E+00 -0.45593999997E+02  0.45594000000E+02  0.51100000000E-03 0. -1.
    9900012    2    1    2    0    0 -0.25739027014E+02 -0.34361712689E+02  0.63560015659E+01  0.47787267674E+02  0.19999984632E+02 0.  0.
         12    1    1    2    0    0  0.25739027014E+02  0.34361712689E+02 -0.63560015659E+01  0.43400732326E+02  0.00000000000E+00 0. -1.
         11    1    3    3    0    0 -0.47912762280E+01 -0.77001725070E+01  0.45640354519E+01  0.10152802785E+02  0.51100000000E-03 0. -1.
        -11    1    3    3    0    0 -0.20314105094E+02 -0.25155315149E+02  0.62095630151E+01  0.32924328681E+02  0.51100000000E-03 0.  1.
         12    1    3    3    0    0 -0.63364569256E+00 -0.15062250325E+01 -0.44175969010E+01  0.47101362074E+01  0.00000000000E+00 0. -1.
</event>
<event>
 7    1  0.4005571E-009  0.4778728E+02  0.7816164E-02  0.1312668E+00
        -11   -1    0    0    0    0  0.00000000000E+00  0.00000000000E+00  0.45593999997E+02  0.45594000000E+02  0.51100000000E-03 0.  1.
         11   -1    0    0    0    0 -0.00000000000E+00 -0.00000000000E+00 -0.45593999997E+02  0.45594000000E+02  0.51100000000E-03 0. -1.
    9900012    2    1    2    0    0  0.32702800090E+01 -0.33966903051E+02  0.26817488603E+02  0.47787275015E+02  0.20000018103E+02 0.  0.
         12    1    1    2    0    0 -0.32702800090E+01  0.33966903051E+02 -0.26817488603E+02  0.43400724985E+02  0.00000000000E+00 0. -1.
         11    1    3    3    0    0  0.83273223990E+00  0.79338289138E-01 -0.12756306350E+01  0.15254413543E+01  0.51100000000E-03 0. -1.
        -11    1    3    3    0    0  0.42474436872E+00 -0.53885988777E+01 -0.86154894454E+00  0.54735429558E+01  0.51100000000E-03 0.  1.
        -12    1    3    3    0    0  0.20128034004E+01 -0.28657642463E+02  0.28954668183E+02  0.40788290705E+02  0.00000000000E+00 0.  1.
</event>
<event>
 7    1  0.4005571E-009  0.4778727E+02  0.7816164E-02  0.1312668E+00
        -11   -1    0    0    0    0  0.00000000000E+00  0.00000000000E+00  0.45593999997E+02  0.45594000000E+02  0.51100000000E-03 0.  1.
         11   -1    0    0    0    0 -0.00000000000E+00 -0.00000000000E+00 -0.45593999997E+02  0.45594000000E+02  0.51100000000E-03 0. -1.
    9900012    2    1    2    0    0  0.22183954428E+02  0.36872889416E+02  0.56467086961E+01  0.47787272736E+02  0.20000007714E+02 0.  0.
         12    1    1    2    0    0 -0.22183954428E+02 -0.36872889416E+02 -0.56467086961E+01  0.43400727264E+02  0.00000000000E+00 0. -1.
         11    1    3    3    0    0  0.12560748143E+02  0.25379699142E+02 -0.32499990439E+01  0.28503754428E+02  0.51100000000E-03 0. -1.
        -11    1    3    3    0    0 -0.10798782596E+01  0.27837901113E+01  0.24339401933E+00  0.29958079626E+01  0.51100000000E-03 0.  1.
        -12    1    3    3    0    0  0.10703084545E+02  0.87094001621E+01  0.86533137207E+01  0.16287710346E+02  0.00000000000E+00 0.  1.
</event>
<event>
 7    1  0.4005571E-009  0.4778727E+02  0.7816164E-02  0.1312668E+00
        -11   -1    0    0    0    0  0.00000000000E+00  0.00000000000E+00  0.45593999997E+02  0.45594000000E+02  0.51100000000E-03 0.  1.
         11   -1    0    0    0    0 -0.00000000000E+00 -0.00000000000E+00 -0.45593999997E+02  0.45594000000E+02  0.51100000000E-03 0. -1.
    9900012    2    1    2    0    0  0.42097398121E+02  0.10069245041E+02  0.31689831376E+01  0.47787273297E+02  0.20000010270E+02 0.  0.
         12    1    1    2    0    0 -0.42097398121E+02 -0.10069245041E+02 -0.31689831376E+01  0.43400726703E+02  0.00000000000E+00 0. -1.
         11    1    3    3    0    0  0.17682263966E+01  0.45763712300E+01  0.23458540283E+01  0.54380906215E+01  0.51100000000E-03 0. -1.
        -11    1    3    3    0    0  0.12172852635E+02  0.34678365392E+01  0.53828570056E+01  0.13754249574E+02  0.51100000000E-03 0.  1.
        -12    1    3    3    0    0  0.28156319089E+02  0.20250372718E+01 -0.45597278964E+01  0.28594933102E+02  0.00000000000E+00 0.  1.
</event>
<event>
 7    1  0.4005571E-009  0.4778728E+02  0.7816164E-02  0.1312668E+00
        -11   -1    0    0    0    0  0.00000000000E+00  0.00000000000E+00  0.45593999997E+02  0.45594000000E+02  0.51100000000E-03 0.  1.
         11   -1    0    0    0    0 -0.00000000000E+00 -0.00000000000E+00 -0.45593999997E+02  0.45594000000E+02  0.51100000000E-03 0. -1.
    9900012    2    1    2    0    0 -0.15449155673E+01  0.10026360991E+02  0.42198437008E+02  0.47787276910E+02  0.20000026742E+02 0.  0.
         12    1    1    2    0    0  0.15449155673E+01 -0.10026360991E+02 -0.42198437008E+02  0.43400723090E+02  0.00000000000E+00 0. -1.
         11    1    3    3    0    0 -0.60265476518E+01  0.36212098710E+01  0.21333559358E+02  0.22462261521E+02  0.51100000000E-03 0. -1.
        -11    1    3    3    0    0  0.45762267472E+01  0.28460426700E+01  0.21080205105E+02  0.21758144628E+02  0.51100000000E-03 0.  1.
         12    1    3    3    0    0 -0.94594662672E-01  0.35591084502E+01 -0.21532745406E+00  0.35668707606E+01  0.00000000000E+00 0. -1.
</event>
<event>
 7    1  0.4005571E-009  0.4778729E+02  0.7816164E-02  0.1312668E+00
        -11   -1    0    0    0    0  0.00000000000E+00  0.00000000000E+00  0.45593999997E+02  0.45594000000E+02  0.51100000000E-03 0. -1.
         11   -1    0    0    0    0 -0.00000000000E+00 -0.00000000000E+00 -0.45593999997E+02  0.45594000000E+02  0.51100000000E-03 0.  1.
    9900012    2    1    2    0    0  0.28475336495E+02  0.19431076718E+01 -0.32695581259E+02  0.47787291598E+02  0.20000093711E+02 0.  0.
         12    1    1    2    0    0 -0.28475336495E+02 -0.19431076718E+01  0.32695581259E+02  0.43400708402E+02  0.00000000000E+00 0. -1.
         11    1    3    3    0    0  0.63913932848E+01  0.41008581296E+01 -0.14313714387E+02  0.16203375122E+02  0.51100000000E-03 0. -1.
        -11    1    3    3    0    0  0.77468395363E+01 -0.50178788682E+01 -0.13130008790E+02  0.16049603180E+02  0.51100000000E-03 0.  1.
         12    1    3    3    0    0  0.14337103674E+02  0.28601284104E+01 -0.52518580820E+01  0.15534313297E+02  0.00000000000E+00 0. -1.
</event>
<event>
 7    1  0.4005571E-009  0.4778727E+02  0.7816164E-02  0.1312668E+00
        -11   -1    0    0    0    0  0.00000000000E+00  0.00000000000E+00  0.45593999997E+02  0.45594000000E+02  0.51100000000E-03 0. -1.
         11   -1    0    0    0    0 -0.00000000000E+00 -0.00000000000E+00 -0.45593999997E+02  0.45594000000E+02  0.51100000000E-03 0.  1.
    9900012    2    1    2    0    0 -0.71391560437E+01 -0.83433437800E+00 -0.42801397253E+02  0.47787271093E+02  0.20000000219E+02 0.  0.
         12    1    1    2    0    0  0.71391560437E+01  0.83433437800E+00  0.42801397253E+02  0.43400728907E+02  0.00000000000E+00 0. -1.
         11    1    3    3    0    0 -0.34908292877E+00  0.22059806701E+01 -0.52730568782E+00  0.22948335795E+01  0.51100000000E-03 0. -1.
        -11    1    3    3    0    0 -0.52030197008E+01 -0.52832696370E+01 -0.72828104359E+01  0.10393444096E+02  0.51100000000E-03 0.  1.
        -12    1    3    3    0    0 -0.15870534141E+01  0.22429545889E+01 -0.34991281130E+02  0.35098993417E+02  0.00000000000E+00 0.  1.
</event>
<event>
 7    1  0.4005571E-009  0.4778725E+02  0.7816164E-02  0.1312668E+00
        -11   -1    0    0    0    0  0.00000000000E+00  0.00000000000E+00  0.45593999997E+02  0.45594000000E+02  0.51100000000E-03 0.  1.
         11   -1    0    0    0    0 -0.00000000000E+00 -0.00000000000E+00 -0.45593999997E+02  0.45594000000E+02  0.51100000000E-03 0. -1.
    9900012    2    1    2    0    0  0.15927512337E+02 -0.32671125564E+02  0.23717854933E+02  0.47787254183E+02  0.19999923123E+02 0.  0.
         12    1    1    2    0    0 -0.15927512337E+02  0.32671125564E+02 -0.23717854933E+02  0.43400745817E+02  0.00000000000E+00 0. -1.
         11    1    3    3    0    0  0.20431421886E+01 -0.13124547181E+02  0.14822239213E+02  0.19902938081E+02  0.51100000000E-03 0. -1.
        -11    1    3    3    0    0  0.43319382030E+00  0.13797425989E+01 -0.53129524811E-01  0.14471245740E+01  0.51100000000E-03 0.  1.
        -12    1    3    3    0    0  0.13451176328E+02 -0.20926320982E+02  0.89487452442E+01  0.26437191528E+02  0.00000000000E+00 0.  1.
</event>
<event>
 7    1  0.4005571E-009  0.4778728E+02  0.7816164E-02  0.1312668E+00
        -11   -1    0    0    0    0  0.00000000000E+00  0.00000000000E+00  0.45593999997E+02  0.45594000000E+02  0.51100000000E-03 0.  1.
         11   -1    0    0    0    0 -0.00000000000E+00 -0.00000000000E+00 -0.45593999997E+02  0.45594000000E+02  0.51100000000E-03 0. -1.
    9900012    2    1    2    0    0  0.82080577744E+01  0.39260509420E+01  0.42436265362E+02  0.47787277583E+02  0.20000029812E+02 0.  0.
         12    1    1    2    0    0 -0.82080577744E+01 -0.39260509420E+01 -0.42436265362E+02  0.43400722417E+02  0.00000000000E+00 0. -1.
         11    1    3    3    0    0  0.29852986629E+01 -0.36918822589E-01  0.17465154346E+00  0.29906311255E+01  0.51100000000E-03 0. -1.
        -11    1    3    3    0    0  0.12137322994E+00  0.77095080581E+01  0.30276883117E+02  0.31243253631E+02  0.51100000000E-03 0.  1.
        -12    1    3    3    0    0  0.51013858815E+01 -0.37465382935E+01  0.11984730702E+02  0.13553392826E+02  0.00000000000E+00 0.  1.
</event>
<event>
 7    1  0.4005571E-009  0.4778727E+02  0.7816164E-02  0.1312668E+00
        -11   -1    0    0    0    0  0.00000000000E+00  0.00000000000E+00  0.45593999997E+02  0.45594000000E+02  0.51100000000E-03 0. -1.
         11   -1    0    0    0    0 -0.00000000000E+00 -0.00000000000E+00 -0.45593999997E+02  0.45594000000E+02  0.51100000000E-03 0.  1.
    9900012    2    1    2    0    0  0.84658281881E+01 -0.27361653635E+02 -0.32608177021E+02  0.47787267919E+02  0.19999985749E+02 0.  0.
         12    1    1    2    0    0 -0.84658281881E+01  0.27361653635E+02  0.32608177021E+02  0.43400732081E+02  0.00000000000E+00 0. -1.
         11    1    3    3    0    0  0.40492516209E+01 -0.11359767487E+02 -0.57990162119E+01  0.13381679467E+02  0.51100000000E-03 0. -1.
        -11    1    3    3    0    0 -0.17667629956E+01 -0.65426156665E+01 -0.18774579480E+01  0.70322201224E+01  0.51100000000E-03 0.  1.
        -12    1    3    3    0    0  0.61833395627E+01 -0.94592704810E+01 -0.24931702861E+02  0.27373368330E+02  0.00000000000E+00 0.  1.
</event>
<event>
 7    1  0.4005571E-009  0.4778727E+02  0.7816164E-02  0.1312668E+00
        -11   -1    0    0    0    0  0.00000000000E+00  0.00000000000E+00  0.45593999997E+02  0.45594000000E+02  0.51100000000E-03 0.  1.
         11   -1    0    0    0    0 -0.00000000000E+00 -0.00000000000E+00 -0.45593999997E+02  0.45594000000E+02  0.51100000000E-03 0. -1.
    9900012    2    1    2    0    0 -0.37872954792E+02  0.19446236126E+02  0.84324646883E+01  0.47787271148E+02  0.20000000472E+02 0.  0.
         12    1    1    2    0    0  0.37872954792E+02 -0.19446236126E+02 -0.84324646883E+01  0.43400728852E+02  0.00000000000E+00 0. -1.
         11    1    3    3    0    0 -0.75607431828E+01 -0.12141331430E+00  0.21898677013E+01  0.78724265305E+01  0.51100000000E-03 0. -1.
        -11    1    3    3    0    0 -0.12657295721E+02  0.82471327047E-01  0.49441796431E+01  0.13588923765E+02  0.51100000000E-03 0.  1.
        -12    1    3    3    0    0 -0.17654915889E+02  0.19485178113E+02  0.12984173438E+01  0.26325920853E+02  0.00000000000E+00 0.  1.
</event>
<event>
 7    1  0.4005571E-009  0.4778728E+02  0.7816164E-02  0.1312668E+00
        -11   -1    0    0    0    0  0.00000000000E+00  0.00000000000E+00  0.45593999997E+02  0.45594000000E+02  0.51100000000E-03 0.  1.
         11   -1    0    0    0    0 -0.00000000000E+00 -0.00000000000E+00 -0.45593999997E+02  0.45594000000E+02  0.51100000000E-03 0. -1.
    9900012    2    1    2    0    0 -0.97490843303E+01  0.26206242414E+02  0.33193531459E+02  0.47787282063E+02  0.20000050239E+02 0.  0.
         12    1    1    2    0    0  0.97490843303E+01 -0.26206242414E+02 -0.33193531459E+02  0.43400717937E+02  0.00000000000E+00 0. -1.
         11    1    3    3    0    0  0.14723726060E+00  0.18505014481E+01  0.52426723587E+01  0.55616227975E+01  0.51100000000E-03 0. -1.
        -11    1    3    3    0    0  0.20031624019E+01  0.69281724377E+01  0.16965997197E+02  0.18435218851E+02  0.51100000000E-03 0.  1.
         12    1    3    3    0    0 -0.11899483993E+02  0.17427568528E+02  0.10984861903E+02  0.23790440415E+02  0.00000000000E+00 0. -1.
</event>
<event>
 7    1  0.4005571E-009  0.4778729E+02  0.7816164E-02  0.1312668E+00
        -11   -1    0    0    0    0  0.00000000000E+00  0.00000000000E+00  0.45593999997E+02  0.45594000000E+02  0.51100000000E-03 0.  1.
         11   -1    0    0    0    0 -0.00000000000E+00 -0.00000000000E+00 -0.45593999997E+02  0.45594000000E+02  0.51100000000E-03 0. -1.
    9900012    2    1    2    0    0 -0.15946511198E+02 -0.22112536742E+02  0.33769312953E+02  0.47787285745E+02  0.20000067026E+02 0.  0.
         12    1    1    2    0    0  0.15946511198E+02  0.22112536742E+02 -0.33769312953E+02  0.43400714255E+02  0.00000000000E+00 0. -1.
         11    1    3    3    0    0 -0.86742778955E+01 -0.10347412227E+02  0.15514205191E+02  0.20567027004E+02  0.51100000000E-03 0.  1.
        -11    1    3    3    0    0 -0.37403488357E+01 -0.14132770537E+02  0.93542125075E+01  0.17355883855E+02  0.51100000000E-03 0. -1.
         12    1    3    3    0    0 -0.35318844672E+01  0.23676460229E+01  0.89008952540E+01  0.98643748865E+01  0.00000000000E+00 0. -1.
</event>
<event>
 7    1  0.4005571E-009  0.4778727E+02  0.7816164E-02  0.1312668E+00
        -11   -1    0    0    0    0  0.00000000000E+00  0.00000000000E+00  0.45593999997E+02  0.45594000000E+02  0.51100000000E-03 0. -1.
         11   -1    0    0    0    0 -0.00000000000E+00 -0.00000000000E+00 -0.45593999997E+02  0.45594000000E+02  0.51100000000E-03 0.  1.
    9900012    2    1    2    0    0  0.71400317474E+01 -0.41538741010E+02 -0.10352587682E+02  0.47787272705E+02  0.20000007571E+02 0.  0.
         12    1    1    2    0    0 -0.71400317474E+01  0.41538741010E+02  0.10352587682E+02  0.43400727295E+02  0.00000000000E+00 0. -1.
         11    1    3    3    0    0  0.80418904826E+01 -0.12594149737E+02 -0.74204864173E+01  0.16683771428E+02  0.51100000000E-03 0. -1.
        -11    1    3    3    0    0  0.32559951075E+01 -0.69067631383E+01  0.24885871832E+01  0.80310614254E+01  0.51100000000E-03 0.  1.
        -12    1    3    3    0    0 -0.41578538428E+01 -0.22037828135E+02 -0.54206884476E+01  0.23072439852E+02  0.00000000000E+00 0.  1.
</event>
<event>
 7    1  0.4005571E-009  0.4778728E+02  0.7816164E-02  0.1312668E+00
        -11   -1    0    0    0    0  0.00000000000E+00  0.00000000000E+00  0.45593999997E+02  0.45594000000E+02  0.51100000000E-03 0. -1.
         11   -1    0    0    0    0 -0.00000000000E+00 -0.00000000000E+00 -0.45593999997E+02  0.45594000000E+02  0.51100000000E-03 0.  1.
    9900012    2    1    2    0    0 -0.22551327340E+02  0.31392550795E+02 -0.19737484678E+02  0.47787275217E+02  0.20000019025E+02 0.  0.
         12    1    1    2    0    0  0.22551327340E+02 -0.31392550795E+02  0.19737484678E+02  0.43400724783E+02  0.00000000000E+00 0. -1.
         11    1    3    3    0    0 -0.53213888979E+00  0.98434306765E+01 -0.80914397769E+01  0.12753340629E+02  0.51100000000E-03 0.  1.
        -11    1    3    3    0    0 -0.19830580497E+01  0.14578837167E+01  0.23433296567E+01  0.33984023159E+01  0.51100000000E-03 0. -1.
        -12    1    3    3    0    0 -0.20036130401E+02  0.20091236402E+02 -0.13989374558E+02  0.31635532272E+02  0.00000000000E+00 0.  1.
</event>
<event>
 7    1  0.4005571E-009  0.4778728E+02  0.7816164E-02  0.1312668E+00
        -11   -1    0    0    0    0  0.00000000000E+00  0.00000000000E+00  0.45593999997E+02  0.45594000000E+02  0.51100000000E-03 0.  1.
         11   -1    0    0    0    0 -0.00000000000E+00 -0.00000000000E+00 -0.45593999997E+02  0.45594000000E+02  0.51100000000E-03 0. -1.
    9900012    2    1    2    0    0 -0.28436636987E+02 -0.97797179446E+01  0.31294359313E+02  0.47787284211E+02  0.20000060030E+02 0.  0.
         12    1    1    2    0    0  0.28436636987E+02  0.97797179446E+01 -0.31294359313E+02  0.43400715789E+02  0.00000000000E+00 0. -1.
         11    1    3    3    0    0 -0.75627128489E+01  0.23334371512E+01  0.98211069349E+01  0.12613234964E+02  0.51100000000E-03 0. -1.
        -11    1    3    3    0    0 -0.25857647741E+01 -0.34086149771E+01  0.12142258292E+02  0.12873976551E+02  0.51100000000E-03 0.  1.
         12    1    3    3    0    0 -0.18288159364E+02 -0.87045401187E+01  0.93309940860E+01  0.22300072696E+02  0.00000000000E+00 0. -1.
</event>
<event>
 7    1  0.4005571E-009  0.4778727E+02  0.7816164E-02  0.1312668E+00
        -11   -1    0    0    0    0  0.00000000000E+00  0.00000000000E+00  0.45593999997E+02  0.45594000000E+02  0.51100000000E-03 0.  1.
         11   -1    0    0    0    0 -0.00000000000E+00 -0.00000000000E+00 -0.45593999997E+02  0.45594000000E+02  0.51100000000E-03 0. -1.
    9900012    2    1    2    0    0  0.41445943994E+02  0.91401036483E+01  0.90727915340E+01  0.47787270577E+02  0.19999997868E+02 0.  0.
         12    1    1    2    0    0 -0.41445943994E+02 -0.91401036483E+01 -0.90727915340E+01  0.43400729423E+02  0.00000000000E+00 0. -1.
         11    1    3    3    0    0  0.82405667027E+01 -0.70475802400E+00  0.67033053535E+00  0.82977687809E+01  0.51100000000E-03 0. -1.
        -11    1    3    3    0    0  0.21675675176E+02  0.68294121628E+01 -0.30878480055E+01  0.22934920327E+02  0.51100000000E-03 0.  1.
        -12    1    3    3    0    0  0.11529702115E+02  0.30154495095E+01  0.11490309004E+02  0.16554581469E+02  0.00000000000E+00 0.  1.
</event>
<event>
 7    1  0.4005571E-009  0.4778726E+02  0.7816164E-02  0.1312668E+00
        -11   -1    0    0    0    0  0.00000000000E+00  0.00000000000E+00  0.45593999997E+02  0.45594000000E+02  0.51100000000E-03 0. -1.
         11   -1    0    0    0    0 -0.00000000000E+00 -0.00000000000E+00 -0.45593999997E+02  0.45594000000E+02  0.51100000000E-03 0.  1.
    9900012    2    1    2    0    0  0.26660801027E+02 -0.34149623794E+02  0.25746439961E+01  0.47787263735E+02  0.19999966672E+02 0.  0.
         12    1    1    2    0    0 -0.26660801027E+02  0.34149623794E+02 -0.25746439961E+01  0.43400736265E+02  0.00000000000E+00 0. -1.
         11    1    3    3    0    0  0.14573746632E+02 -0.12248269482E+02  0.36021550134E+01  0.19374976573E+02  0.51100000000E-03 0.  1.
        -11    1    3    3    0    0  0.38065443732E+01 -0.47844256882E+00  0.32761870777E+01  0.50450063811E+01  0.51100000000E-03 0. -1.
        -12    1    3    3    0    0  0.82805100214E+01 -0.21422911744E+02 -0.43036980950E+01  0.23367280781E+02  0.00000000000E+00 0.  1.
</event>
<event>
 7    1  0.4005571E-009  0.4778727E+02  0.7816164E-02  0.1312668E+00
        -11   -1    0    0    0    0  0.00000000000E+00  0.00000000000E+00  0.45593999997E+02  0.45594000000E+02  0.51100000000E-03 0.  1.
         11   -1    0    0    0    0 -0.00000000000E+00 -0.00000000000E+00 -0.45593999997E+02  0.45594000000E+02  0.51100000000E-03 0. -1.
    9900012    2    1    2    0    0 -0.99161346946E+01 -0.13117575868E+01  0.42232368499E+02  0.47787269772E+02  0.19999994199E+02 0.  0.
         12    1    1    2    0    0  0.99161346946E+01  0.13117575868E+01 -0.42232368499E+02  0.43400730228E+02  0.00000000000E+00 0. -1.
         11    1    3    3    0    0  0.36820041500E+00  0.22234351660E+01  0.11498766135E+00  0.22566474928E+01  0.51100000000E-03 0. -1.
        -11    1    3    3    0    0 -0.78467557068E+01  0.21210500605E+01  0.10291886988E+02  0.13114624147E+02  0.51100000000E-03 0.  1.
        -12    1    3    3    0    0 -0.24375794027E+01 -0.56562428134E+01  0.31825493851E+02  0.32415998133E+02  0.00000000000E+00 0.  1.
</event>
<event>
 7    1  0.4005571E-009  0.4778727E+02  0.7816164E-02  0.1312668E+00
        -11   -1    0    0    0    0  0.00000000000E+00  0.00000000000E+00  0.45593999997E+02  0.45594000000E+02  0.51100000000E-03 0.  1.
         11   -1    0    0    0    0 -0.00000000000E+00 -0.00000000000E+00 -0.45593999997E+02  0.45594000000E+02  0.51100000000E-03 0. -1.
    9900012    2    1    2    0    0  0.38052392229E+02  0.16930553746E+02  0.12206359063E+02  0.47787269522E+02  0.19999993056E+02 0.  0.
         12    1    1    2    0    0 -0.38052392229E+02 -0.16930553746E+02 -0.12206359063E+02  0.43400730478E+02  0.00000000000E+00 0. -1.
         11    1    3    3    0    0  0.63550529298E+01  0.66049900852E+01 -0.24424765645E+01  0.94856883670E+01  0.51100000000E-03 0. -1.
        -11    1    3    3    0    0  0.13467617906E+02  0.10617974528E+02  0.74983848857E+01  0.18717475559E+02  0.51100000000E-03 0.  1.
         12    1    3    3    0    0  0.18229721393E+02 -0.29241086662E+00  0.71504507417E+01  0.19584105596E+02  0.00000000000E+00 0. -1.
</event>
<event>
 7    1  0.4005571E-009  0.4778727E+02  0.7816164E-02  0.1312668E+00
        -11   -1    0    0    0    0  0.00000000000E+00  0.00000000000E+00  0.45593999997E+02  0.45594000000E+02  0.51100000000E-03 0.  1.
         11   -1    0    0    0    0 -0.00000000000E+00 -0.00000000000E+00 -0.45593999997E+02  0.45594000000E+02  0.51100000000E-03 0. -1.
    9900012    2    1    2    0    0 -0.12375615249E+02 -0.12401488401E+02  0.39707311195E+02  0.47787270401E+02  0.19999997067E+02 0.  0.
         12    1    1    2    0    0  0.12375615249E+02  0.12401488401E+02 -0.39707311195E+02  0.43400729599E+02  0.00000000000E+00 0. -1.
         11    1    3    3    0    0 -0.38302203302E+01  0.19870412624E+01  0.16589464539E+02  0.17141448442E+02  0.51100000000E-03 0. -1.
        -11    1    3    3    0    0 -0.30422724749E+01 -0.13118359711E+00  0.10168945992E+02  0.10615088026E+02  0.51100000000E-03 0.  1.
        -12    1    3    3    0    0 -0.55031224444E+01 -0.14257346066E+02  0.12948900664E+02  0.20030733933E+02  0.00000000000E+00 0.  1.
</event>
<event>
 7    1  0.4005571E-009  0.4778727E+02  0.7816164E-02  0.1312668E+00
        -11   -1    0    0    0    0  0.00000000000E+00  0.00000000000E+00  0.45593999997E+02  0.45594000000E+02  0.51100000000E-03 0.  1.
         11   -1    0    0    0    0 -0.00000000000E+00 -0.00000000000E+00 -0.45593999997E+02  0.45594000000E+02  0.51100000000E-03 0. -1.
    9900012    2    1    2    0    0  0.25857166476E+02  0.14685188676E+02  0.31612896492E+02  0.47787273632E+02  0.20000011799E+02 0.  0.
         12    1    1    2    0    0 -0.25857166476E+02 -0.14685188676E+02 -0.31612896492E+02  0.43400726368E+02  0.00000000000E+00 0. -1.
         11    1    3    3    0    0  0.36489339509E+01  0.52283306044E+01  0.11861282961E+02  0.13466261308E+02  0.51100000000E-03 0. -1.
        -11    1    3    3    0    0  0.65605026559E+01  0.93051935196E+01  0.38696368799E+01  0.12025011908E+02  0.51100000000E-03 0.  1.
         12    1    3    3    0    0  0.15647729870E+02  0.15166455163E+00  0.15881976651E+02  0.22296000416E+02  0.00000000000E+00 0. -1.
</event>
<event>
 7    1  0.4005571E-009  0.4778727E+02  0.7816164E-02  0.1312668E+00
        -11   -1    0    0    0    0  0.00000000000E+00  0.00000000000E+00  0.45593999997E+02  0.45594000000E+02  0.51100000000E-03 0.  1.
         11   -1    0    0    0    0 -0.00000000000E+00 -0.00000000000E+00 -0.45593999997E+02  0.45594000000E+02  0.51100000000E-03 0. -1.
    9900012    2    1    2    0    0  0.24494325423E+02 -0.17181010280E+00  0.35827667841E+02  0.47787270979E+02  0.19999999700E+02 0.  0.
         12    1    1    2    0    0 -0.24494325423E+02  0.17181010280E+00 -0.35827667841E+02  0.43400729021E+02  0.00000000000E+00 0. -1.
         11    1    3    3    0    0  0.14423634735E+02 -0.24911612361E+01  0.13701212703E+02  0.20049198314E+02  0.51100000000E-03 0. -1.
        -11    1    3    3    0    0  0.76880547552E+01  0.33719703918E+01  0.37785341806E+01  0.92061767883E+01  0.51100000000E-03 0.  1.
         12    1    3    3    0    0  0.23826359336E+01 -0.10526192586E+01  0.18347920958E+02  0.18531895876E+02  0.00000000000E+00 0. -1.
</event>
<event>
 7    1  0.4005571E-009  0.4778727E+02  0.7816164E-02  0.1312668E+00
        -11   -1    0    0    0    0  0.00000000000E+00  0.00000000000E+00  0.45593999997E+02  0.45594000000E+02  0.51100000000E-03 0.  1.
         11   -1    0    0    0    0 -0.00000000000E+00 -0.00000000000E+00 -0.45593999997E+02  0.45594000000E+02  0.51100000000E-03 0. -1.
    9900012    2    1    2    0    0  0.14629596604E+02 -0.14536776412E+02  0.38187435724E+02  0.47787271752E+02  0.20000003227E+02 0.  0.
         12    1    1    2    0    0 -0.14629596604E+02  0.14536776412E+02 -0.38187435724E+02  0.43400728248E+02  0.00000000000E+00 0. -1.
         11    1    3    3    0    0  0.19905237933E+01 -0.86869610118E+01  0.63354683566E+01  0.10934515817E+02  0.51100000000E-03 0. -1.
        -11    1    3    3    0    0  0.36673702683E+01 -0.32643624440E+01  0.15555995710E+01  0.51502968008E+01  0.51100000000E-03 0.  1.
        -12    1    3    3    0    0  0.89717025424E+01 -0.25854529561E+01  0.30296367797E+02  0.31702459134E+02  0.00000000000E+00 0.  1.
</event>
<event>
 7    1  0.4005571E-009  0.4778727E+02  0.7816164E-02  0.1312668E+00
        -11   -1    0    0    0    0  0.00000000000E+00  0.00000000000E+00  0.45593999997E+02  0.45594000000E+02  0.51100000000E-03 0.  1.
         11   -1    0    0    0    0 -0.00000000000E+00 -0.00000000000E+00 -0.45593999997E+02  0.45594000000E+02  0.51100000000E-03 0. -1.
    9900012    2    1    2    0    0  0.15387417258E+02 -0.39828400873E+02 -0.77813132948E+01  0.47787274630E+02  0.20000016350E+02 0.  0.
         12    1    1    2    0    0 -0.15387417258E+02  0.39828400873E+02  0.77813132948E+01  0.43400725370E+02  0.00000000000E+00 0. -1.
         11    1    3    3    0    0  0.13395633077E+02 -0.27873249539E+02 -0.10048224072E+02  0.32516577813E+02  0.51100000000E-03 0.  1.
        -11    1    3    3    0    0  0.49751935877E+01 -0.66494616561E+01 -0.99624259463E+00  0.83642328470E+01  0.51100000000E-03 0. -1.
        -12    1    3    3    0    0 -0.29834094066E+01 -0.53056896788E+01  0.32631533715E+01  0.69064639709E+01  0.00000000000E+00 0.  1.
</event>
<event>
 7    1  0.4005571E-009  0.4778727E+02  0.7816164E-02  0.1312668E+00
        -11   -1    0    0    0    0  0.00000000000E+00  0.00000000000E+00  0.45593999997E+02  0.45594000000E+02  0.51100000000E-03 0. -1.
         11   -1    0    0    0    0 -0.00000000000E+00 -0.00000000000E+00 -0.45593999997E+02  0.45594000000E+02  0.51100000000E-03 0.  1.
    9900012    2    1    2    0    0 -0.62473862414E+00  0.43271883877E+02  0.32829058386E+01  0.47787266097E+02  0.19999977441E+02 0.  0.
         12    1    1    2    0    0  0.62473862414E+00 -0.43271883877E+02 -0.32829058386E+01  0.43400733903E+02  0.00000000000E+00 0. -1.
         11    1    3    3    0    0 -0.83452821193E+00  0.45117276478E+01 -0.10728444683E+01  0.47120185928E+01  0.51100000000E-03 0. -1.
        -11    1    3    3    0    0 -0.49558666094E+01  0.14563565909E+02  0.91128687611E+01  0.17880224919E+02  0.51100000000E-03 0.  1.
        -12    1    3    3    0    0  0.51656561972E+01  0.24196590320E+02 -0.47571184542E+01  0.25195022585E+02  0.00000000000E+00 0.  1.
</event>
<event>
 7    1  0.4005571E-009  0.4778727E+02  0.7816164E-02  0.1312668E+00
        -11   -1    0    0    0    0  0.00000000000E+00  0.00000000000E+00  0.45593999997E+02  0.45594000000E+02  0.51100000000E-03 0.  1.
         11   -1    0    0    0    0 -0.00000000000E+00 -0.00000000000E+00 -0.45593999997E+02  0.45594000000E+02  0.51100000000E-03 0. -1.
    9900012    2    1    2    0    0 -0.42319838365E+02 -0.80543692165E+01  0.52708287833E+01  0.47787271679E+02  0.20000002895E+02 0.  0.
         12    1    1    2    0    0  0.42319838365E+02  0.80543692165E+01 -0.52708287833E+01  0.43400728321E+02  0.00000000000E+00 0. -1.
         11    1    3    3    0    0 -0.10907547880E+02 -0.34589210921E+01  0.19259498138E+01  0.11603793294E+02  0.51100000000E-03 0. -1.
        -11    1    3    3    0    0 -0.16599646625E+02 -0.77064707616E+01  0.85200818398E+01  0.20187366210E+02  0.51100000000E-03 0.  1.
         12    1    3    3    0    0 -0.14812643860E+02  0.31110226373E+01 -0.51752028702E+01  0.15996112175E+02  0.00000000000E+00 0. -1.
</event>
<event>
 7    1  0.4005571E-009  0.4778727E+02  0.7816164E-02  0.1312668E+00
        -11   -1    0    0    0    0  0.00000000000E+00  0.00000000000E+00  0.45593999997E+02  0.45594000000E+02  0.51100000000E-03 0. -1.
         11   -1    0    0    0    0 -0.00000000000E+00 -0.00000000000E+00 -0.45593999997E+02  0.45594000000E+02  0.51100000000E-03 0.  1.
    9900012    2    1    2    0    0  0.20317269840E+02 -0.34183767153E+02 -0.17386821056E+02  0.47787274926E+02  0.20000017699E+02 0.  0.
         12    1    1    2    0    0 -0.20317269840E+02  0.34183767153E+02  0.17386821056E+02  0.43400725074E+02  0.00000000000E+00 0. -1.
         11    1    3    3    0    0  0.52220692840E+01 -0.16021385640E+01 -0.54390057833E+01  0.77084135694E+01  0.51100000000E-03 0. -1.
        -11    1    3    3    0    0  0.14957450184E+02 -0.28094856849E+02 -0.56203019094E+01  0.32320799668E+02  0.51100000000E-03 0.  1.
         12    1    3    3    0    0  0.13775037205E+00 -0.44867717400E+01 -0.63275133630E+01  0.77580616890E+01  0.00000000000E+00 0. -1.
</event>
<event>
 7    1  0.4005571E-009  0.4778727E+02  0.7816164E-02  0.1312668E+00
        -11   -1    0    0    0    0  0.00000000000E+00  0.00000000000E+00  0.45593999997E+02  0.45594000000E+02  0.51100000000E-03 0. -1.
         11   -1    0    0    0    0 -0.00000000000E+00 -0.00000000000E+00 -0.45593999997E+02  0.45594000000E+02  0.51100000000E-03 0.  1.
    9900012    2    1    2    0    0  0.40225875023E+02 -0.15485894620E+02  0.50684360626E+01  0.47787274226E+02  0.20000014507E+02 0.  0.
         12    1    1    2    0    0 -0.40225875023E+02  0.15485894620E+02 -0.50684360626E+01  0.43400725774E+02  0.00000000000E+00 0. -1.
         11    1    3    3    0    0  0.54106967846E+01 -0.81774806327E+00 -0.42848545936E+01  0.69501317066E+01  0.51100000000E-03 0. -1.
        -11    1    3    3    0    0  0.20781581895E+02 -0.10988261239E+02 -0.12362486261E+00  0.23508111674E+02  0.51100000000E-03 0.  1.
         12    1    3    3    0    0  0.14033596344E+02 -0.36798853175E+01  0.94769155188E+01  0.17329030846E+02  0.00000000000E+00 0. -1.
</event>
<event>
 7    1  0.4005571E-009  0.4778727E+02  0.7816164E-02  0.1312668E+00
        -11   -1    0    0    0    0  0.00000000000E+00  0.00000000000E+00  0.45593999997E+02  0.45594000000E+02  0.51100000000E-03 0. -1.
         11   -1    0    0    0    0 -0.00000000000E+00 -0.00000000000E+00 -0.45593999997E+02  0.45594000000E+02  0.51100000000E-03 0.  1.
    9900012    2    1    2    0    0  0.21551821048E+02 -0.36012568335E+02 -0.11056106448E+02  0.47787267767E+02  0.19999985056E+02 0.  0.
         12    1    1    2    0    0 -0.21551821048E+02  0.36012568335E+02  0.11056106448E+02  0.43400732233E+02  0.00000000000E+00 0. -1.
         11    1    3    3    0    0 -0.34953480097E+00  0.94082174179E+00 -0.85628845882E+00  0.13192991748E+01  0.51100000000E-03 0. -1.
        -11    1    3    3    0    0 -0.17914280128E+01 -0.64501447217E+01 -0.19561666774E+01  0.69742504678E+01  0.51100000000E-03 0.  1.
        -12    1    3    3    0    0  0.23692783861E+02 -0.30503245355E+02 -0.82436513120E+01  0.39493718124E+02  0.00000000000E+00 0.  1.
</event>
<event>
 7    1  0.4005571E-009  0.4778727E+02  0.7816164E-02  0.1312668E+00
        -11   -1    0    0    0    0  0.00000000000E+00  0.00000000000E+00  0.45593999997E+02  0.45594000000E+02  0.51100000000E-03 0.  1.
         11   -1    0    0    0    0 -0.00000000000E+00 -0.00000000000E+00 -0.45593999997E+02  0.45594000000E+02  0.51100000000E-03 0. -1.
    9900012    2    1    2    0    0 -0.47496112508E+01  0.43003758326E+02  0.34265539184E+01  0.47787270641E+02  0.19999998159E+02 0.  0.
         12    1    1    2    0    0  0.47496112508E+01 -0.43003758326E+02 -0.34265539184E+01  0.43400729359E+02  0.00000000000E+00 0. -1.
         11    1    3    3    0    0 -0.91806265842E-01  0.12816149921E+02 -0.79743273050E+01  0.15094768081E+02  0.51100000000E-03 0. -1.
        -11    1    3    3    0    0 -0.19890504180E+01  0.64170467102E+01  0.26554730070E+01  0.72240118493E+01  0.51100000000E-03 0.  1.
         12    1    3    3    0    0 -0.26687545670E+01  0.23770561694E+02  0.87454082164E+01  0.25468490710E+02  0.00000000000E+00 0. -1.
</event>
<event>
 7    1  0.4005571E-009  0.4778727E+02  0.7816164E-02  0.1312668E+00
        -11   -1    0    0    0    0  0.00000000000E+00  0.00000000000E+00  0.45593999997E+02  0.45594000000E+02  0.51100000000E-03 0. -1.
         11   -1    0    0    0    0 -0.00000000000E+00 -0.00000000000E+00 -0.45593999997E+02  0.45594000000E+02  0.51100000000E-03 0.  1.
    9900012    2    1    2    0    0 -0.12951529218E+02  0.28935851857E+02 -0.29641145269E+02  0.47787272764E+02  0.20000007839E+02 0.  0.
         12    1    1    2    0    0  0.12951529218E+02 -0.28935851857E+02  0.29641145269E+02  0.43400727236E+02  0.00000000000E+00 0. -1.
         11    1    3    3    0    0  0.68384068696E+00  0.10810503999E+02 -0.56951495211E+01  0.12238029381E+02  0.51100000000E-03 0. -1.
        -11    1    3    3    0    0 -0.92387373188E+01  0.18543606095E+02 -0.23140940715E+02  0.31059986022E+02  0.51100000000E-03 0.  1.
        -12    1    3    3    0    0 -0.43966325859E+01 -0.41825823657E+00 -0.80505503261E+00  0.44892573610E+01  0.00000000000E+00 0.  1.
</event>
<event>
 7    1  0.4005571E-009  0.4778727E+02  0.7816164E-02  0.1312668E+00
        -11   -1    0    0    0    0  0.00000000000E+00  0.00000000000E+00  0.45593999997E+02  0.45594000000E+02  0.51100000000E-03 0.  1.
         11   -1    0    0    0    0 -0.00000000000E+00 -0.00000000000E+00 -0.45593999997E+02  0.45594000000E+02  0.51100000000E-03 0. -1.
    9900012    2    1    2    0    0  0.27587483143E+02 -0.33487527859E+02 -0.10674812601E+01  0.47787271152E+02  0.20000000491E+02 0.  0.
         12    1    1    2    0    0 -0.27587483143E+02  0.33487527859E+02  0.10674812601E+01  0.43400728848E+02  0.00000000000E+00 0. -1.
         11    1    3    3    0    0  0.71150169470E+01 -0.13481787196E+02  0.60899335719E+01  0.16415521415E+02  0.51100000000E-03 0. -1.
        -11    1    3    3    0    0  0.90769273818E+00  0.99147349058E+00  0.83205073674E+00  0.15808967326E+01  0.51100000000E-03 0.  1.
        -12    1    3    3    0    0  0.19564773458E+02 -0.20997214154E+02 -0.79894655687E+01  0.29790853005E+02  0.00000000000E+00 0.  1.
</event>
<event>
 7    1  0.4005571E-009  0.4778727E+02  0.7816164E-02  0.1312668E+00
        -11   -1    0    0    0    0  0.00000000000E+00  0.00000000000E+00  0.45593999997E+02  0.45594000000E+02  0.51100000000E-03 0. -1.
         11   -1    0    0    0    0 -0.00000000000E+00 -0.00000000000E+00 -0.45593999997E+02  0.45594000000E+02  0.51100000000E-03 0.  1.
    9900012    2    1    2    0    0 -0.12377724644E+02 -0.39679135388E+02  0.12489256879E+02  0.47787269708E+02  0.19999993906E+02 0.  0.
         12    1    1    2    0    0  0.12377724644E+02  0.39679135388E+02 -0.12489256879E+02  0.43400730292E+02  0.00000000000E+00 0. -1.
         11    1    3    3    0    0  0.35593320463E+01 -0.46912908027E+01  0.12866401695E+01  0.60276444154E+01  0.51100000000E-03 0. -1.
        -11    1    3    3    0    0 -0.34916503640E+01 -0.18247633350E+02  0.94026142358E+01  0.20822509452E+02  0.51100000000E-03 0.  1.
         12    1    3    3    0    0 -0.12445406326E+02 -0.16740211235E+02  0.18000024741E+01  0.20937115841E+02  0.00000000000E+00 0. -1.
</event>
<event>
 7    1  0.4005571E-009  0.4778727E+02  0.7816164E-02  0.1312668E+00
        -11   -1    0    0    0    0  0.00000000000E+00  0.00000000000E+00  0.45593999997E+02  0.45594000000E+02  0.51100000000E-03 0.  1.
         11   -1    0    0    0    0 -0.00000000000E+00 -0.00000000000E+00 -0.45593999997E+02  0.45594000000E+02  0.51100000000E-03 0. -1.
    9900012    2    1    2    0    0 -0.15650973118E+02  0.34307469648E+02  0.21486462027E+02  0.47787268628E+02  0.19999988983E+02 0.  0.
         12    1    1    2    0    0  0.15650973118E+02 -0.34307469648E+02 -0.21486462027E+02  0.43400731372E+02  0.00000000000E+00 0. -1.
         11    1    3    3    0    0 -0.74422763879E+01  0.11731261127E+02 -0.12724984357E+01  0.13950957602E+02  0.51100000000E-03 0. -1.
        -11    1    3    3    0    0 -0.26671199383E+01  0.11192628827E+02  0.64524364522E+01  0.13191755200E+02  0.51100000000E-03 0.  1.
        -12    1    3    3    0    0 -0.55415767916E+01  0.11383579694E+02  0.16306524010E+02  0.20644555827E+02  0.00000000000E+00 0.  1.
</event>
<event>
 7    1  0.4005571E-009  0.4778727E+02  0.7816164E-02  0.1312668E+00
        -11   -1    0    0    0    0  0.00000000000E+00  0.00000000000E+00  0.45593999997E+02  0.45594000000E+02  0.51100000000E-03 0. -1.
         11   -1    0    0    0    0 -0.00000000000E+00 -0.00000000000E+00 -0.45593999997E+02  0.45594000000E+02  0.51100000000E-03 0.  1.
    9900012    2    1    2    0    0  0.28117738044E+01 -0.19076023954E+02  0.38882159706E+02  0.47787272987E+02  0.20000008858E+02 0.  0.
         12    1    1    2    0    0 -0.28117738044E+01  0.19076023954E+02 -0.38882159706E+02  0.43400727013E+02  0.00000000000E+00 0. -1.
         11    1    3    3    0    0  0.93464576752E+00 -0.11758595278E+01  0.66311459116E+01  0.67991399972E+01  0.51100000000E-03 0. -1.
        -11    1    3    3    0    0 -0.60066887651E+01 -0.14430032329E+02  0.14792545312E+02  0.21520351764E+02  0.51100000000E-03 0.  1.
        -12    1    3    3    0    0  0.78838168021E+01 -0.34701320969E+01  0.17458468482E+02  0.19467781226E+02  0.00000000000E+00 0.  1.
</event>
<event>
 7    1  0.4005571E-009  0.4778727E+02  0.7816164E-02  0.1312668E+00
        -11   -1    0    0    0    0  0.00000000000E+00  0.00000000000E+00  0.45593999997E+02  0.45594000000E+02  0.51100000000E-03 0. -1.
         11   -1    0    0    0    0 -0.00000000000E+00 -0.00000000000E+00 -0.45593999997E+02  0.45594000000E+02  0.51100000000E-03 0.  1.
    9900012    2    1    2    0    0  0.23606761208E+02  0.36391097977E+02  0.14255144976E+01  0.47787270994E+02  0.19999999769E+02 0.  0.
         12    1    1    2    0    0 -0.23606761208E+02 -0.36391097977E+02 -0.14255144976E+01  0.43400729006E+02  0.00000000000E+00 0. -1.
         11    1    3    3    0    0  0.59834361955E+01  0.67332735917E+01 -0.12927620868E+01  0.90999843978E+01  0.51100000000E-03 0. -1.
        -11    1    3    3    0    0  0.98765786220E+01  0.28177526454E+02  0.54283233222E+01  0.30347759335E+02  0.51100000000E-03 0.  1.
         12    1    3    3    0    0  0.77467463910E+01  0.14802979313E+01 -0.27100467379E+01  0.83395272608E+01  0.00000000000E+00 0. -1.
</event>
<event>
 7    1  0.4005571E-009  0.4778727E+02  0.7816164E-02  0.1312668E+00
        -11   -1    0    0    0    0  0.00000000000E+00  0.00000000000E+00  0.45593999997E+02  0.45594000000E+02  0.51100000000E-03 0. -1.
         11   -1    0    0    0    0 -0.00000000000E+00 -0.00000000000E+00 -0.45593999997E+02  0.45594000000E+02  0.51100000000E-03 0.  1.
    9900012    2    1    2    0    0  0.34982102674E+02  0.24695405253E+02 -0.70720029543E+01  0.47787265284E+02  0.19999973736E+02 0.  0.
         12    1    1    2    0    0 -0.34982102674E+02 -0.24695405253E+02  0.70720029543E+01  0.43400734716E+02  0.00000000000E+00 0. -1.
         11    1    3    3    0    0  0.35958138527E+01  0.24411008712E+01  0.33992996933E+01  0.55176162781E+01  0.51100000000E-03 0. -1.
        -11    1    3    3    0    0  0.23582178730E+02  0.18449815300E+02 -0.17952874452E+01  0.29995631274E+02  0.51100000000E-03 0.  1.
        -12    1    3    3    0    0  0.78041100906E+01  0.38044890820E+01 -0.86760152024E+01  0.12274017731E+02  0.00000000000E+00 0.  1.
</event>
<event>
 7    1  0.4005571E-009  0.4778727E+02  0.7816164E-02  0.1312668E+00
        -11   -1    0    0    0    0  0.00000000000E+00  0.00000000000E+00  0.45593999997E+02  0.45594000000E+02  0.51100000000E-03 0.  1.
         11   -1    0    0    0    0 -0.00000000000E+00 -0.00000000000E+00 -0.45593999997E+02  0.45594000000E+02  0.51100000000E-03 0. -1.
    9900012    2    1    2    0    0 -0.18225476451E+02 -0.49547555208E+01  0.39075637383E+02  0.47787273842E+02  0.20000012756E+02 0.  0.
         12    1    1    2    0    0  0.18225476451E+02  0.49547555208E+01 -0.39075637383E+02  0.43400726158E+02  0.00000000000E+00 0. -1.
         11    1    3    3    0    0 -0.70730732936E+01 -0.25177529554E+01  0.62348171588E+01  0.97591183529E+01  0.51100000000E-03 0. -1.
        -11    1    3    3    0    0 -0.19713227986E+01  0.56890216264E+01  0.59054740874E+01  0.84336056998E+01  0.51100000000E-03 0.  1.
        -12    1    3    3    0    0 -0.91810803585E+01 -0.81260241918E+01  0.26935346137E+02  0.29594549789E+02  0.00000000000E+00 0.  1.
</event>
<event>
 7    1  0.4005571E-009  0.4778727E+02  0.7816164E-02  0.1312668E+00
        -11   -1    0    0    0    0  0.00000000000E+00  0.00000000000E+00  0.45593999997E+02  0.45594000000E+02  0.51100000000E-03 0.  1.
         11   -1    0    0    0    0 -0.00000000000E+00 -0.00000000000E+00 -0.45593999997E+02  0.45594000000E+02  0.51100000000E-03 0. -1.
    9900012    2    1    2    0    0  0.40237305032E+02  0.13981575217E+02  0.83125393178E+01  0.47787268765E+02  0.19999989608E+02 0.  0.
         12    1    1    2    0    0 -0.40237305032E+02 -0.13981575217E+02 -0.83125393178E+01  0.43400731235E+02  0.00000000000E+00 0. -1.
         11    1    3    3    0    0  0.61281779815E+01  0.52256854925E+01  0.24877651977E+01  0.84291951086E+01  0.51100000000E-03 0. -1.
        -11    1    3    3    0    0  0.31204654236E+02  0.74733457610E+01 -0.70767668697E+00  0.32094892887E+02  0.51100000000E-03 0.  1.
         12    1    3    3    0    0  0.29044728148E+01  0.12825439634E+01  0.65324508070E+01  0.72631807699E+01  0.00000000000E+00 0. -1.
</event>
<event>
 7    1  0.4005571E-009  0.4778727E+02  0.7816164E-02  0.1312668E+00
        -11   -1    0    0    0    0  0.00000000000E+00  0.00000000000E+00  0.45593999997E+02  0.45594000000E+02  0.51100000000E-03 0.  1.
         11   -1    0    0    0    0 -0.00000000000E+00 -0.00000000000E+00 -0.45593999997E+02  0.45594000000E+02  0.51100000000E-03 0. -1.
    9900012    2    1    2    0    0 -0.27051137403E+02  0.16545159094E+02  0.29633039225E+02  0.47787270306E+02  0.19999996634E+02 0.  0.
         12    1    1    2    0    0  0.27051137403E+02 -0.16545159094E+02 -0.29633039225E+02  0.43400729694E+02  0.00000000000E+00 0. -1.
         11    1    3    3    0    0 -0.17458977604E+02  0.38362614402E+01  0.14381160740E+02  0.22942331732E+02  0.51100000000E-03 0. -1.
        -11    1    3    3    0    0 -0.37481083057E+01  0.15696460249E+01  0.10736744303E+02  0.11479973127E+02  0.51100000000E-03 0.  1.
         12    1    3    3    0    0 -0.58440514934E+01  0.11139251629E+02  0.45151341818E+01  0.13364965447E+02  0.00000000000E+00 0. -1.
</event>
<event>
 7    1  0.4005571E-009  0.4778726E+02  0.7816164E-02  0.1312668E+00
        -11   -1    0    0    0    0  0.00000000000E+00  0.00000000000E+00  0.45593999997E+02  0.45594000000E+02  0.51100000000E-03 0.  1.
         11   -1    0    0    0    0 -0.00000000000E+00 -0.00000000000E+00 -0.45593999997E+02  0.45594000000E+02  0.51100000000E-03 0. -1.
    9900012    2    1    2    0    0  0.97593580534E+01  0.15105183610E+02  0.39499526865E+02  0.47787259637E+02  0.19999947987E+02 0.  0.
         12    1    1    2    0    0 -0.97593580534E+01 -0.15105183610E+02 -0.39499526865E+02  0.43400740363E+02  0.00000000000E+00 0. -1.
         11    1    3    3    0    0  0.21579441100E+01  0.36059682564E+01  0.93278389893E+00  0.43046272674E+01  0.51100000000E-03 0. -1.
        -11    1    3    3    0    0  0.43624588009E+01  0.61797064762E+01  0.43960302096E+01  0.87489942729E+01  0.51100000000E-03 0.  1.
        -12    1    3    3    0    0  0.32389551425E+01  0.53195088776E+01  0.34170712757E+02  0.34733638096E+02  0.00000000000E+00 0.  1.
</event>
<event>
 7    1  0.4005571E-009  0.4778727E+02  0.7816164E-02  0.1312668E+00
        -11   -1    0    0    0    0  0.00000000000E+00  0.00000000000E+00  0.45593999997E+02  0.45594000000E+02  0.51100000000E-03 0.  1.
         11   -1    0    0    0    0 -0.00000000000E+00 -0.00000000000E+00 -0.45593999997E+02  0.45594000000E+02  0.51100000000E-03 0. -1.
    9900012    2    1    2    0    0  0.28011051499E+01 -0.45590118610E+01  0.43069621049E+02  0.47787273779E+02  0.20000012466E+02 0.  0.
         12    1    1    2    0    0 -0.28011051499E+01  0.45590118610E+01 -0.43069621049E+02  0.43400726221E+02  0.00000000000E+00 0. -1.
         11    1    3    3    0    0 -0.23973142824E+01 -0.54063235405E+01  0.15098036970E+02  0.16214998323E+02  0.51100000000E-03 0. -1.
        -11    1    3    3    0    0  0.94180411315E-01 -0.92649442317E-02  0.26051966792E+02  0.26052138680E+02  0.51100000000E-03 0.  1.
         12    1    3    3    0    0  0.51042390210E+01  0.85657662366E+00  0.19196172868E+01  0.55201367758E+01  0.00000000000E+00 0. -1.
</event>
<event>
 7    1  0.4005571E-009  0.4778727E+02  0.7816164E-02  0.1312668E+00
        -11   -1    0    0    0    0  0.00000000000E+00  0.00000000000E+00  0.45593999997E+02  0.45594000000E+02  0.51100000000E-03 0.  1.
         11   -1    0    0    0    0 -0.00000000000E+00 -0.00000000000E+00 -0.45593999997E+02  0.45594000000E+02  0.51100000000E-03 0. -1.
    9900012    2    1    2    0    0  0.13770198936E+01  0.26268548585E+01  0.43299268562E+02  0.47787271801E+02  0.20000003449E+02 0.  0.
         12    1    1    2    0    0 -0.13770198936E+01 -0.26268548585E+01 -0.43299268562E+02  0.43400728199E+02  0.00000000000E+00 0. -1.
         11    1    3    3    0    0  0.22875821182E+01  0.57026950292E+01  0.12139308515E+02  0.13605755181E+02  0.51100000000E-03 0. -1.
        -11    1    3    3    0    0 -0.46243913038E+01  0.30299761407E+01  0.66348823560E+01  0.86364005513E+01  0.51100000000E-03 0.  1.
         12    1    3    3    0    0  0.37138290792E+01 -0.61058163114E+01  0.24525077690E+02  0.25545116069E+02  0.00000000000E+00 0. -1.
</event>
<event>
 7    1  0.4005571E-009  0.4778727E+02  0.7816164E-02  0.1312668E+00
        -11   -1    0    0    0    0  0.00000000000E+00  0.00000000000E+00  0.45593999997E+02  0.45594000000E+02  0.51100000000E-03 0.  1.
         11   -1    0    0    0    0 -0.00000000000E+00 -0.00000000000E+00 -0.45593999997E+02  0.45594000000E+02  0.51100000000E-03 0. -1.
    9900012    2    1    2    0    0  0.33868160219E+02  0.24508171464E+02 -0.11658490376E+02  0.47787272552E+02  0.20000006875E+02 0.  0.
         12    1    1    2    0    0 -0.33868160219E+02 -0.24508171464E+02  0.11658490376E+02  0.43400727448E+02  0.00000000000E+00 0. -1.
         11    1    3    3    0    0  0.37349328515E+01  0.49809563494E+01  0.18712637108E+01  0.65008674572E+01  0.51100000000E-03 0. -1.
        -11    1    3    3    0    0  0.53810298562E+01  0.86482397545E+01  0.15892163800E+01  0.10308886561E+02  0.51100000000E-03 0.  1.
        -12    1    3    3    0    0  0.24752197512E+02  0.10878975360E+02 -0.15118970467E+02  0.30977518534E+02  0.00000000000E+00 0.  1.
</event>
<event>
 7    1  0.4005571E-009  0.4778727E+02  0.7816164E-02  0.1312668E+00
        -11   -1    0    0    0    0  0.00000000000E+00  0.00000000000E+00  0.45593999997E+02  0.45594000000E+02  0.51100000000E-03 0.  1.
         11   -1    0    0    0    0 -0.00000000000E+00 -0.00000000000E+00 -0.45593999997E+02  0.45594000000E+02  0.51100000000E-03 0. -1.
    9900012    2    1    2    0    0  0.22033786782E+02 -0.19351420545E+02  0.31994652622E+02  0.47787273814E+02  0.20000012627E+02 0.  0.
         12    1    1    2    0    0 -0.22033786782E+02  0.19351420545E+02 -0.31994652622E+02  0.43400726186E+02  0.00000000000E+00 0. -1.
         11    1    3    3    0    0  0.37194444346E+01  0.53001175853E+00 -0.12131288801E+01  0.39480199223E+01  0.51100000000E-03 0. -1.
        -11    1    3    3    0    0  0.15279957428E+01 -0.58211640007E+01  0.35959266265E+01  0.70108066495E+01  0.51100000000E-03 0.  1.
        -12    1    3    3    0    0  0.16786346605E+02 -0.14060268303E+02  0.29611854876E+02  0.36828447242E+02  0.00000000000E+00 0.  1.
</event>
<event>
 7    1  0.4005571E-009  0.4778728E+02  0.7816164E-02  0.1312668E+00
        -11   -1    0    0    0    0  0.00000000000E+00  0.00000000000E+00  0.45593999997E+02  0.45594000000E+02  0.51100000000E-03 0.  1.
         11   -1    0    0    0    0 -0.00000000000E+00 -0.00000000000E+00 -0.45593999997E+02  0.45594000000E+02  0.51100000000E-03 0. -1.
    9900012    2    1    2    0    0 -0.12543992729E+02 -0.24448315391E+02  0.33593912732E+02  0.47787275908E+02  0.20000022175E+02 0.  0.
         12    1    1    2    0    0  0.12543992729E+02  0.24448315391E+02 -0.33593912732E+02  0.43400724092E+02  0.00000000000E+00 0. -1.
         11    1    3    3    0    0 -0.18913179586E+01 -0.36114173095E+01  0.26018397404E+01  0.48362163826E+01  0.51100000000E-03 0. -1.
        -11    1    3    3    0    0 -0.73685457582E+01  0.73264402373E+00  0.46378595331E+01  0.87373894938E+01  0.51100000000E-03 0.  1.
        -12    1    3    3    0    0 -0.32841290123E+01 -0.21569542105E+02  0.26354213459E+02  0.34213670032E+02  0.00000000000E+00 0.  1.
</event>
<event>
 7    1  0.4005571E-009  0.4778727E+02  0.7816164E-02  0.1312668E+00
        -11   -1    0    0    0    0  0.00000000000E+00  0.00000000000E+00  0.45593999997E+02  0.45594000000E+02  0.51100000000E-03 0. -1.
         11   -1    0    0    0    0 -0.00000000000E+00 -0.00000000000E+00 -0.45593999997E+02  0.45594000000E+02  0.51100000000E-03 0.  1.
    9900012    2    1    2    0    0  0.13570869233E+02 -0.22978147039E+02  0.34226587719E+02  0.47787273739E+02  0.20000012285E+02 0.  0.
         12    1    1    2    0    0 -0.13570869233E+02  0.22978147039E+02 -0.34226587719E+02  0.43400726261E+02  0.00000000000E+00 0. -1.
         11    1    3    3    0    0 -0.24422647010E+00 -0.23132111035E+01 -0.54927459587E+00  0.23900407990E+01  0.51100000000E-03 0. -1.
        -11    1    3    3    0    0  0.11933789786E+02 -0.62771728050E+01  0.10397074235E+02  0.17026960680E+02  0.51100000000E-03 0.  1.
         12    1    3    3    0    0  0.18813059171E+01 -0.14387763130E+02  0.24378788080E+02  0.28370272260E+02  0.00000000000E+00 0. -1.
</event>
<event>
 7    1  0.4005571E-009  0.4778727E+02  0.7816164E-02  0.1312668E+00
        -11   -1    0    0    0    0  0.00000000000E+00  0.00000000000E+00  0.45593999997E+02  0.45594000000E+02  0.51100000000E-03 0.  1.
         11   -1    0    0    0    0 -0.00000000000E+00 -0.00000000000E+00 -0.45593999997E+02  0.45594000000E+02  0.51100000000E-03 0. -1.
    9900012    2    1    2    0    0  0.22952977773E+02 -0.16395665667E+02  0.32984333160E+02  0.47787271028E+02  0.19999999925E+02 0.  0.
         12    1    1    2    0    0 -0.22952977773E+02  0.16395665667E+02 -0.32984333160E+02  0.43400728972E+02  0.00000000000E+00 0. -1.
         11    1    3    3    0    0  0.19108471225E+00  0.16608396484E+01  0.10572397810E+01  0.19780439633E+01  0.51100000000E-03 0. -1.
        -11    1    3    3    0    0  0.91687176063E+01 -0.10287089812E+02  0.25296305120E+02  0.28806121785E+02  0.51100000000E-03 0.  1.
        -12    1    3    3    0    0  0.13593175455E+02 -0.77694155034E+01  0.66307882589E+01  0.17003105279E+02  0.00000000000E+00 0.  1.
</event>
<event>
 7    1  0.4005571E-009  0.4778728E+02  0.7816164E-02  0.1312668E+00
        -11   -1    0    0    0    0  0.00000000000E+00  0.00000000000E+00  0.45593999997E+02  0.45594000000E+02  0.51100000000E-03 0. -1.
         11   -1    0    0    0    0 -0.00000000000E+00 -0.00000000000E+00 -0.45593999997E+02  0.45594000000E+02  0.51100000000E-03 0.  1.
    9900012    2    1    2    0    0 -0.12377753709E+02 -0.29827199021E+02 -0.28995728997E+02  0.47787275486E+02  0.20000020250E+02 0.  0.
         12    1    1    2    0    0  0.12377753709E+02  0.29827199021E+02  0.28995728997E+02  0.43400724514E+02  0.00000000000E+00 0. -1.
         11    1    3    3    0    0  0.47244407471E+00  0.14632807380E+01 -0.16017018411E+01  0.22203249696E+01  0.51100000000E-03 0. -1.
        -11    1    3    3    0    0  0.87925633900E+00 -0.33463897323E+01 -0.84275581706E+01  0.91101675577E+01  0.51100000000E-03 0.  1.
         12    1    3    3    0    0 -0.13729454122E+02 -0.27944090026E+02 -0.18966468986E+02  0.36456782958E+02  0.00000000000E+00 0. -1.
</event>
<event>
 7    1  0.4005571E-009  0.4778727E+02  0.7816164E-02  0.1312668E+00
        -11   -1    0    0    0    0  0.00000000000E+00  0.00000000000E+00  0.45593999997E+02  0.45594000000E+02  0.51100000000E-03 0. -1.
         11   -1    0    0    0    0 -0.00000000000E+00 -0.00000000000E+00 -0.45593999997E+02  0.45594000000E+02  0.51100000000E-03 0.  1.
    9900012    2    1    2    0    0  0.38509777626E+02 -0.12936490859E+02 -0.15273098513E+02  0.47787270666E+02  0.19999998274E+02 0.  0.
         12    1    1    2    0    0 -0.38509777626E+02  0.12936490859E+02  0.15273098513E+02  0.43400729334E+02  0.00000000000E+00 0. -1.
         11    1    3    3    0    0  0.46791852826E+01 -0.65314614026E+01 -0.66713557271E-01  0.80348748542E+01  0.51100000000E-03 0. -1.
        -11    1    3    3    0    0  0.23643366194E+02 -0.10315949657E+02 -0.10068611481E+02  0.27691235432E+02  0.51100000000E-03 0.  1.
        -12    1    3    3    0    0  0.10187226149E+02  0.39109202005E+01 -0.51377734750E+01  0.12061160380E+02  0.00000000000E+00 0.  1.
</event>
<event>
 7    1  0.4005571E-009  0.4778727E+02  0.7816164E-02  0.1312668E+00
        -11   -1    0    0    0    0  0.00000000000E+00  0.00000000000E+00  0.45593999997E+02  0.45594000000E+02  0.51100000000E-03 0.  1.
         11   -1    0    0    0    0 -0.00000000000E+00 -0.00000000000E+00 -0.45593999997E+02  0.45594000000E+02  0.51100000000E-03 0. -1.
    9900012    2    1    2    0    0  0.11202257294E+01 -0.55337315370E+01  0.43031920454E+02  0.47787271108E+02  0.20000000291E+02 0.  0.
         12    1    1    2    0    0 -0.11202257294E+01  0.55337315370E+01 -0.43031920454E+02  0.43400728892E+02  0.00000000000E+00 0. -1.
         11    1    3    3    0    0  0.85958085812E+01  0.14633413356E+01  0.16791812313E+02  0.18920736087E+02  0.51100000000E-03 0. -1.
        -11    1    3    3    0    0 -0.77053342289E+00 -0.85869368109E+00  0.11436856634E+02  0.11494901762E+02  0.51100000000E-03 0.  1.
         12    1    3    3    0    0 -0.67050494289E+01 -0.61383791914E+01  0.14803251506E+02  0.17371633259E+02  0.00000000000E+00 0. -1.
</event>
<event>
 7    1  0.4005571E-009  0.4778727E+02  0.7816164E-02  0.1312668E+00
        -11   -1    0    0    0    0  0.00000000000E+00  0.00000000000E+00  0.45593999997E+02  0.45594000000E+02  0.51100000000E-03 0.  1.
         11   -1    0    0    0    0 -0.00000000000E+00 -0.00000000000E+00 -0.45593999997E+02  0.45594000000E+02  0.51100000000E-03 0. -1.
    9900012    2    1    2    0    0  0.14776354779E+02  0.19463075924E+02  0.35867414507E+02  0.47787269495E+02  0.19999992934E+02 0.  0.
         12    1    1    2    0    0 -0.14776354779E+02 -0.19463075924E+02 -0.35867414507E+02  0.43400730505E+02  0.00000000000E+00 0. -1.
         11    1    3    3    0    0 -0.21319665604E+01  0.41140180581E+01  0.12982156973E+01  0.48120463687E+01  0.51100000000E-03 0. -1.
        -11    1    3    3    0    0  0.11770729213E+02  0.15318406286E+02  0.31611118406E+02  0.37046814229E+02  0.51100000000E-03 0.  1.
         12    1    3    3    0    0  0.51375921266E+01  0.30651579674E-01  0.29580804038E+01  0.59284088973E+01  0.00000000000E+00 0. -1.
</event>
<event>
 7    1  0.4005571E-009  0.4778728E+02  0.7816164E-02  0.1312668E+00
        -11   -1    0    0    0    0  0.00000000000E+00  0.00000000000E+00  0.45593999997E+02  0.45594000000E+02  0.51100000000E-03 0.  1.
         11   -1    0    0    0    0 -0.00000000000E+00 -0.00000000000E+00 -0.45593999997E+02  0.45594000000E+02  0.51100000000E-03 0. -1.
    9900012    2    1    2    0    0  0.21201965864E+02 -0.11991016065E+02  0.35920955882E+02  0.47787275418E+02  0.20000019941E+02 0.  0.
         12    1    1    2    0    0 -0.21201965864E+02  0.11991016065E+02 -0.35920955882E+02  0.43400724582E+02  0.00000000000E+00 0. -1.
         11    1    3    3    0    0  0.48023938831E+01 -0.52048721993E+00  0.10270525797E+02  0.11349783891E+02  0.51100000000E-03 0. -1.
        -11    1    3    3    0    0  0.15114771578E+02 -0.97109495689E+00  0.17040042603E+02  0.22798298126E+02  0.51100000000E-03 0.  1.
         12    1    3    3    0    0  0.12848004027E+01 -0.10499433888E+02  0.86103874814E+01  0.13639193401E+02  0.00000000000E+00 0. -1.
</event>
<event>
 7    1  0.4005571E-009  0.4778727E+02  0.7816164E-02  0.1312668E+00
        -11   -1    0    0    0    0  0.00000000000E+00  0.00000000000E+00  0.45593999997E+02  0.45594000000E+02  0.51100000000E-03 0. -1.
         11   -1    0    0    0    0 -0.00000000000E+00 -0.00000000000E+00 -0.45593999997E+02  0.45594000000E+02  0.51100000000E-03 0.  1.
    9900012    2    1    2    0    0  0.63737925230E+01 -0.64597400349E+01 -0.42441366823E+02  0.47787273160E+02  0.20000009645E+02 0.  0.
         12    1    1    2    0    0 -0.63737925230E+01  0.64597400349E+01  0.42441366823E+02  0.43400726840E+02  0.00000000000E+00 0. -1.
         11    1    3    3    0    0 -0.42334862022E+01  0.11002368468E+01 -0.12395405683E+02  0.13144542930E+02  0.51100000000E-03 0. -1.
        -11    1    3    3    0    0  0.48653300901E+00 -0.60846437689E+01 -0.17018666678E+02  0.18080227319E+02  0.51100000000E-03 0.  1.
        -12    1    3    3    0    0  0.10120745716E+02 -0.14753331128E+01 -0.13027294462E+02  0.16562502910E+02  0.00000000000E+00 0.  1.
</event>
<event>
 7    1  0.4005571E-009  0.4778727E+02  0.7816164E-02  0.1312668E+00
        -11   -1    0    0    0    0  0.00000000000E+00  0.00000000000E+00  0.45593999997E+02  0.45594000000E+02  0.51100000000E-03 0. -1.
         11   -1    0    0    0    0 -0.00000000000E+00 -0.00000000000E+00 -0.45593999997E+02  0.45594000000E+02  0.51100000000E-03 0.  1.
    9900012    2    1    2    0    0  0.28725445968E+02  0.20003532700E+02  0.25657952712E+02  0.47787273003E+02  0.20000008930E+02 0.  0.
         12    1    1    2    0    0 -0.28725445968E+02 -0.20003532700E+02 -0.25657952712E+02  0.43400726997E+02  0.00000000000E+00 0. -1.
         11    1    3    3    0    0  0.16066867849E+02  0.65058807510E+01  0.79872544951E+01  0.19085779037E+02  0.51100000000E-03 0. -1.
        -11    1    3    3    0    0  0.62930192106E+01  0.37249139836E+01 -0.25308820048E+00  0.73171803906E+01  0.51100000000E-03 0.  1.
         12    1    3    3    0    0  0.63655589078E+01  0.97727379651E+01  0.17923786417E+02  0.21384313575E+02  0.00000000000E+00 0. -1.
</event>
<event>
 7    1  0.4005571E-009  0.4778727E+02  0.7816164E-02  0.1312668E+00
        -11   -1    0    0    0    0  0.00000000000E+00  0.00000000000E+00  0.45593999997E+02  0.45594000000E+02  0.51100000000E-03 0. -1.
         11   -1    0    0    0    0 -0.00000000000E+00 -0.00000000000E+00 -0.45593999997E+02  0.45594000000E+02  0.51100000000E-03 0.  1.
    9900012    2    1    2    0    0  0.98299362023E+01 -0.27608508477E+02 -0.32011966681E+02  0.47787269628E+02  0.19999993542E+02 0.  0.
         12    1    1    2    0    0 -0.98299362023E+01  0.27608508477E+02  0.32011966681E+02  0.43400730372E+02  0.00000000000E+00 0. -1.
         11    1    3    3    0    0 -0.56759532273E+00 -0.47986651617E+01 -0.86182406549E+01  0.98804566712E+01  0.51100000000E-03 0. -1.
        -11    1    3    3    0    0  0.78960891280E+01 -0.12723993686E+01 -0.46870391845E+01  0.92701434859E+01  0.51100000000E-03 0.  1.
        -12    1    3    3    0    0  0.25014423970E+01 -0.21537443946E+02 -0.18706686841E+02  0.28636669471E+02  0.00000000000E+00 0.  1.
</event>
<event>
 7    1  0.4005571E-009  0.4778728E+02  0.7816164E-02  0.1312668E+00
        -11   -1    0    0    0    0  0.00000000000E+00  0.00000000000E+00  0.45593999997E+02  0.45594000000E+02  0.51100000000E-03 0.  1.
         11   -1    0    0    0    0 -0.00000000000E+00 -0.00000000000E+00 -0.45593999997E+02  0.45594000000E+02  0.51100000000E-03 0. -1.
    9900012    2    1    2    0    0 -0.42720646177E+02 -0.21062002118E+01  0.73575179109E+01  0.47787276977E+02  0.20000027050E+02 0.  0.
         12    1    1    2    0    0  0.42720646177E+02  0.21062002118E+01 -0.73575179109E+01  0.43400723023E+02  0.00000000000E+00 0. -1.
         11    1    3    3    0    0 -0.22350085749E+02 -0.56464747403E+00  0.78253473676E+01  0.23687153089E+02  0.51100000000E-03 0. -1.
        -11    1    3    3    0    0 -0.18460304223E+02 -0.16575317835E+01  0.42441903441E+01  0.19014294506E+02  0.51100000000E-03 0.  1.
         12    1    3    3    0    0 -0.19102562047E+01  0.11597904573E+00 -0.47120198007E+01  0.50858293826E+01  0.00000000000E+00 0. -1.
</event>
<event>
 7    1  0.4005571E-009  0.4778728E+02  0.7816164E-02  0.1312668E+00
        -11   -1    0    0    0    0  0.00000000000E+00  0.00000000000E+00  0.45593999997E+02  0.45594000000E+02  0.51100000000E-03 0. -1.
         11   -1    0    0    0    0 -0.00000000000E+00 -0.00000000000E+00 -0.45593999997E+02  0.45594000000E+02  0.51100000000E-03 0.  1.
    9900012    2    1    2    0    0 -0.22648129302E+02  0.35114831227E+02 -0.11731721883E+02  0.47787280751E+02  0.20000044257E+02 0.  0.
         12    1    1    2    0    0  0.22648129302E+02 -0.35114831227E+02  0.11731721883E+02  0.43400719249E+02  0.00000000000E+00 0. -1.
         11    1    3    3    0    0 -0.58671213333E+01  0.25329627395E+01 -0.10355130154E-01  0.63905493089E+01  0.51100000000E-03 0. -1.
        -11    1    3    3    0    0 -0.74687848871E+01  0.10484847674E+02  0.30549104585E+01  0.13230542567E+02  0.51100000000E-03 0.  1.
        -12    1    3    3    0    0 -0.93122230813E+01  0.22097020814E+02 -0.14776277211E+02  0.28166188876E+02  0.00000000000E+00 0.  1.
</event>
<event>
 7    1  0.4005571E-009  0.4778728E+02  0.7816164E-02  0.1312668E+00
        -11   -1    0    0    0    0  0.00000000000E+00  0.00000000000E+00  0.45593999997E+02  0.45594000000E+02  0.51100000000E-03 0.  1.
         11   -1    0    0    0    0 -0.00000000000E+00 -0.00000000000E+00 -0.45593999997E+02  0.45594000000E+02  0.51100000000E-03 0. -1.
    9900012    2    1    2    0    0 -0.27287095813E+02 -0.25542433575E+02  0.22059489820E+02  0.47787278785E+02  0.20000035293E+02 0.  0.
         12    1    1    2    0    0  0.27287095813E+02  0.25542433575E+02 -0.22059489820E+02  0.43400721215E+02  0.00000000000E+00 0. -1.
         11    1    3    3    0    0 -0.47782412326E+01 -0.62100056891E+00 -0.34208148823E+00  0.48305539009E+01  0.51100000000E-03 0. -1.
        -11    1    3    3    0    0 -0.12962924379E+02 -0.11274580394E+02  0.30898713176E+01  0.17455683217E+02  0.51100000000E-03 0.  1.
         12    1    3    3    0    0 -0.95459302014E+01 -0.13646852612E+02  0.19311699991E+02  0.25501041668E+02  0.00000000000E+00 0. -1.
</event>
<event>
 7    1  0.4005571E-009  0.4778725E+02  0.7816164E-02  0.1312668E+00
        -11   -1    0    0    0    0  0.00000000000E+00  0.00000000000E+00  0.45593999997E+02  0.45594000000E+02  0.51100000000E-03 0. -1.
         11   -1    0    0    0    0 -0.00000000000E+00 -0.00000000000E+00 -0.45593999997E+02  0.45594000000E+02  0.51100000000E-03 0.  1.
    9900012    2    1    2    0    0 -0.91318820242E+01 -0.10953731708E+02 -0.40990851538E+02  0.47787246349E+02  0.19999887403E+02 0.  0.
         12    1    1    2    0    0  0.91318820242E+01  0.10953731708E+02  0.40990851538E+02  0.43400753651E+02  0.00000000000E+00 0. -1.
         11    1    3    3    0    0 -0.11318973449E+01 -0.78751110459E+01 -0.12671737054E+02  0.14962335574E+02  0.51100000000E-03 0.  1.
        -11    1    3    3    0    0  0.28589462767E+01 -0.39297029209E+01 -0.14096001066E+02  0.14910177235E+02  0.51100000000E-03 0. -1.
         12    1    3    3    0    0 -0.10858930956E+02  0.85108225875E+00 -0.14223113418E+02  0.17914733540E+02  0.00000000000E+00 0. -1.
</event>
<event>
 7    1  0.4005571E-009  0.4778727E+02  0.7816164E-02  0.1312668E+00
        -11   -1    0    0    0    0  0.00000000000E+00  0.00000000000E+00  0.45593999997E+02  0.45594000000E+02  0.51100000000E-03 0.  1.
         11   -1    0    0    0    0 -0.00000000000E+00 -0.00000000000E+00 -0.45593999997E+02  0.45594000000E+02  0.51100000000E-03 0. -1.
    9900012    2    1    2    0    0 -0.25380887438E+01  0.64845510646E+01  0.42838442954E+02  0.47787268535E+02  0.19999988556E+02 0.  0.
         12    1    1    2    0    0  0.25380887438E+01 -0.64845510646E+01 -0.42838442954E+02  0.43400731465E+02  0.00000000000E+00 0. -1.
         11    1    3    3    0    0 -0.42864062864E+01  0.58066862222E+01  0.19953801880E+02  0.21218979557E+02  0.51100000000E-03 0.  1.
        -11    1    3    3    0    0  0.22360101357E+01  0.12435658158E+01  0.24581514773E+02  0.24714308933E+02  0.51100000000E-03 0. -1.
         12    1    3    3    0    0 -0.48769259315E+00 -0.56570097340E+00 -0.16968736980E+01  0.18539800441E+01  0.00000000000E+00 0. -1.
</event>
<event>
 7    1  0.4005571E-009  0.4778727E+02  0.7816164E-02  0.1312668E+00
        -11   -1    0    0    0    0  0.00000000000E+00  0.00000000000E+00  0.45593999997E+02  0.45594000000E+02  0.51100000000E-03 0.  1.
         11   -1    0    0    0    0 -0.00000000000E+00 -0.00000000000E+00 -0.45593999997E+02  0.45594000000E+02  0.51100000000E-03 0. -1.
    9900012    2    1    2    0    0  0.17542041513E+02 -0.71147599722E+01  0.39054836332E+02  0.47787271079E+02  0.20000000159E+02 0.  0.
         12    1    1    2    0    0 -0.17542041513E+02  0.71147599722E+01 -0.39054836332E+02  0.43400728921E+02  0.00000000000E+00 0. -1.
         11    1    3    3    0    0  0.22374672371E+01 -0.27442335721E+00 -0.60658331509E+00  0.23344188560E+01  0.51100000000E-03 0. -1.
        -11    1    3    3    0    0 -0.16270251818E+01 -0.33804158281E+01  0.14152105701E+02  0.14640919307E+02  0.51100000000E-03 0.  1.
         12    1    3    3    0    0  0.16931599458E+02 -0.34599207869E+01  0.25509313946E+02  0.30811932917E+02  0.00000000000E+00 0. -1.
</event>
<event>
 7    1  0.4005571E-009  0.4778728E+02  0.7816164E-02  0.1312668E+00
        -11   -1    0    0    0    0  0.00000000000E+00  0.00000000000E+00  0.45593999997E+02  0.45594000000E+02  0.51100000000E-03 0.  1.
         11   -1    0    0    0    0 -0.00000000000E+00 -0.00000000000E+00 -0.45593999997E+02  0.45594000000E+02  0.51100000000E-03 0. -1.
    9900012    2    1    2    0    0  0.18106065911E+02  0.18199106424E+02  0.34994074681E+02  0.47787281570E+02  0.20000047991E+02 0.  0.
         12    1    1    2    0    0 -0.18106065911E+02 -0.18199106424E+02 -0.34994074681E+02  0.43400718430E+02  0.00000000000E+00 0. -1.
         11    1    3    3    0    0  0.70762668810E+01  0.49275869409E+01  0.13288990141E+01  0.87247142579E+01  0.51100000000E-03 0. -1.
        -11    1    3    3    0    0  0.65069054779E+01  0.35790428964E+01  0.65056478570E+01  0.98728324838E+01  0.51100000000E-03 0.  1.
        -12    1    3    3    0    0  0.45228935526E+01  0.96924765868E+01  0.27159527810E+02  0.29189734828E+02  0.00000000000E+00 0.  1.
</event>
<event>
 7    1  0.4005571E-009  0.4778727E+02  0.7816164E-02  0.1312668E+00
        -11   -1    0    0    0    0  0.00000000000E+00  0.00000000000E+00  0.45593999997E+02  0.45594000000E+02  0.51100000000E-03 0.  1.
         11   -1    0    0    0    0 -0.00000000000E+00 -0.00000000000E+00 -0.45593999997E+02  0.45594000000E+02  0.51100000000E-03 0. -1.
    9900012    2    1    2    0    0  0.33159483775E+02 -0.15028189033E+02  0.23626797549E+02  0.47787269681E+02  0.19999993782E+02 0.  0.
         12    1    1    2    0    0 -0.33159483775E+02  0.15028189033E+02 -0.23626797549E+02  0.43400730319E+02  0.00000000000E+00 0. -1.
         11    1    3    3    0    0  0.71114260417E+00 -0.46708287569E+00 -0.12486123527E+01  0.15109345733E+01  0.51100000000E-03 0. -1.
        -11    1    3    3    0    0  0.25375252158E+02 -0.17945240180E+02  0.18485716064E+02  0.36161537106E+02  0.51100000000E-03 0.  1.
        -12    1    3    3    0    0  0.70730890128E+01  0.33841340230E+01  0.63896938370E+01  0.10114798001E+02  0.00000000000E+00 0.  1.
</event>
<event>
 7    1  0.4005571E-009  0.4778728E+02  0.7816164E-02  0.1312668E+00
        -11   -1    0    0    0    0  0.00000000000E+00  0.00000000000E+00  0.45593999997E+02  0.45594000000E+02  0.51100000000E-03 0.  1.
         11   -1    0    0    0    0 -0.00000000000E+00 -0.00000000000E+00 -0.45593999997E+02  0.45594000000E+02  0.51100000000E-03 0. -1.
    9900012    2    1    2    0    0  0.21757018870E+02 -0.36746995204E+00  0.37551564815E+02  0.47787275071E+02  0.20000018360E+02 0.  0.
         12    1    1    2    0    0 -0.21757018870E+02  0.36746995204E+00 -0.37551564815E+02  0.43400724929E+02  0.00000000000E+00 0. -1.
         11    1    3    3    0    0  0.10867920861E+02  0.25413807719E+01  0.21181498207E+02  0.23942142482E+02  0.51100000000E-03 0. -1.
        -11    1    3    3    0    0  0.47604298721E+01 -0.29852113173E+01  0.16786389368E+02  0.17701865649E+02  0.51100000000E-03 0.  1.
         12    1    3    3    0    0  0.61286681367E+01  0.76360593334E-01 -0.41632275932E+00  0.61432669411E+01  0.00000000000E+00 0. -1.
</event>
<event>
 7    1  0.4005571E-009  0.4778727E+02  0.7816164E-02  0.1312668E+00
        -11   -1    0    0    0    0  0.00000000000E+00  0.00000000000E+00  0.45593999997E+02  0.45594000000E+02  0.51100000000E-03 0.  1.
         11   -1    0    0    0    0 -0.00000000000E+00 -0.00000000000E+00 -0.45593999997E+02  0.45594000000E+02  0.51100000000E-03 0. -1.
    9900012    2    1    2    0    0 -0.53249029600E+01 -0.34977205543E+02  0.25136910494E+02  0.47787265348E+02  0.19999974028E+02 0.  0.
         12    1    1    2    0    0  0.53249029600E+01  0.34977205543E+02 -0.25136910494E+02  0.43400734652E+02  0.00000000000E+00 0. -1.
         11    1    3    3    0    0  0.14682514034E+01 -0.63571904167E+01 -0.10991039592E+01  0.66164689943E+01  0.51100000000E-03 0. -1.
        -11    1    3    3    0    0 -0.24104932655E+01 -0.37475408343E+00  0.10275800143E+00  0.24416137847E+01  0.51100000000E-03 0.  1.
        -12    1    3    3    0    0 -0.43826610980E+01 -0.28245261043E+02  0.26133256452E+02  0.38729182569E+02  0.00000000000E+00 0.  1.
</event>
<event>
 7    1  0.4005571E-009  0.4778727E+02  0.7816164E-02  0.1312668E+00
        -11   -1    0    0    0    0  0.00000000000E+00  0.00000000000E+00  0.45593999997E+02  0.45594000000E+02  0.51100000000E-03 0.  1.
         11   -1    0    0    0    0 -0.00000000000E+00 -0.00000000000E+00 -0.45593999997E+02  0.45594000000E+02  0.51100000000E-03 0. -1.
    9900012    2    1    2    0    0 -0.19685409677E+02 -0.37714743789E+01  0.38495242526E+02  0.47787273390E+02  0.20000010694E+02 0.  0.
         12    1    1    2    0    0  0.19685409677E+02  0.37714743789E+01 -0.38495242526E+02  0.43400726610E+02  0.00000000000E+00 0. -1.
         11    1    3    3    0    0 -0.28813161354E+01 -0.36727021266E+01  0.38036740858E+01  0.60215164531E+01  0.51100000000E-03 0. -1.
        -11    1    3    3    0    0 -0.11288260956E+02 -0.13429313275E+01  0.34257874521E+02  0.36094740156E+02  0.51100000000E-03 0.  1.
         12    1    3    3    0    0 -0.55158325856E+01  0.12441590752E+01  0.43369391922E+00  0.56710167811E+01  0.00000000000E+00 0. -1.
</event>
<event>
 7    1  0.4005571E-009  0.4778727E+02  0.7816164E-02  0.1312668E+00
        -11   -1    0    0    0    0  0.00000000000E+00  0.00000000000E+00  0.45593999997E+02  0.45594000000E+02  0.51100000000E-03 0.  1.
         11   -1    0    0    0    0 -0.00000000000E+00 -0.00000000000E+00 -0.45593999997E+02  0.45594000000E+02  0.51100000000E-03 0. -1.
    9900012    2    1    2    0    0  0.24683547836E+02  0.25679336102E+02  0.24797524944E+02  0.47787273280E+02  0.20000010193E+02 0.  0.
         12    1    1    2    0    0 -0.24683547836E+02 -0.25679336102E+02 -0.24797524944E+02  0.43400726720E+02  0.00000000000E+00 0. -1.
         11    1    3    3    0    0  0.95072195895E+01  0.59513831031E+01  0.10456391472E+02  0.15334350590E+02  0.51100000000E-03 0. -1.
        -11    1    3    3    0    0  0.31608558010E+01  0.15245260926E+02  0.11396426595E+02  0.19294753937E+02  0.51100000000E-03 0.  1.
         12    1    3    3    0    0  0.12015472446E+02  0.44826920734E+01  0.29447068775E+01  0.13158168752E+02  0.00000000000E+00 0. -1.
</event>
<event>
 7    1  0.4005571E-009  0.4778727E+02  0.7816164E-02  0.1312668E+00
        -11   -1    0    0    0    0  0.00000000000E+00  0.00000000000E+00  0.45593999997E+02  0.45594000000E+02  0.51100000000E-03 0.  1.
         11   -1    0    0    0    0 -0.00000000000E+00 -0.00000000000E+00 -0.45593999997E+02  0.45594000000E+02  0.51100000000E-03 0. -1.
    9900012    2    1    2    0    0  0.19285671809E+02  0.64298999815E+01  0.38345045048E+02  0.47787271543E+02  0.20000002272E+02 0.  0.
         12    1    1    2    0    0 -0.19285671809E+02 -0.64298999815E+01 -0.38345045048E+02  0.43400728457E+02  0.00000000000E+00 0. -1.
         11    1    3    3    0    0  0.53495856084E+01  0.87902330939E+01  0.16551974879E+02  0.19489847016E+02  0.51100000000E-03 0. -1.
        -11    1    3    3    0    0  0.38823796326E+01 -0.87977163185E+00  0.16232359131E+02  0.16713358518E+02  0.51100000000E-03 0.  1.
         12    1    3    3    0    0  0.10053706568E+02 -0.14805614805E+01  0.55607110374E+01  0.11584066009E+02  0.00000000000E+00 0. -1.
</event>
<event>
 7    1  0.4005571E-009  0.4778727E+02  0.7816164E-02  0.1312668E+00
        -11   -1    0    0    0    0  0.00000000000E+00  0.00000000000E+00  0.45593999997E+02  0.45594000000E+02  0.51100000000E-03 0. -1.
         11   -1    0    0    0    0 -0.00000000000E+00 -0.00000000000E+00 -0.45593999997E+02  0.45594000000E+02  0.51100000000E-03 0.  1.
    9900012    2    1    2    0    0 -0.21154340010E+00 -0.33383330837E+02 -0.27733232172E+02  0.47787266192E+02  0.19999977875E+02 0.  0.
         12    1    1    2    0    0  0.21154340010E+00  0.33383330837E+02  0.27733232172E+02  0.43400733808E+02  0.00000000000E+00 0. -1.
         11    1    3    3    0    0  0.62323652151E+01 -0.29139600930E+02 -0.20816053077E+02  0.36349233617E+02  0.51100000000E-03 0. -1.
        -11    1    3    3    0    0 -0.11280595118E+01 -0.35407721184E+01 -0.33005677332E+01  0.49702447705E+01  0.51100000000E-03 0.  1.
         12    1    3    3    0    0 -0.53158491034E+01 -0.70295778821E+00 -0.36166113622E+01  0.64677878047E+01  0.00000000000E+00 0. -1.
</event>
<event>
 7    1  0.4005571E-009  0.4778727E+02  0.7816164E-02  0.1312668E+00
        -11   -1    0    0    0    0  0.00000000000E+00  0.00000000000E+00  0.45593999997E+02  0.45594000000E+02  0.51100000000E-03 0. -1.
         11   -1    0    0    0    0 -0.00000000000E+00 -0.00000000000E+00 -0.45593999997E+02  0.45594000000E+02  0.51100000000E-03 0.  1.
    9900012    2    1    2    0    0 -0.62041002759E+01  0.42938384604E+02  0.11948755023E+01  0.47787268899E+02  0.19999990217E+02 0.  0.
         12    1    1    2    0    0  0.62041002759E+01 -0.42938384604E+02 -0.11948755023E+01  0.43400731101E+02  0.00000000000E+00 0. -1.
         11    1    3    3    0    0 -0.35111742181E+01  0.92455414442E+01 -0.21182900335E+01  0.10114125465E+02  0.51100000000E-03 0.  1.
        -11    1    3    3    0    0 -0.63898954244E+01  0.15988609067E+02 -0.47643810712E+01  0.17865209506E+02  0.51100000000E-03 0. -1.
         12    1    3    3    0    0  0.36969693665E+01  0.17704234093E+02  0.80775466070E+01  0.19807933928E+02  0.00000000000E+00 0. -1.
</event>
<event>
 7    1  0.4005571E-009  0.4778727E+02  0.7816164E-02  0.1312668E+00
        -11   -1    0    0    0    0  0.00000000000E+00  0.00000000000E+00  0.45593999997E+02  0.45594000000E+02  0.51100000000E-03 0. -1.
         11   -1    0    0    0    0 -0.00000000000E+00 -0.00000000000E+00 -0.45593999997E+02  0.45594000000E+02  0.51100000000E-03 0.  1.
    9900012    2    1    2    0    0  0.12601665467E+02  0.29573655570E+02 -0.29158534961E+02  0.47787271464E+02  0.20000001914E+02 0.  0.
         12    1    1    2    0    0 -0.12601665467E+02 -0.29573655570E+02  0.29158534961E+02  0.43400728536E+02  0.00000000000E+00 0. -1.
         11    1    3    3    0    0  0.12025425250E+02  0.84006725310E+01 -0.10815079381E+02  0.18224930554E+02  0.51100000000E-03 0. -1.
        -11    1    3    3    0    0  0.44194639187E+01  0.55539805274E+01 -0.56856822207E+01  0.90942478305E+01  0.51100000000E-03 0.  1.
        -12    1    3    3    0    0 -0.38432237018E+01  0.15619002512E+02 -0.12657773359E+02  0.20468093080E+02  0.00000000000E+00 0.  1.
</event>
<event>
 7    1  0.4005571E-009  0.4778722E+02  0.7816164E-02  0.1312668E+00
        -11   -1    0    0    0    0  0.00000000000E+00  0.00000000000E+00  0.45593999997E+02  0.45594000000E+02  0.51100000000E-03 0.  1.
         11   -1    0    0    0    0 -0.00000000000E+00 -0.00000000000E+00 -0.45593999997E+02  0.45594000000E+02  0.51100000000E-03 0. -1.
    9900012    2    1    2    0    0  0.29463471824E+02  0.33838638991E+01  0.31687239097E+02  0.47787218574E+02  0.19999760765E+02 0.  0.
         12    1    1    2    0    0 -0.29463471824E+02 -0.33838638991E+01 -0.31687239097E+02  0.43400781426E+02  0.00000000000E+00 0. -1.
         11    1    3    3    0    0 -0.24173083057E+00  0.94442572720E+00 -0.16094089705E+01  0.18816405725E+01  0.51100000000E-03 0. -1.
        -11    1    3    3    0    0  0.75892142605E+01  0.72579128480E+00  0.26455013482E+01  0.80697970064E+01  0.51100000000E-03 0.  1.
        -12    1    3    3    0    0  0.22115988394E+02  0.17136468871E+01  0.30651146719E+02  0.37835780995E+02  0.00000000000E+00 0.  1.
</event>
<event>
 7    1  0.4005571E-009  0.4778729E+02  0.7816164E-02  0.1312668E+00
        -11   -1    0    0    0    0  0.00000000000E+00  0.00000000000E+00  0.45593999997E+02  0.45594000000E+02  0.51100000000E-03 0. -1.
         11   -1    0    0    0    0 -0.00000000000E+00 -0.00000000000E+00 -0.45593999997E+02  0.45594000000E+02  0.51100000000E-03 0.  1.
    9900012    2    1    2    0    0 -0.91891561278E+01 -0.40783471447E+02 -0.11657169737E+02  0.47787288716E+02  0.20000080573E+02 0.  0.
         12    1    1    2    0    0  0.91891561278E+01  0.40783471447E+02  0.11657169737E+02  0.43400711284E+02  0.00000000000E+00 0. -1.
         11    1    3    3    0    0 -0.43793773781E+01 -0.20777954764E+02  0.14925515708E+01  0.21286851831E+02  0.51100000000E-03 0. -1.
        -11    1    3    3    0    0 -0.52598440301E+00 -0.10608734167E+02 -0.11733202802E+01  0.10686373611E+02  0.51100000000E-03 0.  1.
        -12    1    3    3    0    0 -0.42837943466E+01 -0.93967825161E+01 -0.11976401028E+02  0.15814063274E+02  0.00000000000E+00 0.  1.
</event>
<event>
 7    1  0.4005571E-009  0.4778728E+02  0.7816164E-02  0.1312668E+00
        -11   -1    0    0    0    0  0.00000000000E+00  0.00000000000E+00  0.45593999997E+02  0.45594000000E+02  0.51100000000E-03 0. -1.
         11   -1    0    0    0    0 -0.00000000000E+00 -0.00000000000E+00 -0.45593999997E+02  0.45594000000E+02  0.51100000000E-03 0.  1.
    9900012    2    1    2    0    0 -0.25017422454E+02 -0.25264459810E+02 -0.24888915692E+02  0.47787280189E+02  0.20000041695E+02 0.  0.
         12    1    1    2    0    0  0.25017422454E+02  0.25264459810E+02  0.24888915692E+02  0.43400719811E+02  0.00000000000E+00 0. -1.
         11    1    3    3    0    0  0.24009140956E+01 -0.47243808376E+00  0.31179467104E+00  0.24667392272E+01  0.51100000000E-03 0. -1.
        -11    1    3    3    0    0 -0.71361665408E+01 -0.82944669207E+01 -0.11222775382E+02  0.15673982963E+02  0.51100000000E-03 0.  1.
         12    1    3    3    0    0 -0.20282170009E+02 -0.16497554806E+02 -0.13977934981E+02  0.29646557999E+02  0.00000000000E+00 0. -1.
</event>
<event>
 7    1  0.4005571E-009  0.4778726E+02  0.7816164E-02  0.1312668E+00
        -11   -1    0    0    0    0  0.00000000000E+00  0.00000000000E+00  0.45593999997E+02  0.45594000000E+02  0.51100000000E-03 0.  1.
         11   -1    0    0    0    0 -0.00000000000E+00 -0.00000000000E+00 -0.45593999997E+02  0.45594000000E+02  0.51100000000E-03 0. -1.
    9900012    2    1    2    0    0  0.43328024569E+01  0.16483002099E+02  0.39914430456E+02  0.47787259293E+02  0.19999946420E+02 0.  0.
         12    1    1    2    0    0 -0.43328024569E+01 -0.16483002099E+02 -0.39914430456E+02  0.43400740707E+02  0.00000000000E+00 0. -1.
         11    1    3    3    0    0  0.51204066336E+01  0.13207375619E+02  0.12727249703E+02  0.19043009744E+02  0.51100000000E-03 0. -1.
        -11    1    3    3    0    0 -0.22498281898E+01  0.21042304828E+01  0.24493874402E+01  0.39356081998E+01  0.51100000000E-03 0.  1.
        -12    1    3    3    0    0  0.14622240131E+01  0.11713959973E+01  0.24737793312E+02  0.24808641349E+02  0.00000000000E+00 0.  1.
</event>
<event>
 7    1  0.4005571E-009  0.4778726E+02  0.7816164E-02  0.1312668E+00
        -11   -1    0    0    0    0  0.00000000000E+00  0.00000000000E+00  0.45593999997E+02  0.45594000000E+02  0.51100000000E-03 0.  1.
         11   -1    0    0    0    0 -0.00000000000E+00 -0.00000000000E+00 -0.45593999997E+02  0.45594000000E+02  0.51100000000E-03 0. -1.
    9900012    2    1    2    0    0  0.26375720110E+02  0.13539886491E+02  0.31695695768E+02  0.47787259594E+02  0.19999947795E+02 0.  0.
         12    1    1    2    0    0 -0.26375720110E+02 -0.13539886491E+02 -0.31695695768E+02  0.43400740406E+02  0.00000000000E+00 0. -1.
         11    1    3    3    0    0  0.31274607790E+01  0.89350219855E+01  0.11003359420E+02  0.14515148900E+02  0.51100000000E-03 0. -1.
        -11    1    3    3    0    0  0.11057092414E+02  0.67474995696E+01  0.66757004257E+01  0.14572337477E+02  0.51100000000E-03 0.  1.
        -12    1    3    3    0    0  0.12191166917E+02 -0.21426350639E+01  0.14016635922E+02  0.18699773218E+02  0.00000000000E+00 0.  1.
</event>
<event>
 7    1  0.4005571E-009  0.4778727E+02  0.7816164E-02  0.1312668E+00
        -11   -1    0    0    0    0  0.00000000000E+00  0.00000000000E+00  0.45593999997E+02  0.45594000000E+02  0.51100000000E-03 0.  1.
         11   -1    0    0    0    0 -0.00000000000E+00 -0.00000000000E+00 -0.45593999997E+02  0.45594000000E+02  0.51100000000E-03 0. -1.
    9900012    2    1    2    0    0  0.17951044007E+02 -0.23462860066E+02  0.31794305963E+02  0.47787266422E+02  0.19999978925E+02 0.  0.
         12    1    1    2    0    0 -0.17951044007E+02  0.23462860066E+02 -0.31794305963E+02  0.43400733578E+02  0.00000000000E+00 0. -1.
         11    1    3    3    0    0  0.22447513571E+01 -0.12070544729E+01 -0.25651728889E+01  0.36160754095E+01  0.51100000000E-03 0. -1.
        -11    1    3    3    0    0  0.36935267312E+01 -0.65349589744E+01  0.13324627604E+02  0.15293578049E+02  0.51100000000E-03 0.  1.
        -12    1    3    3    0    0  0.12012765919E+02 -0.15720846618E+02  0.21034851248E+02  0.28877612963E+02  0.00000000000E+00 0.  1.
</event>
<event>
 7    1  0.4005571E-009  0.4778727E+02  0.7816164E-02  0.1312668E+00
        -11   -1    0    0    0    0  0.00000000000E+00  0.00000000000E+00  0.45593999997E+02  0.45594000000E+02  0.51100000000E-03 0. -1.
         11   -1    0    0    0    0 -0.00000000000E+00 -0.00000000000E+00 -0.45593999997E+02  0.45594000000E+02  0.51100000000E-03 0.  1.
    9900012    2    1    2    0    0 -0.30233040713E+02  0.20173421960E+02 -0.23719603204E+02  0.47787270968E+02  0.19999999653E+02 0.  0.
         12    1    1    2    0    0  0.30233040713E+02 -0.20173421960E+02  0.23719603204E+02  0.43400729032E+02  0.00000000000E+00 0. -1.
         11    1    3    3    0    0 -0.35014993802E+01  0.63626090599E+01 -0.33569312959E+01  0.80007674598E+01  0.51100000000E-03 0. -1.
        -11    1    3    3    0    0 -0.39038064235E+01 -0.35871019273E+01 -0.47228412471E+01  0.71001573600E+01  0.51100000000E-03 0.  1.
        -12    1    3    3    0    0 -0.22827734910E+02  0.17397914828E+02 -0.15639830661E+02  0.32686346149E+02  0.00000000000E+00 0.  1.
</event>
<event>
 7    1  0.4005571E-009  0.4778725E+02  0.7816164E-02  0.1312668E+00
        -11   -1    0    0    0    0  0.00000000000E+00  0.00000000000E+00  0.45593999997E+02  0.45594000000E+02  0.51100000000E-03 0.  1.
         11   -1    0    0    0    0 -0.00000000000E+00 -0.00000000000E+00 -0.45593999997E+02  0.45594000000E+02  0.51100000000E-03 0. -1.
    9900012    2    1    2    0    0  0.28201469489E+02 -0.29940867525E+02  0.13850875890E+02  0.47787248941E+02  0.19999899224E+02 0.  0.
         12    1    1    2    0    0 -0.28201469489E+02  0.29940867525E+02 -0.13850875890E+02  0.43400751059E+02  0.00000000000E+00 0. -1.
         11    1    3    3    0    0  0.65634936216E+01  0.21089040909E+00  0.26121213532E+01  0.70673263340E+01  0.51100000000E-03 0. -1.
        -11    1    3    3    0    0  0.14665142474E+02 -0.10441570566E+02  0.73953172787E+01  0.19462361562E+02  0.51100000000E-03 0.  1.
        -12    1    3    3    0    0  0.69728333938E+01 -0.19710187369E+02  0.38434372579E+01  0.21257561045E+02  0.00000000000E+00 0.  1.
</event>
<event>
 7    1  0.4005571E-009  0.4778727E+02  0.7816164E-02  0.1312668E+00
        -11   -1    0    0    0    0  0.00000000000E+00  0.00000000000E+00  0.45593999997E+02  0.45594000000E+02  0.51100000000E-03 0.  1.
         11   -1    0    0    0    0 -0.00000000000E+00 -0.00000000000E+00 -0.45593999997E+02  0.45594000000E+02  0.51100000000E-03 0. -1.
    9900012    2    1    2    0    0 -0.71806202494E+01 -0.34021289375E+02  0.25973333642E+02  0.47787268458E+02  0.19999988207E+02 0.  0.
         12    1    1    2    0    0  0.71806202494E+01  0.34021289375E+02 -0.25973333642E+02  0.43400731542E+02  0.00000000000E+00 0. -1.
         11    1    3    3    0    0 -0.38617273720E+00 -0.65077475982E-01 -0.15125221191E+01  0.15623981191E+01  0.51100000000E-03 0. -1.
        -11    1    3    3    0    0 -0.16091944987E+01 -0.10019741157E+01 -0.11866700424E+01  0.22364358059E+01  0.51100000000E-03 0.  1.
        -12    1    3    3    0    0 -0.51852530135E+01 -0.32954237783E+02  0.28672525804E+02  0.43988434533E+02  0.00000000000E+00 0.  1.
</event>
<event>
 7    1  0.4005571E-009  0.4778727E+02  0.7816164E-02  0.1312668E+00
        -11   -1    0    0    0    0  0.00000000000E+00  0.00000000000E+00  0.45593999997E+02  0.45594000000E+02  0.51100000000E-03 0.  1.
         11   -1    0    0    0    0 -0.00000000000E+00 -0.00000000000E+00 -0.45593999997E+02  0.45594000000E+02  0.51100000000E-03 0. -1.
    9900012    2    1    2    0    0 -0.28096826031E+02  0.21103543142E+02  0.25472180364E+02  0.47787272602E+02  0.20000007102E+02 0.  0.
         12    1    1    2    0    0  0.28096826031E+02 -0.21103543142E+02 -0.25472180364E+02  0.43400727398E+02  0.00000000000E+00 0. -1.
         11    1    3    3    0    0 -0.11390614523E+02  0.15238645631E+01  0.69404906525E+01  0.13425299742E+02  0.51100000000E-03 0. -1.
        -11    1    3    3    0    0 -0.11047286322E+02  0.50188438650E+01  0.33720310682E+01  0.12593725525E+02  0.51100000000E-03 0.  1.
        -12    1    3    3    0    0 -0.56589251865E+01  0.14560834714E+02  0.15159658644E+02  0.21768247335E+02  0.00000000000E+00 0.  1.
</event>
<event>
 7    1  0.4005571E-009  0.4778727E+02  0.7816164E-02  0.1312668E+00
        -11   -1    0    0    0    0  0.00000000000E+00  0.00000000000E+00  0.45593999997E+02  0.45594000000E+02  0.51100000000E-03 0. -1.
         11   -1    0    0    0    0 -0.00000000000E+00 -0.00000000000E+00 -0.45593999997E+02  0.45594000000E+02  0.51100000000E-03 0.  1.
    9900012    2    1    2    0    0  0.39946724074E+02 -0.53161855249E+01 -0.16112745410E+02  0.47787272386E+02  0.20000006118E+02 0.  0.
         12    1    1    2    0    0 -0.39946724074E+02  0.53161855249E+01  0.16112745410E+02  0.43400727614E+02  0.00000000000E+00 0. -1.
         11    1    3    3    0    0  0.91953889508E+01 -0.30874104034E+01  0.76250880418E+00  0.97297842162E+01  0.51100000000E-03 0. -1.
        -11    1    3    3    0    0  0.16069386045E+02 -0.37349163500E+01 -0.12211332802E+01  0.16542851470E+02  0.51100000000E-03 0.  1.
        -12    1    3    3    0    0  0.14681949078E+02  0.15061412285E+01 -0.15654120934E+02  0.21514636700E+02  0.00000000000E+00 0.  1.
</event>
<event>
 7    1  0.4005571E-009  0.4778727E+02  0.7816164E-02  0.1312668E+00
        -11   -1    0    0    0    0  0.00000000000E+00  0.00000000000E+00  0.45593999997E+02  0.45594000000E+02  0.51100000000E-03 0.  1.
         11   -1    0    0    0    0 -0.00000000000E+00 -0.00000000000E+00 -0.45593999997E+02  0.45594000000E+02  0.51100000000E-03 0. -1.
    9900012    2    1    2    0    0 -0.48271132228E+01  0.13336839381E+02  0.41017689778E+02  0.47787272109E+02  0.20000004856E+02 0.  0.
         12    1    1    2    0    0  0.48271132228E+01 -0.13336839381E+02 -0.41017689778E+02  0.43400727891E+02  0.00000000000E+00 0. -1.
         11    1    3    3    0    0 -0.52064697477E+01  0.48541146561E+00  0.27306568237E+01  0.58991048875E+01  0.51100000000E-03 0.  1.
        -11    1    3    3    0    0 -0.60595629536E+00  0.27557438342E+01  0.25065228167E+02  0.25223540006E+02  0.51100000000E-03 0. -1.
         12    1    3    3    0    0  0.98531282025E+00  0.10095684081E+02  0.13221804787E+02  0.16664627216E+02  0.00000000000E+00 0. -1.
</event>
<event>
 7    1  0.4005571E-009  0.4778729E+02  0.7816164E-02  0.1312668E+00
        -11   -1    0    0    0    0  0.00000000000E+00  0.00000000000E+00  0.45593999997E+02  0.45594000000E+02  0.51100000000E-03 0.  1.
         11   -1    0    0    0    0 -0.00000000000E+00 -0.00000000000E+00 -0.45593999997E+02  0.45594000000E+02  0.51100000000E-03 0. -1.
    9900012    2    1    2    0    0 -0.40244880285E+02 -0.74449802919E+01  0.14441044492E+02  0.47787287025E+02  0.20000072862E+02 0.  0.
         12    1    1    2    0    0  0.40244880285E+02  0.74449802919E+01 -0.14441044492E+02  0.43400712975E+02  0.00000000000E+00 0. -1.
         11    1    3    3    0    0  0.61052276025E+00 -0.47381630892E+00  0.43074667597E+01  0.43762438326E+01  0.51100000000E-03 0. -1.
        -11    1    3    3    0    0 -0.10202859635E+02  0.17285594399E+01  0.25509673035E+01  0.10658034383E+02  0.51100000000E-03 0.  1.
        -12    1    3    3    0    0 -0.30652543410E+02 -0.86997234228E+01  0.75826104289E+01  0.32753008809E+02  0.00000000000E+00 0.  1.
</event>
<event>
 7    1  0.4005571E-009  0.4778727E+02  0.7816164E-02  0.1312668E+00
        -11   -1    0    0    0    0  0.00000000000E+00  0.00000000000E+00  0.45593999997E+02  0.45594000000E+02  0.51100000000E-03 0.  1.
         11   -1    0    0    0    0 -0.00000000000E+00 -0.00000000000E+00 -0.45593999997E+02  0.45594000000E+02  0.51100000000E-03 0. -1.
    9900012    2    1    2    0    0 -0.10224589463E+02 -0.14692420746E+01  0.42153556463E+02  0.47787271614E+02  0.20000002597E+02 0.  0.
         12    1    1    2    0    0  0.10224589463E+02  0.14692420746E+01 -0.42153556463E+02  0.43400728386E+02  0.00000000000E+00 0. -1.
         11    1    3    3    0    0  0.99412531684E+00 -0.40262232928E+01  0.41818256242E+01  0.58895182283E+01  0.51100000000E-03 0. -1.
        -11    1    3    3    0    0 -0.57674995843E+01  0.63537957255E+00  0.31553325366E+01  0.66048377977E+01  0.51100000000E-03 0.  1.
        -12    1    3    3    0    0 -0.54512151959E+01  0.19216016456E+01  0.34816398302E+02  0.35292915588E+02  0.00000000000E+00 0.  1.
</event>
<event>
 7    1  0.4005571E-009  0.4778728E+02  0.7816164E-02  0.1312668E+00
        -11   -1    0    0    0    0  0.00000000000E+00  0.00000000000E+00  0.45593999997E+02  0.45594000000E+02  0.51100000000E-03 0. -1.
         11   -1    0    0    0    0 -0.00000000000E+00 -0.00000000000E+00 -0.45593999997E+02  0.45594000000E+02  0.51100000000E-03 0.  1.
    9900012    2    1    2    0    0  0.32154532496E+02 -0.16164564226E+02 -0.24257267853E+02  0.47787284104E+02  0.20000059543E+02 0.  0.
         12    1    1    2    0    0 -0.32154532496E+02  0.16164564226E+02  0.24257267853E+02  0.43400715896E+02  0.00000000000E+00 0. -1.
         11    1    3    3    0    0  0.53843843043E+01 -0.16326383539E+01 -0.86948183783E+00  0.56932505003E+01  0.51100000000E-03 0. -1.
        -11    1    3    3    0    0  0.26594863640E+02 -0.17507102179E+02 -0.22488438928E+02  0.38980960538E+02  0.51100000000E-03 0.  1.
         12    1    3    3    0    0  0.17528455089E+00  0.29751763069E+01 -0.89934708689E+00  0.31130730659E+01  0.00000000000E+00 0. -1.
</event>
<event>
 7    1  0.4005571E-009  0.4778726E+02  0.7816164E-02  0.1312668E+00
        -11   -1    0    0    0    0  0.00000000000E+00  0.00000000000E+00  0.45593999997E+02  0.45594000000E+02  0.51100000000E-03 0.  1.
         11   -1    0    0    0    0 -0.00000000000E+00 -0.00000000000E+00 -0.45593999997E+02  0.45594000000E+02  0.51100000000E-03 0. -1.
    9900012    2    1    2    0    0 -0.36630193921E+02  0.74006991905E+01  0.22069949803E+02  0.47787261072E+02  0.19999954531E+02 0.  0.
         12    1    1    2    0    0  0.36630193921E+02 -0.74006991905E+01 -0.22069949803E+02  0.43400738928E+02  0.00000000000E+00 0. -1.
         11    1    3    3    0    0 -0.20347825995E+02  0.50304584156E+01  0.38921833023E+01  0.21318738840E+02  0.51100000000E-03 0. -1.
        -11    1    3    3    0    0 -0.17002048944E+02  0.39244118319E+01  0.17175784532E+02  0.24484244956E+02  0.51100000000E-03 0.  1.
        -12    1    3    3    0    0  0.71968101827E+00 -0.15541710570E+01  0.10019819689E+01  0.19842772761E+01  0.00000000000E+00 0.  1.
</event>
<event>
 7    1  0.4005571E-009  0.4778727E+02  0.7816164E-02  0.1312668E+00
        -11   -1    0    0    0    0  0.00000000000E+00  0.00000000000E+00  0.45593999997E+02  0.45594000000E+02  0.51100000000E-03 0. -1.
         11   -1    0    0    0    0 -0.00000000000E+00 -0.00000000000E+00 -0.45593999997E+02  0.45594000000E+02  0.51100000000E-03 0.  1.
    9900012    2    1    2    0    0  0.79915894962E+01  0.30964118852E+02  0.29342482175E+02  0.47787269371E+02  0.19999992370E+02 0.  0.
         12    1    1    2    0    0 -0.79915894962E+01 -0.30964118852E+02 -0.29342482175E+02  0.43400730629E+02  0.00000000000E+00 0. -1.
         11    1    3    3    0    0 -0.14945840656E+01  0.20318346605E+01 -0.78980009977E+00  0.26430887377E+01  0.51100000000E-03 0. -1.
        -11    1    3    3    0    0  0.21617431381E+01  0.19009913818E+02  0.10138615661E+02  0.21652747737E+02  0.51100000000E-03 0.  1.
        -12    1    3    3    0    0  0.73244304236E+01  0.99223703729E+01  0.19993666615E+02  0.23491432897E+02  0.00000000000E+00 0.  1.
</event>
<event>
 7    1  0.4005571E-009  0.4778722E+02  0.7816164E-02  0.1312668E+00
        -11   -1    0    0    0    0  0.00000000000E+00  0.00000000000E+00  0.45593999997E+02  0.45594000000E+02  0.51100000000E-03 0. -1.
         11   -1    0    0    0    0 -0.00000000000E+00 -0.00000000000E+00 -0.45593999997E+02  0.45594000000E+02  0.51100000000E-03 0.  1.
    9900012    2    1    2    0    0 -0.34258758601E+02  0.26623528654E+02  0.10735973261E+01  0.47787223162E+02  0.19999781686E+02 0.  0.
         12    1    1    2    0    0  0.34258758601E+02 -0.26623528654E+02 -0.10735973261E+01  0.43400776838E+02  0.00000000000E+00 0. -1.
         11    1    3    3    0    0 -0.33089268675E+00 -0.56342553433E+00  0.21128354410E+01  0.22115632853E+01  0.51100000000E-03 0. -1.
        -11    1    3    3    0    0 -0.18102491999E+01  0.39879250466E+01 -0.38840651763E+01  0.58537604066E+01  0.51100000000E-03 0.  1.
        -12    1    3    3    0    0 -0.32117616715E+02  0.23199029142E+02  0.28448270615E+01  0.39721899471E+02  0.00000000000E+00 0.  1.
</event>
<event>
 7    1  0.4005571E-009  0.4778728E+02  0.7816164E-02  0.1312668E+00
        -11   -1    0    0    0    0  0.00000000000E+00  0.00000000000E+00  0.45593999997E+02  0.45594000000E+02  0.51100000000E-03 0. -1.
         11   -1    0    0    0    0 -0.00000000000E+00 -0.00000000000E+00 -0.45593999997E+02  0.45594000000E+02  0.51100000000E-03 0.  1.
    9900012    2    1    2    0    0 -0.25478316144E+02  0.35070159286E+02 -0.21359132667E+01  0.47787276603E+02  0.20000025344E+02 0.  0.
         12    1    1    2    0    0  0.25478316144E+02 -0.35070159286E+02  0.21359132667E+01  0.43400723397E+02  0.00000000000E+00 0. -1.
         11    1    3    3    0    0 -0.13719888147E+02  0.12485135396E+02 -0.67783223318E+01  0.19749926342E+02  0.51100000000E-03 0.  1.
        -11    1    3    3    0    0 -0.35543674496E+01  0.13994285081E+02 -0.17557772553E+01  0.14544974972E+02  0.51100000000E-03 0. -1.
        -12    1    3    3    0    0 -0.82040605473E+01  0.85907388089E+01  0.63981863204E+01  0.13492375289E+02  0.00000000000E+00 0.  1.
</event>
<event>
 7    1  0.4005571E-009  0.4778727E+02  0.7816164E-02  0.1312668E+00
        -11   -1    0    0    0    0  0.00000000000E+00  0.00000000000E+00  0.45593999997E+02  0.45594000000E+02  0.51100000000E-03 0.  1.
         11   -1    0    0    0    0 -0.00000000000E+00 -0.00000000000E+00 -0.45593999997E+02  0.45594000000E+02  0.51100000000E-03 0. -1.
    9900012    2    1    2    0    0 -0.40423042319E+02 -0.15774028682E+02 -0.88377414006E+00  0.47787269730E+02  0.19999994009E+02 0.  0.
         12    1    1    2    0    0  0.40423042319E+02  0.15774028682E+02  0.88377414006E+00  0.43400730270E+02  0.00000000000E+00 0. -1.
         11    1    3    3    0    0 -0.21015851501E+02 -0.80452777147E+01 -0.91421254422E+01  0.24289317934E+02  0.51100000000E-03 0. -1.
        -11    1    3    3    0    0 -0.64471863904E+00  0.92114257299E+00  0.12499800424E+01  0.16812543326E+01  0.51100000000E-03 0.  1.
        -12    1    3    3    0    0 -0.18762472179E+02 -0.86498935406E+01  0.70083712597E+01  0.21816697464E+02  0.00000000000E+00 0.  1.
</event>
<event>
 7    1  0.4005571E-009  0.4778727E+02  0.7816164E-02  0.1312668E+00
        -11   -1    0    0    0    0  0.00000000000E+00  0.00000000000E+00  0.45593999997E+02  0.45594000000E+02  0.51100000000E-03 0.  1.
         11   -1    0    0    0    0 -0.00000000000E+00 -0.00000000000E+00 -0.45593999997E+02  0.45594000000E+02  0.51100000000E-03 0. -1.
    9900012    2    1    2    0    0  0.12889564368E+02 -0.15586113582E+02  0.38399940594E+02  0.47787271391E+02  0.20000001579E+02 0.  0.
         12    1    1    2    0    0 -0.12889564368E+02  0.15586113582E+02 -0.38399940594E+02  0.43400728609E+02  0.00000000000E+00 0. -1.
         11    1    3    3    0    0  0.29882686980E+01  0.20198919643E+01  0.14551627713E+02  0.14991983949E+02  0.51100000000E-03 0. -1.
        -11    1    3    3    0    0  0.30287005911E+01  0.56419956810E+00  0.34975413289E+01  0.46609166514E+01  0.51100000000E-03 0.  1.
        -12    1    3    3    0    0  0.68725950791E+01 -0.18170205114E+02  0.20350771552E+02  0.28134370791E+02  0.00000000000E+00 0.  1.
</event>
<event>
 7    1  0.4005571E-009  0.4778727E+02  0.7816164E-02  0.1312668E+00
        -11   -1    0    0    0    0  0.00000000000E+00  0.00000000000E+00  0.45593999997E+02  0.45594000000E+02  0.51100000000E-03 0.  1.
         11   -1    0    0    0    0 -0.00000000000E+00 -0.00000000000E+00 -0.45593999997E+02  0.45594000000E+02  0.51100000000E-03 0. -1.
    9900012    2    1    2    0    0  0.31509061685E+02  0.18014873090E+02  0.23796355891E+02  0.47787272190E+02  0.20000005225E+02 0.  0.
         12    1    1    2    0    0 -0.31509061685E+02 -0.18014873090E+02 -0.23796355891E+02  0.43400727810E+02  0.00000000000E+00 0. -1.
         11    1    3    3    0    0  0.13069629847E+02  0.16616639346E+02  0.74723516172E+01  0.22422398766E+02  0.51100000000E-03 0. -1.
        -11    1    3    3    0    0  0.42039497857E+00 -0.10786574271E+01  0.51842691087E+00  0.12684638371E+01  0.51100000000E-03 0.  1.
        -12    1    3    3    0    0  0.18019036859E+02  0.24768911716E+01  0.15805577363E+02  0.24096409587E+02  0.00000000000E+00 0.  1.
</event>
<event>
 7    1  0.4005571E-009  0.4778727E+02  0.7816164E-02  0.1312668E+00
        -11   -1    0    0    0    0  0.00000000000E+00  0.00000000000E+00  0.45593999997E+02  0.45594000000E+02  0.51100000000E-03 0. -1.
         11   -1    0    0    0    0 -0.00000000000E+00 -0.00000000000E+00 -0.45593999997E+02  0.45594000000E+02  0.51100000000E-03 0.  1.
    9900012    2    1    2    0    0 -0.41760474107E+02  0.10541167859E+02 -0.53450501394E+01  0.47787274447E+02  0.20000015515E+02 0.  0.
         12    1    1    2    0    0  0.41760474107E+02 -0.10541167859E+02  0.53450501394E+01  0.43400725553E+02  0.00000000000E+00 0. -1.
         11    1    3    3    0    0 -0.54443064999E+01 -0.18127302311E+01  0.36921410459E+01  0.68233693964E+01  0.51100000000E-03 0. -1.
        -11    1    3    3    0    0 -0.69631197017E+01 -0.18894107400E+01 -0.46274847643E+00  0.72297334209E+01  0.51100000000E-03 0.  1.
        -12    1    3    3    0    0 -0.29353047906E+02  0.14243308830E+02 -0.85744427089E+01  0.33734171630E+02  0.00000000000E+00 0.  1.
</event>
<event>
 7    1  0.4005571E-009  0.4778727E+02  0.7816164E-02  0.1312668E+00
        -11   -1    0    0    0    0  0.00000000000E+00  0.00000000000E+00  0.45593999997E+02  0.45594000000E+02  0.51100000000E-03 0.  1.
         11   -1    0    0    0    0 -0.00000000000E+00 -0.00000000000E+00 -0.45593999997E+02  0.45594000000E+02  0.51100000000E-03 0. -1.
    9900012    2    1    2    0    0 -0.29821350888E+02 -0.30645367931E+02 -0.74277709138E+01  0.47787270454E+02  0.19999997307E+02 0.  0.
         12    1    1    2    0    0  0.29821350888E+02  0.30645367931E+02  0.74277709138E+01  0.43400729546E+02  0.00000000000E+00 0. -1.
         11    1    3    3    0    0 -0.11985965486E+02 -0.15823345899E+02 -0.72996036363E+01  0.21150079375E+02  0.51100000000E-03 0. -1.
        -11    1    3    3    0    0  0.12714369113E+01 -0.23867722369E+01 -0.25435474309E+01  0.37125284275E+01  0.51100000000E-03 0.  1.
        -12    1    3    3    0    0 -0.19106822314E+02 -0.12435249795E+02  0.24153801535E+01  0.22924662651E+02  0.00000000000E+00 0.  1.
</event>
<event>
 7    1  0.4005571E-009  0.4778728E+02  0.7816164E-02  0.1312668E+00
        -11   -1    0    0    0    0  0.00000000000E+00  0.00000000000E+00  0.45593999997E+02  0.45594000000E+02  0.51100000000E-03 0.  1.
         11   -1    0    0    0    0 -0.00000000000E+00 -0.00000000000E+00 -0.45593999997E+02  0.45594000000E+02  0.51100000000E-03 0. -1.
    9900012    2    1    2    0    0  0.12451719229E+01  0.19868191626E+02  0.38565876361E+02  0.47787282136E+02  0.20000050573E+02 0.  0.
         12    1    1    2    0    0 -0.12451719229E+01 -0.19868191626E+02 -0.38565876361E+02  0.43400717864E+02  0.00000000000E+00 0. -1.
         11    1    3    3    0    0 -0.81987049607E+00 -0.28075504308E+01  0.89797691540E+01  0.94440871117E+01  0.51100000000E-03 0. -1.
        -11    1    3    3    0    0 -0.50103128113E-01  0.83317229885E+01  0.17816291327E+02  0.19668257554E+02  0.51100000000E-03 0.  1.
        -12    1    3    3    0    0  0.21151455470E+01  0.14344019068E+02  0.11769815880E+02  0.18674937471E+02  0.00000000000E+00 0.  1.
</event>
<event>
 7    1  0.4005571E-009  0.4778727E+02  0.7816164E-02  0.1312668E+00
        -11   -1    0    0    0    0  0.00000000000E+00  0.00000000000E+00  0.45593999997E+02  0.45594000000E+02  0.51100000000E-03 0. -1.
         11   -1    0    0    0    0 -0.00000000000E+00 -0.00000000000E+00 -0.45593999997E+02  0.45594000000E+02  0.51100000000E-03 0.  1.
    9900012    2    1    2    0    0 -0.42732804313E+01 -0.41359196061E+02 -0.12441032254E+02  0.47787270651E+02  0.19999998207E+02 0.  0.
         12    1    1    2    0    0  0.42732804313E+01  0.41359196061E+02  0.12441032254E+02  0.43400729349E+02  0.00000000000E+00 0. -1.
         11    1    3    3    0    0  0.53443967552E+01 -0.12975027857E+02 -0.41509977984E+01  0.14633684004E+02  0.51100000000E-03 0. -1.
        -11    1    3    3    0    0  0.11895344349E+01 -0.14167702596E+02 -0.43248345211E+01  0.14860786753E+02  0.51100000000E-03 0.  1.
        -12    1    3    3    0    0 -0.10807211621E+02 -0.14216465608E+02 -0.39651999349E+01  0.18292799894E+02  0.00000000000E+00 0.  1.
</event>
<event>
 7    1  0.4005571E-009  0.4778727E+02  0.7816164E-02  0.1312668E+00
        -11   -1    0    0    0    0  0.00000000000E+00  0.00000000000E+00  0.45593999997E+02  0.45594000000E+02  0.51100000000E-03 0. -1.
         11   -1    0    0    0    0 -0.00000000000E+00 -0.00000000000E+00 -0.45593999997E+02  0.45594000000E+02  0.51100000000E-03 0.  1.
    9900012    2    1    2    0    0 -0.16298418571E+02  0.28092169620E+02 -0.28789140625E+02  0.47787273511E+02  0.20000011246E+02 0.  0.
         12    1    1    2    0    0  0.16298418571E+02 -0.28092169620E+02  0.28789140625E+02  0.43400726489E+02  0.00000000000E+00 0. -1.
         11    1    3    3    0    0 -0.58733809019E+01  0.15684262422E+02 -0.19485680929E+02  0.25694054808E+02  0.51100000000E-03 0. -1.
        -11    1    3    3    0    0 -0.69474541422E+01  0.32496820464E+01 -0.96058799156E+01  0.12292293589E+02  0.51100000000E-03 0.  1.
         12    1    3    3    0    0 -0.34775835268E+01  0.91582251511E+01  0.30242021952E+00  0.98009251142E+01  0.00000000000E+00 0. -1.
</event>
<event>
 7    1  0.4005571E-009  0.4778727E+02  0.7816164E-02  0.1312668E+00
        -11   -1    0    0    0    0  0.00000000000E+00  0.00000000000E+00  0.45593999997E+02  0.45594000000E+02  0.51100000000E-03 0.  1.
         11   -1    0    0    0    0 -0.00000000000E+00 -0.00000000000E+00 -0.45593999997E+02  0.45594000000E+02  0.51100000000E-03 0. -1.
    9900012    2    1    2    0    0  0.58830695719E+01 -0.42789449047E+02 -0.42515692985E+01  0.47787270757E+02  0.19999998691E+02 0.  0.
         12    1    1    2    0    0 -0.58830695719E+01  0.42789449047E+02  0.42515692985E+01  0.43400729243E+02  0.00000000000E+00 0. -1.
         11    1    3    3    0    0  0.39864819226E+01 -0.83514322216E+01 -0.97923239829E+00  0.93057699640E+01  0.51100000000E-03 0. -1.
        -11    1    3    3    0    0 -0.30716412225E+01 -0.24412836216E+02 -0.86317208915E+01  0.26075432072E+02  0.51100000000E-03 0.  1.
        -12    1    3    3    0    0  0.49682288717E+01 -0.10025180609E+02  0.53593839912E+01  0.12406068722E+02  0.00000000000E+00 0.  1.
</event>
<event>
 7    1  0.4005571E-009  0.4778727E+02  0.7816164E-02  0.1312668E+00
        -11   -1    0    0    0    0  0.00000000000E+00  0.00000000000E+00  0.45593999997E+02  0.45594000000E+02  0.51100000000E-03 0. -1.
         11   -1    0    0    0    0 -0.00000000000E+00 -0.00000000000E+00 -0.45593999997E+02  0.45594000000E+02  0.51100000000E-03 0.  1.
    9900012    2    1    2    0    0  0.16940942828E+02 -0.36368167868E+02 -0.16552466896E+02  0.47787270302E+02  0.19999996617E+02 0.  0.
         12    1    1    2    0    0 -0.16940942828E+02  0.36368167868E+02  0.16552466896E+02  0.43400729698E+02  0.00000000000E+00 0. -1.
         11    1    3    3    0    0  0.56551341514E+01 -0.12419302812E+02 -0.42988723995E+00  0.13653000692E+02  0.51100000000E-03 0. -1.
        -11    1    3    3    0    0 -0.14273081103E+01 -0.74132738294E+01  0.34796083008E+00  0.75574409896E+01  0.51100000000E-03 0.  1.
        -12    1    3    3    0    0  0.12713116787E+02 -0.16535591227E+02 -0.16470540486E+02  0.26576828621E+02  0.00000000000E+00 0.  1.
</event>
<event>
 7    1  0.4005571E-009  0.4778726E+02  0.7816164E-02  0.1312668E+00
        -11   -1    0    0    0    0  0.00000000000E+00  0.00000000000E+00  0.45593999997E+02  0.45594000000E+02  0.51100000000E-03 0. -1.
         11   -1    0    0    0    0 -0.00000000000E+00 -0.00000000000E+00 -0.45593999997E+02  0.45594000000E+02  0.51100000000E-03 0.  1.
    9900012    2    1    2    0    0 -0.40927121851E+02 -0.87911071999E+01  0.11459103579E+02  0.47787263559E+02  0.19999965869E+02 0.  0.
         12    1    1    2    0    0  0.40927121851E+02  0.87911071999E+01 -0.11459103579E+02  0.43400736441E+02  0.00000000000E+00 0. -1.
         11    1    3    3    0    0 -0.24509167696E+02 -0.77253222223E+01  0.29061411320E+01  0.25861661995E+02  0.51100000000E-03 0. -1.
        -11    1    3    3    0    0 -0.12683971474E+02 -0.77394663542E+00  0.11516416660E+02  0.17149634943E+02  0.51100000000E-03 0.  1.
         12    1    3    3    0    0 -0.37339826814E+01 -0.29183834214E+00 -0.29634542135E+01  0.47759666203E+01  0.00000000000E+00 0. -1.
</event>
<event>
 7    1  0.4005571E-009  0.4778727E+02  0.7816164E-02  0.1312668E+00
        -11   -1    0    0    0    0  0.00000000000E+00  0.00000000000E+00  0.45593999997E+02  0.45594000000E+02  0.51100000000E-03 0. -1.
         11   -1    0    0    0    0 -0.00000000000E+00 -0.00000000000E+00 -0.45593999997E+02  0.45594000000E+02  0.51100000000E-03 0.  1.
    9900012    2    1    2    0    0  0.12306378481E+02  0.29066209290E+02 -0.29788117352E+02  0.47787269486E+02  0.19999992893E+02 0.  0.
         12    1    1    2    0    0 -0.12306378481E+02 -0.29066209290E+02  0.29788117352E+02  0.43400730514E+02  0.00000000000E+00 0. -1.
         11    1    3    3    0    0 -0.15598245690E+01  0.32237504743E+01 -0.64850873487E+01  0.74082371715E+01  0.51100000000E-03 0. -1.
        -11    1    3    3    0    0  0.46157367929E+01 -0.17261000749E+00 -0.67738709827E+01  0.81987894660E+01  0.51100000000E-03 0.  1.
        -12    1    3    3    0    0  0.92504662568E+01  0.26015068823E+02 -0.16529159021E+02  0.32180242848E+02  0.00000000000E+00 0.  1.
</event>
<event>
 7    1  0.4667893E-009  0.4778727E+02  0.7816164E-02  0.1312668E+00
        -11   -1    0    0    0    0  0.00000000000E+00  0.00000000000E+00  0.45593999997E+02  0.45594000000E+02  0.51100000000E-03 0.  1.
         11   -1    0    0    0    0 -0.00000000000E+00 -0.00000000000E+00 -0.45593999997E+02  0.45594000000E+02  0.51100000000E-03 0. -1.
    9900012    2    1    2    0    0  0.10870427150E+02  0.36553100631E+02  0.20720232366E+02  0.47787269805E+02  0.19999994350E+02 0.  0.
         12    1    1    2    0    0 -0.10870427150E+02 -0.36553100631E+02 -0.20720232366E+02  0.43400730195E+02  0.00000000000E+00 0. -1.
         11    1    3    3    0    0  0.20913619533E+01  0.78439711069E+00 -0.21266076712E+01  0.30840775112E+01  0.51100000000E-03 0. -1.
        -11    1    3    3    0    0  0.55588335021E+01  0.49701807577E+01  0.45435886043E+01  0.87319828409E+01  0.51100000000E-03 0.  1.
        -12    1    3    3    0    0  0.32202316949E+01  0.30798522762E+02  0.18303251433E+02  0.35971209453E+02  0.00000000000E+00 0.  1.
</event>
<event>
 7    1  0.4005571E-009  0.4778727E+02  0.7816164E-02  0.1312668E+00
        -11   -1    0    0    0    0  0.00000000000E+00  0.00000000000E+00  0.45593999997E+02  0.45594000000E+02  0.51100000000E-03 0.  1.
         11   -1    0    0    0    0 -0.00000000000E+00 -0.00000000000E+00 -0.45593999997E+02  0.45594000000E+02  0.51100000000E-03 0. -1.
    9900012    2    1    2    0    0 -0.80055890697E+01  0.49735125563E+01  0.42365055973E+02  0.47787271307E+02  0.20000001196E+02 0.  0.
         12    1    1    2    0    0  0.80055890697E+01 -0.49735125563E+01 -0.42365055973E+02  0.43400728693E+02  0.00000000000E+00 0. -1.
         11    1    3    3    0    0 -0.25653716684E+01 -0.29898849226E+01  0.63795324413E+01  0.74979315866E+01  0.51100000000E-03 0. -1.
        -11    1    3    3    0    0 -0.35357904263E+01 -0.21261086163E+01  0.16364455973E+01  0.44384801724E+01  0.51100000000E-03 0.  1.
        -12    1    3    3    0    0 -0.19044269750E+01  0.10089506095E+02  0.34349077935E+02  0.35850859548E+02  0.00000000000E+00 0.  1.
</event>
<event>
 7    1  0.4005571E-009  0.4778727E+02  0.7816164E-02  0.1312668E+00
        -11   -1    0    0    0    0  0.00000000000E+00  0.00000000000E+00  0.45593999997E+02  0.45594000000E+02  0.51100000000E-03 0.  1.
         11   -1    0    0    0    0 -0.00000000000E+00 -0.00000000000E+00 -0.45593999997E+02  0.45594000000E+02  0.51100000000E-03 0. -1.
    9900012    2    1    2    0    0  0.91939169517E+00 -0.21543328786E+02  0.37665138235E+02  0.47787274954E+02  0.20000017827E+02 0.  0.
         12    1    1    2    0    0 -0.91939169517E+00  0.21543328786E+02 -0.37665138235E+02  0.43400725046E+02  0.00000000000E+00 0. -1.
         11    1    3    3    0    0  0.45342440026E+01 -0.41143230101E+01  0.23271289350E+01  0.65500039579E+01  0.51100000000E-03 0. -1.
        -11    1    3    3    0    0  0.42022954428E+01 -0.76585787002E+01  0.14996787819E+02  0.17355597364E+02  0.51100000000E-03 0.  1.
        -12    1    3    3    0    0 -0.78171477502E+01 -0.97704270754E+01  0.20341221481E+02  0.23881673633E+02  0.00000000000E+00 0.  1.
</event>
<event>
 7    1  0.4005571E-009  0.4778727E+02  0.7816164E-02  0.1312668E+00
        -11   -1    0    0    0    0  0.00000000000E+00  0.00000000000E+00  0.45593999997E+02  0.45594000000E+02  0.51100000000E-03 0.  1.
         11   -1    0    0    0    0 -0.00000000000E+00 -0.00000000000E+00 -0.45593999997E+02  0.45594000000E+02  0.51100000000E-03 0. -1.
    9900012    2    1    2    0    0  0.33017549406E+02 -0.23918842220E+02  0.14877954385E+02  0.47787272949E+02  0.20000008682E+02 0.  0.
         12    1    1    2    0    0 -0.33017549406E+02  0.23918842220E+02 -0.14877954385E+02  0.43400727051E+02  0.00000000000E+00 0. -1.
         11    1    3    3    0    0  0.84838370810E+01 -0.22945002464E+01  0.97585551141E+01  0.13132768983E+02  0.51100000000E-03 0. -1.
        -11    1    3    3    0    0  0.13280441873E+02 -0.84126356643E+01  0.69794006167E+01  0.17200424657E+02  0.51100000000E-03 0.  1.
         12    1    3    3    0    0  0.11253270452E+02 -0.13211706310E+02 -0.18600013462E+01  0.17454079308E+02  0.00000000000E+00 0. -1.
</event>
<event>
 7    1  0.4005571E-009  0.4778727E+02  0.7816164E-02  0.1312668E+00
        -11   -1    0    0    0    0  0.00000000000E+00  0.00000000000E+00  0.45593999997E+02  0.45594000000E+02  0.51100000000E-03 0.  1.
         11   -1    0    0    0    0 -0.00000000000E+00 -0.00000000000E+00 -0.45593999997E+02  0.45594000000E+02  0.51100000000E-03 0. -1.
    9900012    2    1    2    0    0  0.32427467091E+02 -0.27587655021E+02  0.84263925582E+01  0.47787269326E+02  0.19999992165E+02 0.  0.
         12    1    1    2    0    0 -0.32427467091E+02  0.27587655021E+02 -0.84263925582E+01  0.43400730674E+02  0.00000000000E+00 0. -1.
         11    1    3    3    0    0  0.27026772153E+02 -0.12628974306E+02  0.10066184581E+02  0.31484368778E+02  0.51100000000E-03 0. -1.
        -11    1    3    3    0    0  0.28740652972E+01 -0.38406360351E+01 -0.87190184141E+00  0.48755460791E+01  0.51100000000E-03 0.  1.
         12    1    3    3    0    0  0.25266296407E+01 -0.11118044680E+02 -0.76789018182E+00  0.11427354470E+02  0.00000000000E+00 0. -1.
</event>
<event>
 7    1  0.4005571E-009  0.4778728E+02  0.7816164E-02  0.1312668E+00
        -11   -1    0    0    0    0  0.00000000000E+00  0.00000000000E+00  0.45593999997E+02  0.45594000000E+02  0.51100000000E-03 0.  1.
         11   -1    0    0    0    0 -0.00000000000E+00 -0.00000000000E+00 -0.45593999997E+02  0.45594000000E+02  0.51100000000E-03 0. -1.
    9900012    2    1    2    0    0  0.14608200740E+02  0.40857818055E+02 -0.92828889133E+00  0.47787279437E+02  0.20000038267E+02 0.  0.
         12    1    1    2    0    0 -0.14608200740E+02 -0.40857818055E+02  0.92828889133E+00  0.43400720563E+02  0.00000000000E+00 0. -1.
         11    1    3    3    0    0  0.30995298099E+01  0.16780484021E+02  0.34753382777E+01  0.17414640549E+02  0.51100000000E-03 0. -1.
        -11    1    3    3    0    0  0.49152684644E+01  0.74945498931E+01  0.49349014219E+01  0.10231392597E+02  0.51100000000E-03 0.  1.
         12    1    3    3    0    0  0.65934024662E+01  0.16582784141E+02 -0.93385285909E+01  0.20141246291E+02  0.00000000000E+00 0. -1.
</event>
<event>
 7    1  0.4005571E-009  0.4778727E+02  0.7816164E-02  0.1312668E+00
        -11   -1    0    0    0    0  0.00000000000E+00  0.00000000000E+00  0.45593999997E+02  0.45594000000E+02  0.51100000000E-03 0. -1.
         11   -1    0    0    0    0 -0.00000000000E+00 -0.00000000000E+00 -0.45593999997E+02  0.45594000000E+02  0.51100000000E-03 0.  1.
    9900012    2    1    2    0    0 -0.41310202827E+02 -0.62111412962E+01 -0.11769116011E+02  0.47787271602E+02  0.20000002541E+02 0.  0.
         12    1    1    2    0    0  0.41310202827E+02  0.62111412962E+01  0.11769116011E+02  0.43400728398E+02  0.00000000000E+00 0. -1.
         11    1    3    3    0    0 -0.22915064528E+02 -0.18541742110E+01 -0.29708648819E+01  0.23181116943E+02  0.51100000000E-03 0. -1.
        -11    1    3    3    0    0 -0.18365881493E+02  0.25187057936E+00 -0.68767615241E+01  0.19612722685E+02  0.51100000000E-03 0.  1.
        -12    1    3    3    0    0 -0.29256806978E-01 -0.46088376646E+01 -0.19214896048E+01  0.49934319742E+01  0.00000000000E+00 0.  1.
</event>
<event>
 7    1  0.4005571E-009  0.4778727E+02  0.7816164E-02  0.1312668E+00
        -11   -1    0    0    0    0  0.00000000000E+00  0.00000000000E+00  0.45593999997E+02  0.45594000000E+02  0.51100000000E-03 0. -1.
         11   -1    0    0    0    0 -0.00000000000E+00 -0.00000000000E+00 -0.45593999997E+02  0.45594000000E+02  0.51100000000E-03 0.  1.
    9900012    2    1    2    0    0  0.29099897080E+02  0.17240077095E+02 -0.27195571749E+02  0.47787269695E+02  0.19999993845E+02 0.  0.
         12    1    1    2    0    0 -0.29099897080E+02 -0.17240077095E+02  0.27195571749E+02  0.43400730305E+02  0.00000000000E+00 0. -1.
         11    1    3    3    0    0  0.13110953465E+02  0.99504521961E+01 -0.92960864798E+01  0.18903063872E+02  0.51100000000E-03 0. -1.
        -11    1    3    3    0    0  0.89962045993E+01  0.11427441554E+02 -0.11386013284E+02  0.18470501250E+02  0.51100000000E-03 0.  1.
         12    1    3    3    0    0  0.69927390158E+01 -0.41378166552E+01 -0.65134719851E+01  0.10413704572E+02  0.00000000000E+00 0. -1.
</event>
<event>
 7    1  0.4005571E-009  0.4778726E+02  0.7816164E-02  0.1312668E+00
        -11   -1    0    0    0    0  0.00000000000E+00  0.00000000000E+00  0.45593999997E+02  0.45594000000E+02  0.51100000000E-03 0.  1.
         11   -1    0    0    0    0 -0.00000000000E+00 -0.00000000000E+00 -0.45593999997E+02  0.45594000000E+02  0.51100000000E-03 0. -1.
    9900012    2    1    2    0    0 -0.94272693365E+01  0.33685708795E+02  0.25690922329E+02  0.47787264128E+02  0.19999968464E+02 0.  0.
         12    1    1    2    0    0  0.94272693365E+01 -0.33685708795E+02 -0.25690922329E+02  0.43400735872E+02  0.00000000000E+00 0. -1.
         11    1    3    3    0    0 -0.68235733004E+00 -0.17723009040E+01  0.15321426113E+01  0.24401072236E+01  0.51100000000E-03 0. -1.
        -11    1    3    3    0    0 -0.90631269470E+01  0.13664572293E+02  0.81969034017E+01  0.18331667454E+02  0.51100000000E-03 0.  1.
        -12    1    3    3    0    0  0.31821494058E+00  0.21793437405E+02  0.15961876316E+02  0.27015489450E+02  0.00000000000E+00 0.  1.
</event>
<event>
 7    1  0.4005571E-009  0.4778729E+02  0.7816164E-02  0.1312668E+00
        -11   -1    0    0    0    0  0.00000000000E+00  0.00000000000E+00  0.45593999997E+02  0.45594000000E+02  0.51100000000E-03 0. -1.
         11   -1    0    0    0    0 -0.00000000000E+00 -0.00000000000E+00 -0.45593999997E+02  0.45594000000E+02  0.51100000000E-03 0.  1.
    9900012    2    1    2    0    0 -0.12150745125E+02  0.39249215419E+02 -0.13981433890E+02  0.47787285585E+02  0.20000066297E+02 0.  0.
         12    1    1    2    0    0  0.12150745125E+02 -0.39249215419E+02  0.13981433890E+02  0.43400714415E+02  0.00000000000E+00 0. -1.
         11    1    3    3    0    0 -0.64315817590E+01  0.16545164817E+02 -0.24738808692E+01  0.17922829284E+02  0.51100000000E-03 0. -1.
        -11    1    3    3    0    0 -0.47223753449E+01  0.58587731888E+01  0.25042127206E+01  0.79307713236E+01  0.51100000000E-03 0.  1.
         12    1    3    3    0    0 -0.99678802104E+00  0.16845277414E+02 -0.14011765741E+02  0.21933684978E+02  0.00000000000E+00 0. -1.
</event>
<event>
 7    1  0.4005571E-009  0.4778729E+02  0.7816164E-02  0.1312668E+00
        -11   -1    0    0    0    0  0.00000000000E+00  0.00000000000E+00  0.45593999997E+02  0.45594000000E+02  0.51100000000E-03 0.  1.
         11   -1    0    0    0    0 -0.00000000000E+00 -0.00000000000E+00 -0.45593999997E+02  0.45594000000E+02  0.51100000000E-03 0. -1.
    9900012    2    1    2    0    0  0.30840207864E+02  0.21065203573E+02  0.22107916863E+02  0.47787294813E+02  0.20000108372E+02 0.  0.
         12    1    1    2    0    0 -0.30840207864E+02 -0.21065203573E+02 -0.22107916863E+02  0.43400705187E+02  0.00000000000E+00 0. -1.
         11    1    3    3    0    0  0.76068004372E+01  0.25496354096E+01  0.10291607088E+02  0.13049185045E+02  0.51100000000E-03 0. -1.
        -11    1    3    3    0    0  0.17980197861E+02  0.62797212963E+01  0.92679643372E+01  0.21180594371E+02  0.51100000000E-03 0.  1.
        -12    1    3    3    0    0  0.52532095659E+01  0.12235846867E+02  0.25483454373E+01  0.13557515398E+02  0.00000000000E+00 0.  1.
</event>
<event>
 7    1  0.4005571E-009  0.4778727E+02  0.7816164E-02  0.1312668E+00
        -11   -1    0    0    0    0  0.00000000000E+00  0.00000000000E+00  0.45593999997E+02  0.45594000000E+02  0.51100000000E-03 0. -1.
         11   -1    0    0    0    0 -0.00000000000E+00 -0.00000000000E+00 -0.45593999997E+02  0.45594000000E+02  0.51100000000E-03 0.  1.
    9900012    2    1    2    0    0  0.16875155592E+02 -0.25770251217E+02 -0.30573628182E+02  0.47787268851E+02  0.19999989998E+02 0.  0.
         12    1    1    2    0    0 -0.16875155592E+02  0.25770251217E+02  0.30573628182E+02  0.43400731149E+02  0.00000000000E+00 0. -1.
         11    1    3    3    0    0  0.35245528819E+01 -0.55493435984E+01 -0.29240873425E+01  0.71949964863E+01  0.51100000000E-03 0. -1.
        -11    1    3    3    0    0  0.13845050117E+02 -0.61885519450E+01 -0.18090788481E+02  0.23606359653E+02  0.51100000000E-03 0.  1.
         12    1    3    3    0    0 -0.49444740668E+00 -0.14032355674E+02 -0.95587523583E+01  0.16985912712E+02  0.00000000000E+00 0. -1.
</event>
<event>
 7    1  0.4005571E-009  0.4778727E+02  0.7816164E-02  0.1312668E+00
        -11   -1    0    0    0    0  0.00000000000E+00  0.00000000000E+00  0.45593999997E+02  0.45594000000E+02  0.51100000000E-03 0.  1.
         11   -1    0    0    0    0 -0.00000000000E+00 -0.00000000000E+00 -0.45593999997E+02  0.45594000000E+02  0.51100000000E-03 0. -1.
    9900012    2    1    2    0    0 -0.10432002554E+02 -0.41989426691E+02  0.34182775462E+01  0.47787271290E+02  0.20000001122E+02 0.  0.
         12    1    1    2    0    0  0.10432002554E+02  0.41989426691E+02 -0.34182775462E+01  0.43400728710E+02  0.00000000000E+00 0. -1.
         11    1    3    3    0    0 -0.20579401130E+01 -0.21744706655E+02  0.62586315500E+00  0.21850837283E+02  0.51100000000E-03 0. -1.
        -11    1    3    3    0    0 -0.10992251841E+02 -0.18881522288E+02 -0.36124207624E-01  0.21848175889E+02  0.51100000000E-03 0.  1.
         12    1    3    3    0    0  0.26181894004E+01 -0.13631977478E+01  0.28285385988E+01  0.40882581182E+01  0.00000000000E+00 0. -1.
</event>
<event>
 7    1  0.4005571E-009  0.4778727E+02  0.7816164E-02  0.1312668E+00
        -11   -1    0    0    0    0  0.00000000000E+00  0.00000000000E+00  0.45593999997E+02  0.45594000000E+02  0.51100000000E-03 0.  1.
         11   -1    0    0    0    0 -0.00000000000E+00 -0.00000000000E+00 -0.45593999997E+02  0.45594000000E+02  0.51100000000E-03 0. -1.
    9900012    2    1    2    0    0  0.25308805243E+02 -0.44076715727E+01  0.34980857157E+02  0.47787267760E+02  0.19999985024E+02 0.  0.
         12    1    1    2    0    0 -0.25308805243E+02  0.44076715727E+01 -0.34980857157E+02  0.43400732240E+02  0.00000000000E+00 0. -1.
         11    1    3    3    0    0  0.55344462562E+01 -0.25741486320E+01 -0.70057783984E+00  0.61438706133E+01  0.51100000000E-03 0. -1.
        -11    1    3    3    0    0  0.35930665442E+01 -0.27764221842E+01  0.39781432318E+01  0.60369090741E+01  0.51100000000E-03 0.  1.
        -12    1    3    3    0    0  0.16181292443E+02  0.94289924353E+00  0.31703291765E+02  0.35606488072E+02  0.00000000000E+00 0.  1.
</event>
<event>
 7    1  0.4005571E-009  0.4778727E+02  0.7816164E-02  0.1312668E+00
        -11   -1    0    0    0    0  0.00000000000E+00  0.00000000000E+00  0.45593999997E+02  0.45594000000E+02  0.51100000000E-03 0.  1.
         11   -1    0    0    0    0 -0.00000000000E+00 -0.00000000000E+00 -0.45593999997E+02  0.45594000000E+02  0.51100000000E-03 0. -1.
    9900012    2    1    2    0    0 -0.41379621490E+02 -0.12970123684E+02  0.17680124013E+01  0.47787273614E+02  0.20000011714E+02 0.  0.
         12    1    1    2    0    0  0.41379621490E+02  0.12970123684E+02 -0.17680124013E+01  0.43400726386E+02  0.00000000000E+00 0. -1.
         11    1    3    3    0    0 -0.13222369841E+02 -0.74264768658E+00 -0.10892299760E+01  0.13287927303E+02  0.51100000000E-03 0. -1.
        -11    1    3    3    0    0  0.18495089333E+01  0.25527375191E+00 -0.68569096498E-01  0.18683013582E+01  0.51100000000E-03 0.  1.
        -12    1    3    3    0    0 -0.30006760582E+02 -0.12482749749E+02  0.29258114738E+01  0.32631044953E+02  0.00000000000E+00 0.  1.
</event>
<event>
 7    1  0.4005571E-009  0.4778727E+02  0.7816164E-02  0.1312668E+00
        -11   -1    0    0    0    0  0.00000000000E+00  0.00000000000E+00  0.45593999997E+02  0.45594000000E+02  0.51100000000E-03 0. -1.
         11   -1    0    0    0    0 -0.00000000000E+00 -0.00000000000E+00 -0.45593999997E+02  0.45594000000E+02  0.51100000000E-03 0.  1.
    9900012    2    1    2    0    0  0.21667793694E+02  0.17165924980E+02 -0.33458348083E+02  0.47787270509E+02  0.19999997557E+02 0.  0.
         12    1    1    2    0    0 -0.21667793694E+02 -0.17165924980E+02  0.33458348083E+02  0.43400729491E+02  0.00000000000E+00 0. -1.
         11    1    3    3    0    0  0.45260212772E+01 -0.76690722049E-01  0.20069076950E+00  0.45311176452E+01  0.51100000000E-03 0.  1.
        -11    1    3    3    0    0 -0.17238342715E+01  0.17564699942E+01 -0.52764102215E+01  0.58221384837E+01  0.51100000000E-03 0. -1.
        -12    1    3    3    0    0  0.18865606688E+02  0.15486145707E+02 -0.28382628631E+02  0.37434014380E+02  0.00000000000E+00 0.  1.
</event>
<event>
 7    1  0.4005571E-009  0.4778727E+02  0.7816164E-02  0.1312668E+00
        -11   -1    0    0    0    0  0.00000000000E+00  0.00000000000E+00  0.45593999997E+02  0.45594000000E+02  0.51100000000E-03 0. -1.
         11   -1    0    0    0    0 -0.00000000000E+00 -0.00000000000E+00 -0.45593999997E+02  0.45594000000E+02  0.51100000000E-03 0.  1.
    9900012    2    1    2    0    0  0.27165219770E+02  0.29673946585E+02 -0.16282843750E+02  0.47787271070E+02  0.20000000116E+02 0.  0.
         12    1    1    2    0    0 -0.27165219770E+02 -0.29673946585E+02  0.16282843750E+02  0.43400728930E+02  0.00000000000E+00 0. -1.
         11    1    3    3    0    0  0.78421727614E+00  0.59773041363E+01 -0.40396208695E+01  0.72568380514E+01  0.51100000000E-03 0. -1.
        -11    1    3    3    0    0  0.19369507537E+02  0.11207606485E+02 -0.13529387726E+02  0.26150193075E+02  0.51100000000E-03 0.  1.
         12    1    3    3    0    0  0.70114949572E+01  0.12489035963E+02  0.12861648452E+01  0.14380239944E+02  0.00000000000E+00 0. -1.
</event>
<event>
 7    1  0.4005571E-009  0.4778726E+02  0.7816164E-02  0.1312668E+00
        -11   -1    0    0    0    0  0.00000000000E+00  0.00000000000E+00  0.45593999997E+02  0.45594000000E+02  0.51100000000E-03 0. -1.
         11   -1    0    0    0    0 -0.00000000000E+00 -0.00000000000E+00 -0.45593999997E+02  0.45594000000E+02  0.51100000000E-03 0.  1.
    9900012    2    1    2    0    0 -0.41558014133E+02  0.39535438666E+01 -0.11871185563E+02  0.47787261591E+02  0.19999956898E+02 0.  0.
         12    1    1    2    0    0  0.41558014133E+02 -0.39535438666E+01  0.11871185563E+02  0.43400738409E+02  0.00000000000E+00 0. -1.
         11    1    3    3    0    0 -0.22979956688E+02 -0.14222563363E+01 -0.10703451923E+02  0.25390256119E+02  0.51100000000E-03 0. -1.
        -11    1    3    3    0    0 -0.14851486106E+02  0.40979929582E+00 -0.42669394041E+01  0.15457727749E+02  0.51100000000E-03 0.  1.
        -12    1    3    3    0    0 -0.37265713391E+01  0.49660009071E+01  0.30992057638E+01  0.69392777233E+01  0.00000000000E+00 0.  1.
</event>
<event>
 7    1  0.4005571E-009  0.4778727E+02  0.7816164E-02  0.1312668E+00
        -11   -1    0    0    0    0  0.00000000000E+00  0.00000000000E+00  0.45593999997E+02  0.45594000000E+02  0.51100000000E-03 0. -1.
         11   -1    0    0    0    0 -0.00000000000E+00 -0.00000000000E+00 -0.45593999997E+02  0.45594000000E+02  0.51100000000E-03 0.  1.
    9900012    2    1    2    0    0 -0.36654244326E+02  0.34560282382E+01 -0.22981409494E+02  0.47787274884E+02  0.20000017505E+02 0.  0.
         12    1    1    2    0    0  0.36654244326E+02 -0.34560282382E+01  0.22981409494E+02  0.43400725116E+02  0.00000000000E+00 0. -1.
         11    1    3    3    0    0 -0.21799568609E+02 -0.18937649543E+01 -0.65538778267E+01  0.22842085108E+02  0.51100000000E-03 0. -1.
        -11    1    3    3    0    0 -0.16093519282E+02  0.34053145238E+01 -0.14049622708E+02  0.21633063315E+02  0.51100000000E-03 0.  1.
         12    1    3    3    0    0  0.12388435658E+01  0.19444786687E+01 -0.23779089589E+01  0.33121264605E+01  0.00000000000E+00 0. -1.
</event>
<event>
 7    1  0.4005571E-009  0.4778726E+02  0.7816164E-02  0.1312668E+00
        -11   -1    0    0    0    0  0.00000000000E+00  0.00000000000E+00  0.45593999997E+02  0.45594000000E+02  0.51100000000E-03 0.  1.
         11   -1    0    0    0    0 -0.00000000000E+00 -0.00000000000E+00 -0.45593999997E+02  0.45594000000E+02  0.51100000000E-03 0. -1.
    9900012    2    1    2    0    0  0.28283435454E+02  0.25785998982E+02  0.20463464581E+02  0.47787264439E+02  0.19999969882E+02 0.  0.
         12    1    1    2    0    0 -0.28283435454E+02 -0.25785998982E+02 -0.20463464581E+02  0.43400735561E+02  0.00000000000E+00 0. -1.
         11    1    3    3    0    0  0.12965180425E+02  0.74757655534E+01  0.44024572303E+01  0.15600147563E+02  0.51100000000E-03 0. -1.
        -11    1    3    3    0    0  0.42271102020E+01 -0.88066877343E+00 -0.73095605768E+00  0.43793076128E+01  0.51100000000E-03 0.  1.
        -12    1    3    3    0    0  0.11091144828E+02  0.19190902202E+02  0.16791963408E+02  0.27807809263E+02  0.00000000000E+00 0.  1.
</event>
<event>
 7    1  0.4005571E-009  0.4778727E+02  0.7816164E-02  0.1312668E+00
        -11   -1    0    0    0    0  0.00000000000E+00  0.00000000000E+00  0.45593999997E+02  0.45594000000E+02  0.51100000000E-03 0.  1.
         11   -1    0    0    0    0 -0.00000000000E+00 -0.00000000000E+00 -0.45593999997E+02  0.45594000000E+02  0.51100000000E-03 0. -1.
    9900012    2    1    2    0    0 -0.14142738790E+02  0.16417283228E+02  0.37604244734E+02  0.47787268773E+02  0.19999989642E+02 0.  0.
         12    1    1    2    0    0  0.14142738790E+02 -0.16417283228E+02 -0.37604244734E+02  0.43400731227E+02  0.00000000000E+00 0. -1.
         11    1    3    3    0    0 -0.13976394351E+00 -0.88012340689E-01  0.59916848109E+01  0.59939608996E+01  0.51100000000E-03 0. -1.
        -11    1    3    3    0    0 -0.15745052905E+02  0.98701201683E+01  0.15209902091E+02  0.24013893582E+02  0.51100000000E-03 0.  1.
        -12    1    3    3    0    0  0.17420780587E+01  0.66351754008E+01  0.16402657832E+02  0.17779414291E+02  0.00000000000E+00 0.  1.
</event>
<event>
 7    1  0.4005571E-009  0.4778727E+02  0.7816164E-02  0.1312668E+00
        -11   -1    0    0    0    0  0.00000000000E+00  0.00000000000E+00  0.45593999997E+02  0.45594000000E+02  0.51100000000E-03 0. -1.
         11   -1    0    0    0    0 -0.00000000000E+00 -0.00000000000E+00 -0.45593999997E+02  0.45594000000E+02  0.51100000000E-03 0.  1.
    9900012    2    1    2    0    0 -0.27462814557E+02  0.29772224435E+02  0.15589491440E+02  0.47787265276E+02  0.19999973701E+02 0.  0.
         12    1    1    2    0    0  0.27462814557E+02 -0.29772224435E+02 -0.15589491440E+02  0.43400734724E+02  0.00000000000E+00 0. -1.
         11    1    3    3    0    0  0.22708067090E+01  0.59908415234E+00  0.24706113810E+00  0.23614623432E+01  0.51100000000E-03 0. -1.
        -11    1    3    3    0    0 -0.86923677613E+01  0.96378460591E+01  0.23213533902E+00  0.12980724981E+02  0.51100000000E-03 0.  1.
         12    1    3    3    0    0 -0.21041253505E+02  0.19535294223E+02  0.15110294963E+02  0.32445077952E+02  0.00000000000E+00 0. -1.
</event>
<event>
 7    1  0.4005571E-009  0.4778727E+02  0.7816164E-02  0.1312668E+00
        -11   -1    0    0    0    0  0.00000000000E+00  0.00000000000E+00  0.45593999997E+02  0.45594000000E+02  0.51100000000E-03 0. -1.
         11   -1    0    0    0    0 -0.00000000000E+00 -0.00000000000E+00 -0.45593999997E+02  0.45594000000E+02  0.51100000000E-03 0.  1.
    9900012    2    1    2    0    0 -0.35335289086E+01  0.17464875440E+02 -0.39574180229E+02  0.47787269114E+02  0.19999991196E+02 0.  0.
         12    1    1    2    0    0  0.35335289086E+01 -0.17464875440E+02  0.39574180229E+02  0.43400730886E+02  0.00000000000E+00 0. -1.
         11    1    3    3    0    0 -0.41164472263E+01 -0.50560585580E+00 -0.33183274316E+01  0.53115037657E+01  0.51100000000E-03 0. -1.
        -11    1    3    3    0    0 -0.52489843378E+01  0.66849878849E+01 -0.88581770369E+01  0.12276326823E+02  0.51100000000E-03 0.  1.
        -12    1    3    3    0    0  0.58319026555E+01  0.11285493411E+02 -0.27397675761E+02  0.30199438524E+02  0.00000000000E+00 0.  1.
</event>
<event>
 7    1  0.4005571E-009  0.4778725E+02  0.7816164E-02  0.1312668E+00
        -11   -1    0    0    0    0  0.00000000000E+00  0.00000000000E+00  0.45593999997E+02  0.45594000000E+02  0.51100000000E-03 0.  1.
         11   -1    0    0    0    0 -0.00000000000E+00 -0.00000000000E+00 -0.45593999997E+02  0.45594000000E+02  0.51100000000E-03 0. -1.
    9900012    2    1    2    0    0  0.26948356816E+02  0.13971861594E+02  0.31019323846E+02  0.47787247664E+02  0.19999893397E+02 0.  0.
         12    1    1    2    0    0 -0.26948356816E+02 -0.13971861594E+02 -0.31019323846E+02  0.43400752336E+02  0.00000000000E+00 0. -1.
         11    1    3    3    0    0  0.74290841430E+01  0.11210608479E+02  0.11553748535E+02  0.17730147747E+02  0.51100000000E-03 0. -1.
        -11    1    3    3    0    0  0.22269229238E+01  0.17110330542E+00  0.98545904544E+01  0.10104524498E+02  0.51100000000E-03 0.  1.
         12    1    3    3    0    0  0.17292349749E+02  0.25901498096E+01  0.96109848573E+01  0.19952575418E+02  0.00000000000E+00 0. -1.
</event>
<event>
 7    1  0.4005571E-009  0.4778727E+02  0.7816164E-02  0.1312668E+00
        -11   -1    0    0    0    0  0.00000000000E+00  0.00000000000E+00  0.45593999997E+02  0.45594000000E+02  0.51100000000E-03 0.  1.
         11   -1    0    0    0    0 -0.00000000000E+00 -0.00000000000E+00 -0.45593999997E+02  0.45594000000E+02  0.51100000000E-03 0. -1.
    9900012    2    1    2    0    0  0.82000899369E+00 -0.30629385731E+02  0.30737459570E+02  0.47787272980E+02  0.20000008827E+02 0.  0.
         12    1    1    2    0    0 -0.82000899369E+00  0.30629385731E+02 -0.30737459570E+02  0.43400727020E+02  0.00000000000E+00 0. -1.
         11    1    3    3    0    0  0.57653919812E+01 -0.19001109852E+02  0.13332055494E+02  0.23917057183E+02  0.51100000000E-03 0. -1.
        -11    1    3    3    0    0  0.19607002282E+01 -0.40938838874E+01  0.10762317354E+02  0.11680398356E+02  0.51100000000E-03 0.  1.
        -12    1    3    3    0    0 -0.69060832157E+01 -0.75343919915E+01  0.66430867212E+01  0.12189817441E+02  0.00000000000E+00 0.  1.
</event>
<event>
 7    1  0.4005571E-009  0.4778727E+02  0.7816164E-02  0.1312668E+00
        -11   -1    0    0    0    0  0.00000000000E+00  0.00000000000E+00  0.45593999997E+02  0.45594000000E+02  0.51100000000E-03 0.  1.
         11   -1    0    0    0    0 -0.00000000000E+00 -0.00000000000E+00 -0.45593999997E+02  0.45594000000E+02  0.51100000000E-03 0. -1.
    9900012    2    1    2    0    0 -0.18233717867E+02 -0.26739041836E+02  0.28916754517E+02  0.47787268239E+02  0.19999987211E+02 0.  0.
         12    1    1    2    0    0  0.18233717867E+02  0.26739041836E+02 -0.28916754517E+02  0.43400731761E+02  0.00000000000E+00 0. -1.
         11    1    3    3    0    0 -0.90234011759E+01 -0.93063259385E+01  0.19191097632E+02  0.23158749962E+02  0.51100000000E-03 0. -1.
        -11    1    3    3    0    0 -0.89854054944E+01 -0.53892941796E+01  0.57019984969E+01  0.11928738021E+02  0.51100000000E-03 0.  1.
         12    1    3    3    0    0 -0.22491119636E+00 -0.12043421718E+02  0.40236583883E+01  0.12699780256E+02  0.00000000000E+00 0. -1.
</event>
<event>
 7    1  0.4005571E-009  0.4778727E+02  0.7816164E-02  0.1312668E+00
        -11   -1    0    0    0    0  0.00000000000E+00  0.00000000000E+00  0.45593999997E+02  0.45594000000E+02  0.51100000000E-03 0. -1.
         11   -1    0    0    0    0 -0.00000000000E+00 -0.00000000000E+00 -0.45593999997E+02  0.45594000000E+02  0.51100000000E-03 0.  1.
    9900012    2    1    2    0    0  0.41739638591E+02 -0.10157411234E+02  0.61849092081E+01  0.47787268041E+02  0.19999986306E+02 0.  0.
         12    1    1    2    0    0 -0.41739638591E+02  0.10157411234E+02 -0.61849092081E+01  0.43400731959E+02  0.00000000000E+00 0. -1.
         11    1    3    3    0    0  0.11106932939E+02 -0.13845531157E+01 -0.99122969592E+00  0.11236702506E+02  0.51100000000E-03 0. -1.
        -11    1    3    3    0    0  0.25952086390E+02 -0.10570093315E+00  0.59362696134E+01  0.26622570459E+02  0.51100000000E-03 0.  1.
         12    1    3    3    0    0  0.46806192615E+01 -0.86671571856E+01  0.12398692905E+01  0.99279950750E+01  0.00000000000E+00 0. -1.
</event>
<event>
 7    1  0.4005571E-009  0.4778727E+02  0.7816164E-02  0.1312668E+00
        -11   -1    0    0    0    0  0.00000000000E+00  0.00000000000E+00  0.45593999997E+02  0.45594000000E+02  0.51100000000E-03 0.  1.
         11   -1    0    0    0    0 -0.00000000000E+00 -0.00000000000E+00 -0.45593999997E+02  0.45594000000E+02  0.51100000000E-03 0. -1.
    9900012    2    1    2    0    0 -0.81824808422E+01 -0.93542435674E+01  0.41583271845E+02  0.47787270020E+02  0.19999995331E+02 0.  0.
         12    1    1    2    0    0  0.81824808422E+01  0.93542435674E+01 -0.41583271845E+02  0.43400729980E+02  0.00000000000E+00 0. -1.
         11    1    3    3    0    0 -0.36569238646E+01  0.25180144131E+01  0.13675053893E+02  0.14377781052E+02  0.51100000000E-03 0. -1.
        -11    1    3    3    0    0  0.34487235931E+01  0.64991285229E+00  0.48851731845E+01  0.60150642923E+01  0.51100000000E-03 0.  1.
        -12    1    3    3    0    0 -0.79742805708E+01 -0.12522170833E+02  0.23023044767E+02  0.27394424676E+02  0.00000000000E+00 0.  1.
</event>
<event>
 7    1  0.4005571E-009  0.4778724E+02  0.7816164E-02  0.1312668E+00
        -11   -1    0    0    0    0  0.00000000000E+00  0.00000000000E+00  0.45593999997E+02  0.45594000000E+02  0.51100000000E-03 0. -1.
         11   -1    0    0    0    0 -0.00000000000E+00 -0.00000000000E+00 -0.45593999997E+02  0.45594000000E+02  0.51100000000E-03 0.  1.
    9900012    2    1    2    0    0  0.18830968305E+02 -0.36751488587E+02 -0.13354733158E+02  0.47787237583E+02  0.19999847434E+02 0.  0.
         12    1    1    2    0    0 -0.18830968305E+02  0.36751488587E+02  0.13354733158E+02  0.43400762417E+02  0.00000000000E+00 0. -1.
         11    1    3    3    0    0  0.14725485831E+01 -0.79637372956E+01  0.23609514762E+01  0.84358522496E+01  0.51100000000E-03 0. -1.
        -11    1    3    3    0    0  0.11339001897E+02 -0.25631840446E+02 -0.81664095923E+01  0.29193397448E+02  0.51100000000E-03 0.  1.
        -12    1    3    3    0    0  0.60194178255E+01 -0.31559108458E+01 -0.75492750419E+01  0.10157987886E+02  0.00000000000E+00 0.  1.
</event>
<event>
 7    1  0.4005571E-009  0.4778727E+02  0.7816164E-02  0.1312668E+00
        -11   -1    0    0    0    0  0.00000000000E+00  0.00000000000E+00  0.45593999997E+02  0.45594000000E+02  0.51100000000E-03 0.  1.
         11   -1    0    0    0    0 -0.00000000000E+00 -0.00000000000E+00 -0.45593999997E+02  0.45594000000E+02  0.51100000000E-03 0. -1.
    9900012    2    1    2    0    0 -0.37060669811E+02  0.22256158207E+02  0.38461979284E+01  0.47787273468E+02  0.20000011050E+02 0.  0.
         12    1    1    2    0    0  0.37060669811E+02 -0.22256158207E+02 -0.38461979284E+01  0.43400726532E+02  0.00000000000E+00 0. -1.
         11    1    3    3    0    0 -0.11881666083E+02  0.30435710662E+00  0.42227091987E+01  0.12613401421E+02  0.51100000000E-03 0. -1.
        -11    1    3    3    0    0 -0.15481251117E+02  0.67584905365E+01  0.19311896930E+01  0.17002229983E+02  0.51100000000E-03 0.  1.
        -12    1    3    3    0    0 -0.96977526105E+01  0.15193310564E+02 -0.23077009633E+01  0.18171642065E+02  0.00000000000E+00 0.  1.
</event>
<event>
 7    1  0.4005571E-009  0.4778728E+02  0.7816164E-02  0.1312668E+00
        -11   -1    0    0    0    0  0.00000000000E+00  0.00000000000E+00  0.45593999997E+02  0.45594000000E+02  0.51100000000E-03 0. -1.
         11   -1    0    0    0    0 -0.00000000000E+00 -0.00000000000E+00 -0.45593999997E+02  0.45594000000E+02  0.51100000000E-03 0.  1.
    9900012    2    1    2    0    0  0.13844972919E+02  0.25500627027E+02 -0.32274717789E+02  0.47787278091E+02  0.20000032128E+02 0.  0.
         12    1    1    2    0    0 -0.13844972919E+02 -0.25500627027E+02  0.32274717789E+02  0.43400721909E+02  0.00000000000E+00 0. -1.
         11    1    3    3    0    0  0.17787567325E+02  0.14796259233E+02 -0.19679507657E+02  0.30374493584E+02  0.51100000000E-03 0. -1.
        -11    1    3    3    0    0 -0.26872488288E-01  0.78705821250E+00  0.14375037926E+00  0.80052932060E+00  0.51100000000E-03 0.  1.
        -12    1    3    3    0    0 -0.39157219175E+01  0.99173095808E+01 -0.12738960512E+02  0.16612255186E+02  0.00000000000E+00 0.  1.
</event>
<event>
 7    1  0.4005571E-009  0.4778727E+02  0.7816164E-02  0.1312668E+00
        -11   -1    0    0    0    0  0.00000000000E+00  0.00000000000E+00  0.45593999997E+02  0.45594000000E+02  0.51100000000E-03 0.  1.
         11   -1    0    0    0    0 -0.00000000000E+00 -0.00000000000E+00 -0.45593999997E+02  0.45594000000E+02  0.51100000000E-03 0. -1.
    9900012    2    1    2    0    0 -0.29685920051E+01  0.46340176802E+01  0.43050395980E+02  0.47787271292E+02  0.20000001127E+02 0.  0.
         12    1    1    2    0    0  0.29685920051E+01 -0.46340176802E+01 -0.43050395980E+02  0.43400728708E+02  0.00000000000E+00 0. -1.
         11    1    3    3    0    0 -0.13835356479E-01  0.33624647001E+01  0.14477581030E+02  0.14862930836E+02  0.51100000000E-03 0. -1.
        -11    1    3    3    0    0 -0.33224835159E+01  0.82812160784E+01  0.19572585540E+02  0.21510544889E+02  0.51100000000E-03 0.  1.
         12    1    3    3    0    0  0.36772686732E+00 -0.70096630983E+01  0.90002294104E+01  0.11413795567E+02  0.00000000000E+00 0. -1.
</event>
<event>
 7    1  0.4005571E-009  0.4778727E+02  0.7816164E-02  0.1312668E+00
        -11   -1    0    0    0    0  0.00000000000E+00  0.00000000000E+00  0.45593999997E+02  0.45594000000E+02  0.51100000000E-03 0.  1.
         11   -1    0    0    0    0 -0.00000000000E+00 -0.00000000000E+00 -0.45593999997E+02  0.45594000000E+02  0.51100000000E-03 0. -1.
    9900012    2    1    2    0    0 -0.10515802167E+02  0.27525547111E+02  0.31865117408E+02  0.47787267905E+02  0.19999985685E+02 0.  0.
         12    1    1    2    0    0  0.10515802167E+02 -0.27525547111E+02 -0.31865117408E+02  0.43400732095E+02  0.00000000000E+00 0. -1.
         11    1    3    3    0    0 -0.12825391859E+01  0.14427225966E+01 -0.34167337421E+00  0.19603816490E+01  0.51100000000E-03 0. -1.
        -11    1    3    3    0    0 -0.11203051124E+01  0.17759060529E+02  0.28550713658E+02  0.33641976235E+02  0.51100000000E-03 0.  1.
         12    1    3    3    0    0 -0.81129578686E+01  0.83237639853E+01  0.36560771250E+01  0.12184910020E+02  0.00000000000E+00 0. -1.
</event>
<event>
 7    1  0.4005571E-009  0.4778725E+02  0.7816164E-02  0.1312668E+00
        -11   -1    0    0    0    0  0.00000000000E+00  0.00000000000E+00  0.45593999997E+02  0.45594000000E+02  0.51100000000E-03 0. -1.
         11   -1    0    0    0    0 -0.00000000000E+00 -0.00000000000E+00 -0.45593999997E+02  0.45594000000E+02  0.51100000000E-03 0.  1.
    9900012    2    1    2    0    0 -0.14050509961E+02  0.32069264353E+02 -0.25647038594E+02  0.47787249604E+02  0.19999902245E+02 0.  0.
         12    1    1    2    0    0  0.14050509961E+02 -0.32069264353E+02  0.25647038594E+02  0.43400750396E+02  0.00000000000E+00 0. -1.
         11    1    3    3    0    0 -0.17844945633E+01  0.85762911496E+01 -0.97842711165E+00  0.88144489677E+01  0.51100000000E-03 0. -1.
        -11    1    3    3    0    0 -0.95972521689E+01  0.44987706872E+01 -0.58712584088E+01  0.12116842099E+02  0.51100000000E-03 0.  1.
        -12    1    3    3    0    0 -0.26687632286E+01  0.18994202516E+02 -0.18797353073E+02  0.26855958537E+02  0.00000000000E+00 0.  1.
</event>
<event>
 7    1  0.4005571E-009  0.4778727E+02  0.7816164E-02  0.1312668E+00
        -11   -1    0    0    0    0  0.00000000000E+00  0.00000000000E+00  0.45593999997E+02  0.45594000000E+02  0.51100000000E-03 0.  1.
         11   -1    0    0    0    0 -0.00000000000E+00 -0.00000000000E+00 -0.45593999997E+02  0.45594000000E+02  0.51100000000E-03 0. -1.
    9900012    2    1    2    0    0  0.60808526847E+00  0.97130333199E+01  0.42295514601E+02  0.47787270290E+02  0.19999996561E+02 0.  0.
         12    1    1    2    0    0 -0.60808526847E+00 -0.97130333199E+01 -0.42295514601E+02  0.43400729710E+02  0.00000000000E+00 0. -1.
         11    1    3    3    0    0  0.64625216695E+01  0.60688574173E+01  0.18633227239E+02  0.20634737078E+02  0.51100000000E-03 0. -1.
        -11    1    3    3    0    0 -0.18548437248E+01  0.28076136364E+01  0.22708614448E+02  0.22956574439E+02  0.51100000000E-03 0.  1.
         12    1    3    3    0    0 -0.39995926763E+01  0.83656226627E+00  0.95367291494E+00  0.41959587737E+01  0.00000000000E+00 0. -1.
</event>
<event>
 7    1  0.4005571E-009  0.4778727E+02  0.7816164E-02  0.1312668E+00
        -11   -1    0    0    0    0  0.00000000000E+00  0.00000000000E+00  0.45593999997E+02  0.45594000000E+02  0.51100000000E-03 0. -1.
         11   -1    0    0    0    0 -0.00000000000E+00 -0.00000000000E+00 -0.45593999997E+02  0.45594000000E+02  0.51100000000E-03 0.  1.
    9900012    2    1    2    0    0  0.16900422035E+01 -0.29762838585E+02 -0.31542675867E+02  0.47787271847E+02  0.20000003661E+02 0.  0.
         12    1    1    2    0    0 -0.16900422035E+01  0.29762838585E+02  0.31542675867E+02  0.43400728153E+02  0.00000000000E+00 0. -1.
         11    1    3    3    0    0 -0.36683441241E+01 -0.13050391214E+02 -0.35827350356E+01  0.14021606543E+02  0.51100000000E-03 0. -1.
        -11    1    3    3    0    0  0.38893427878E+00  0.43179382346E+00 -0.31417311957E+01  0.31950259696E+01  0.51100000000E-03 0.  1.
         12    1    3    3    0    0  0.49694520489E+01 -0.17144241195E+02 -0.24818209636E+02  0.30570639335E+02  0.00000000000E+00 0. -1.
</event>
<event>
 7    1  0.4005571E-009  0.4778728E+02  0.7816164E-02  0.1312668E+00
        -11   -1    0    0    0    0  0.00000000000E+00  0.00000000000E+00  0.45593999997E+02  0.45594000000E+02  0.51100000000E-03 0. -1.
         11   -1    0    0    0    0 -0.00000000000E+00 -0.00000000000E+00 -0.45593999997E+02  0.45594000000E+02  0.51100000000E-03 0.  1.
    9900012    2    1    2    0    0 -0.18809285869E+00  0.40807201957E+02  0.14776982312E+02  0.47787282071E+02  0.20000050276E+02 0.  0.
         12    1    1    2    0    0  0.18809285869E+00 -0.40807201957E+02 -0.14776982312E+02  0.43400717929E+02  0.00000000000E+00 0. -1.
         11    1    3    3    0    0 -0.44732805544E+01  0.12850573518E+02  0.99843693921E+01  0.16877058721E+02  0.51100000000E-03 0. -1.
        -11    1    3    3    0    0 -0.35851882759E+01  0.14462879248E+02  0.28163254074E+01  0.15164436692E+02  0.51100000000E-03 0.  1.
         12    1    3    3    0    0  0.78703759716E+01  0.13493749191E+02  0.19762875121E+01  0.15745786658E+02  0.00000000000E+00 0. -1.
</event>
<event>
 7    1  0.4005571E-009  0.4778728E+02  0.7816164E-02  0.1312668E+00
        -11   -1    0    0    0    0  0.00000000000E+00  0.00000000000E+00  0.45593999997E+02  0.45594000000E+02  0.51100000000E-03 0.  1.
         11   -1    0    0    0    0 -0.00000000000E+00 -0.00000000000E+00 -0.45593999997E+02  0.45594000000E+02  0.51100000000E-03 0. -1.
    9900012    2    1    2    0    0  0.35262668102E+02  0.80386947028E+01  0.23990549386E+02  0.47787276111E+02  0.20000023103E+02 0.  0.
         12    1    1    2    0    0 -0.35262668102E+02 -0.80386947028E+01 -0.23990549386E+02  0.43400723889E+02  0.00000000000E+00 0. -1.
         11    1    3    3    0    0  0.10451221913E+02  0.28578962997E+01  0.14750942170E+01  0.10934876037E+02  0.51100000000E-03 0. -1.
        -11    1    3    3    0    0  0.11700815664E+02 -0.48481081655E+01  0.95360254260E+01  0.15853990702E+02  0.51100000000E-03 0.  1.
         12    1    3    3    0    0  0.13110630525E+02  0.10028906569E+02  0.12979429743E+02  0.20998409372E+02  0.00000000000E+00 0. -1.
</event>
<event>
 7    1  0.4005571E-009  0.4778727E+02  0.7816164E-02  0.1312668E+00
        -11   -1    0    0    0    0  0.00000000000E+00  0.00000000000E+00  0.45593999997E+02  0.45594000000E+02  0.51100000000E-03 0.  1.
         11   -1    0    0    0    0 -0.00000000000E+00 -0.00000000000E+00 -0.45593999997E+02  0.45594000000E+02  0.51100000000E-03 0. -1.
    9900012    2    1    2    0    0 -0.21549835413E+02  0.24119394826E+02  0.28939294286E+02  0.47787269973E+02  0.19999995114E+02 0.  0.
         12    1    1    2    0    0  0.21549835413E+02 -0.24119394826E+02 -0.28939294286E+02  0.43400730027E+02  0.00000000000E+00 0. -1.
         11    1    3    3    0    0 -0.46237836861E+00  0.12170120941E+02  0.12573444200E+02  0.17504774685E+02  0.51100000000E-03 0. -1.
        -11    1    3    3    0    0 -0.76899013540E+01  0.87853232495E+01  0.66926876064E+01  0.13457657860E+02  0.51100000000E-03 0.  1.
         12    1    3    3    0    0 -0.13397555690E+02  0.31639506364E+01  0.96731624794E+01  0.16824837427E+02  0.00000000000E+00 0. -1.
</event>
<event>
 7    1  0.4005571E-009  0.4778727E+02  0.7816164E-02  0.1312668E+00
        -11   -1    0    0    0    0  0.00000000000E+00  0.00000000000E+00  0.45593999997E+02  0.45594000000E+02  0.51100000000E-03 0. -1.
         11   -1    0    0    0    0 -0.00000000000E+00 -0.00000000000E+00 -0.45593999997E+02  0.45594000000E+02  0.51100000000E-03 0.  1.
    9900012    2    1    2    0    0 -0.22815443654E+00  0.37623755517E+02 -0.21633869805E+02  0.47787270094E+02  0.19999995665E+02 0.  0.
         12    1    1    2    0    0  0.22815443654E+00 -0.37623755517E+02  0.21633869805E+02  0.43400729906E+02  0.00000000000E+00 0. -1.
         11    1    3    3    0    0  0.10633451978E+01  0.33430398550E+01  0.24955956208E+01  0.43051848097E+01  0.51100000000E-03 0. -1.
        -11    1    3    3    0    0  0.15242382136E+01  0.11678815793E+02 -0.24349305160E+01  0.12026925099E+02  0.51100000000E-03 0.  1.
        -12    1    3    3    0    0 -0.28157378479E+01  0.22601899870E+02 -0.21694534910E+02  0.31455160185E+02  0.00000000000E+00 0.  1.
</event>
<event>
 7    1  0.4005571E-009  0.4778728E+02  0.7816164E-02  0.1312668E+00
        -11   -1    0    0    0    0  0.00000000000E+00  0.00000000000E+00  0.45593999997E+02  0.45594000000E+02  0.51100000000E-03 0.  1.
         11   -1    0    0    0    0 -0.00000000000E+00 -0.00000000000E+00 -0.45593999997E+02  0.45594000000E+02  0.51100000000E-03 0. -1.
    9900012    2    1    2    0    0  0.89865936209E+01 -0.20460077702E+02  0.37205498379E+02  0.47787277033E+02  0.20000027303E+02 0.  0.
         12    1    1    2    0    0 -0.89865936209E+01  0.20460077702E+02 -0.37205498379E+02  0.43400722967E+02  0.00000000000E+00 0. -1.
         11    1    3    3    0    0 -0.36903148416E-01 -0.14491638668E+02  0.13628076172E+02  0.19893049377E+02  0.51100000000E-03 0. -1.
        -11    1    3    3    0    0  0.52122263899E+01 -0.87089572829E+01  0.17270708728E+02  0.20032239543E+02  0.51100000000E-03 0.  1.
         12    1    3    3    0    0  0.38112703794E+01  0.27405182481E+01  0.63067134788E+01  0.78619881122E+01  0.00000000000E+00 0. -1.
</event>
<event>
 7    1  0.4005571E-009  0.4778727E+02  0.7816164E-02  0.1312668E+00
        -11   -1    0    0    0    0  0.00000000000E+00  0.00000000000E+00  0.45593999997E+02  0.45594000000E+02  0.51100000000E-03 0.  1.
         11   -1    0    0    0    0 -0.00000000000E+00 -0.00000000000E+00 -0.45593999997E+02  0.45594000000E+02  0.51100000000E-03 0. -1.
    9900012    2    1    2    0    0  0.32025673824E+02  0.24764736641E+01  0.29186408666E+02  0.47787272396E+02  0.20000006164E+02 0.  0.
         12    1    1    2    0    0 -0.32025673824E+02 -0.24764736641E+01 -0.29186408666E+02  0.43400727604E+02  0.00000000000E+00 0. -1.
         11    1    3    3    0    0  0.14572328172E+02  0.19450236167E+01  0.11499475982E+02  0.18664774666E+02  0.51100000000E-03 0. -1.
        -11    1    3    3    0    0  0.12135684468E+02 -0.64995517635E+01  0.13785537549E+02  0.19482301106E+02  0.51100000000E-03 0.  1.
         12    1    3    3    0    0  0.53176611847E+01  0.70310018109E+01  0.39013951348E+01  0.96401966234E+01  0.00000000000E+00 0. -1.
</event>
<event>
 7    1  0.4005571E-009  0.4778730E+02  0.7816164E-02  0.1312668E+00
        -11   -1    0    0    0    0  0.00000000000E+00  0.00000000000E+00  0.45593999997E+02  0.45594000000E+02  0.51100000000E-03 0. -1.
         11   -1    0    0    0    0 -0.00000000000E+00 -0.00000000000E+00 -0.45593999997E+02  0.45594000000E+02  0.51100000000E-03 0.  1.
    9900012    2    1    2    0    0 -0.15226136713E+02 -0.33463571265E+02 -0.23064584453E+02  0.47787298427E+02  0.20000124850E+02 0.  0.
         12    1    1    2    0    0  0.15226136713E+02  0.33463571265E+02  0.23064584453E+02  0.43400701573E+02  0.00000000000E+00 0. -1.
         11    1    3    3    0    0 -0.35503062989E+01 -0.19788570042E+01  0.12979014965E+01  0.42667433031E+01  0.51100000000E-03 0. -1.
        -11    1    3    3    0    0  0.20670954638E+01 -0.99930919061E+01 -0.43308121618E+01  0.11085607955E+02  0.51100000000E-03 0.  1.
        -12    1    3    3    0    0 -0.13742925878E+02 -0.21491622355E+02 -0.20031673787E+02  0.32434947169E+02  0.00000000000E+00 0.  1.
</event>
<event>
 7    1  0.4005571E-009  0.4778727E+02  0.7816164E-02  0.1312668E+00
        -11   -1    0    0    0    0  0.00000000000E+00  0.00000000000E+00  0.45593999997E+02  0.45594000000E+02  0.51100000000E-03 0.  1.
         11   -1    0    0    0    0 -0.00000000000E+00 -0.00000000000E+00 -0.45593999997E+02  0.45594000000E+02  0.51100000000E-03 0. -1.
    9900012    2    1    2    0    0 -0.23158521032E+02  0.91453091635E+01  0.35548127759E+02  0.47787272319E+02  0.20000005812E+02 0.  0.
         12    1    1    2    0    0  0.23158521032E+02 -0.91453091635E+01 -0.35548127759E+02  0.43400727681E+02  0.00000000000E+00 0. -1.
         11    1    3    3    0    0  0.20968927991E+00 -0.13100930737E+01 -0.14469901134E+01  0.19631846844E+01  0.51100000000E-03 0. -1.
        -11    1    3    3    0    0 -0.64925590868E+01  0.48184725330E+01  0.59378630949E+01  0.10031411638E+02  0.51100000000E-03 0.  1.
        -12    1    3    3    0    0 -0.16875651225E+02  0.56369297042E+01  0.31057254777E+02  0.35792675997E+02  0.00000000000E+00 0.  1.
</event>
<event>
 7    1  0.4005571E-009  0.4778730E+02  0.7816164E-02  0.1312668E+00
        -11   -1    0    0    0    0  0.00000000000E+00  0.00000000000E+00  0.45593999997E+02  0.45594000000E+02  0.51100000000E-03 0. -1.
         11   -1    0    0    0    0 -0.00000000000E+00 -0.00000000000E+00 -0.45593999997E+02  0.45594000000E+02  0.51100000000E-03 0.  1.
    9900012    2    1    2    0    0 -0.32090786481E+01  0.22223502773E+02 -0.37140793968E+02  0.47787299109E+02  0.20000127955E+02 0.  0.
         12    1    1    2    0    0  0.32090786481E+01 -0.22223502773E+02  0.37140793968E+02  0.43400700891E+02  0.00000000000E+00 0. -1.
         11    1    3    3    0    0  0.42653604073E+00  0.27378229980E+01 -0.41915083696E+01  0.50245746522E+01  0.51100000000E-03 0. -1.
        -11    1    3    3    0    0  0.72915065038E+01  0.11613381360E+02 -0.18235910747E+02  0.22816334823E+02  0.51100000000E-03 0.  1.
        -12    1    3    3    0    0 -0.10927121193E+02  0.78722984150E+01 -0.14713374852E+02  0.19946389634E+02  0.00000000000E+00 0.  1.
</event>
<event>
 7    1  0.4005571E-009  0.4778728E+02  0.7816164E-02  0.1312668E+00
        -11   -1    0    0    0    0  0.00000000000E+00  0.00000000000E+00  0.45593999997E+02  0.45594000000E+02  0.51100000000E-03 0. -1.
         11   -1    0    0    0    0 -0.00000000000E+00 -0.00000000000E+00 -0.45593999997E+02  0.45594000000E+02  0.51100000000E-03 0.  1.
    9900012    2    1    2    0    0 -0.12782780537E+02  0.21874784526E+02 -0.35238000960E+02  0.47787281251E+02  0.20000046534E+02 0.  0.
         12    1    1    2    0    0  0.12782780537E+02 -0.21874784526E+02  0.35238000960E+02  0.43400718749E+02  0.00000000000E+00 0. -1.
         11    1    3    3    0    0  0.25711865521E+01 -0.22168609363E+00 -0.27753369342E+01  0.37898074317E+01  0.51100000000E-03 0. -1.
        -11    1    3    3    0    0 -0.85704814604E+01  0.18667696351E+02 -0.16608569316E+02  0.26415537369E+02  0.51100000000E-03 0.  1.
         12    1    3    3    0    0 -0.67834856282E+01  0.34287742686E+01 -0.15854094710E+02  0.17581936450E+02  0.00000000000E+00 0. -1.
</event>
<event>
 7    1  0.4005571E-009  0.4778726E+02  0.7816164E-02  0.1312668E+00
        -11   -1    0    0    0    0  0.00000000000E+00  0.00000000000E+00  0.45593999997E+02  0.45594000000E+02  0.51100000000E-03 0.  1.
         11   -1    0    0    0    0 -0.00000000000E+00 -0.00000000000E+00 -0.45593999997E+02  0.45594000000E+02  0.51100000000E-03 0. -1.
    9900012    2    1    2    0    0  0.36899054503E+02  0.21425498959E+02 -0.79392677037E+01  0.47787260369E+02  0.19999951326E+02 0.  0.
         12    1    1    2    0    0 -0.36899054503E+02 -0.21425498959E+02  0.79392677037E+01  0.43400739631E+02  0.00000000000E+00 0. -1.
         11    1    3    3    0    0  0.58358554649E+01  0.36993710953E+01 -0.83726951496E+01  0.10855624341E+02  0.51100000000E-03 0. -1.
        -11    1    3    3    0    0  0.57684136666E+01  0.14060170206E+01 -0.29672351954E+01  0.66374667651E+01  0.51100000000E-03 0.  1.
        -12    1    3    3    0    0  0.25294785372E+02  0.16320110843E+02  0.34006626413E+01  0.30294169263E+02  0.00000000000E+00 0.  1.
</event>
<event>
 7    1  0.4005571E-009  0.4778727E+02  0.7816164E-02  0.1312668E+00
        -11   -1    0    0    0    0  0.00000000000E+00  0.00000000000E+00  0.45593999997E+02  0.45594000000E+02  0.51100000000E-03 0.  1.
         11   -1    0    0    0    0 -0.00000000000E+00 -0.00000000000E+00 -0.45593999997E+02  0.45594000000E+02  0.51100000000E-03 0. -1.
    9900012    2    1    2    0    0  0.32667935448E+02  0.28553927996E+02 -0.10499566100E+01  0.47787271672E+02  0.20000002863E+02 0.  0.
         12    1    1    2    0    0 -0.32667935448E+02 -0.28553927996E+02  0.10499566100E+01  0.43400728328E+02  0.00000000000E+00 0. -1.
         11    1    3    3    0    0  0.21614707724E+02  0.12092022290E+02 -0.53811269252E+01  0.25345001880E+02  0.51100000000E-03 0. -1.
        -11    1    3    3    0    0  0.17235895174E+01 -0.10715339903E+01  0.11359058744E+01  0.23257747814E+01  0.51100000000E-03 0.  1.
         12    1    3    3    0    0  0.93296382068E+01  0.17533439697E+02  0.31952644408E+01  0.20116495011E+02  0.00000000000E+00 0. -1.
</event>
<event>
 7    1  0.4005571E-009  0.4778727E+02  0.7816164E-02  0.1312668E+00
        -11   -1    0    0    0    0  0.00000000000E+00  0.00000000000E+00  0.45593999997E+02  0.45594000000E+02  0.51100000000E-03 0.  1.
         11   -1    0    0    0    0 -0.00000000000E+00 -0.00000000000E+00 -0.45593999997E+02  0.45594000000E+02  0.51100000000E-03 0. -1.
    9900012    2    1    2    0    0  0.68822440443E+01  0.21752836292E+01  0.42796332122E+02  0.47787272067E+02  0.20000004664E+02 0.  0.
         12    1    1    2    0    0 -0.68822440443E+01 -0.21752836292E+01 -0.42796332122E+02  0.43400727933E+02  0.00000000000E+00 0. -1.
         11    1    3    3    0    0  0.40156746244E+01 -0.14412191176E+01  0.16160437858E+02  0.16714140937E+02  0.51100000000E-03 0. -1.
        -11    1    3    3    0    0  0.66831407009E+01 -0.96464770756E+00  0.23261808638E+02  0.24222028325E+02  0.51100000000E-03 0.  1.
         12    1    3    3    0    0 -0.38165712810E+01  0.45811504544E+01  0.33740856264E+01  0.68511028049E+01  0.00000000000E+00 0. -1.
</event>
<event>
 7    1  0.4005571E-009  0.4778727E+02  0.7816164E-02  0.1312668E+00
        -11   -1    0    0    0    0  0.00000000000E+00  0.00000000000E+00  0.45593999997E+02  0.45594000000E+02  0.51100000000E-03 0.  1.
         11   -1    0    0    0    0 -0.00000000000E+00 -0.00000000000E+00 -0.45593999997E+02  0.45594000000E+02  0.51100000000E-03 0. -1.
    9900012    2    1    2    0    0 -0.60281621796E+01  0.54276698855E+01  0.42635963250E+02  0.47787266113E+02  0.19999977518E+02 0.  0.
         12    1    1    2    0    0  0.60281621796E+01 -0.54276698855E+01 -0.42635963250E+02  0.43400733887E+02  0.00000000000E+00 0. -1.
         11    1    3    3    0    0  0.22659687724E+01 -0.41241851200E+00 -0.90812928326E+00  0.24757630263E+01  0.51100000000E-03 0. -1.
        -11    1    3    3    0    0 -0.26843653356E+01  0.12964439268E+01  0.33927100769E+01  0.45163111094E+01  0.51100000000E-03 0.  1.
        -12    1    3    3    0    0 -0.56097656163E+01  0.45436444707E+01  0.40151382456E+02  0.40795191978E+02  0.00000000000E+00 0.  1.
</event>
<event>
 7    1  0.4005571E-009  0.4778727E+02  0.7816164E-02  0.1312668E+00
        -11   -1    0    0    0    0  0.00000000000E+00  0.00000000000E+00  0.45593999997E+02  0.45594000000E+02  0.51100000000E-03 0.  1.
         11   -1    0    0    0    0 -0.00000000000E+00 -0.00000000000E+00 -0.45593999997E+02  0.45594000000E+02  0.51100000000E-03 0. -1.
    9900012    2    1    2    0    0 -0.16042498721E+02 -0.34422177597E+01  0.40179754989E+02  0.47787270291E+02  0.19999996563E+02 0.  0.
         12    1    1    2    0    0  0.16042498721E+02  0.34422177597E+01 -0.40179754989E+02  0.43400729709E+02  0.00000000000E+00 0. -1.
         11    1    3    3    0    0 -0.12058385755E+02 -0.69982270760E+01  0.22085482589E+02  0.26117970646E+02  0.51100000000E-03 0. -1.
        -11    1    3    3    0    0 -0.20358977789E+01  0.52873161136E-01 -0.92170116565E+00  0.22354437227E+01  0.51100000000E-03 0.  1.
        -12    1    3    3    0    0 -0.19482151878E+01  0.35031361552E+01  0.19015973566E+02  0.19433855922E+02  0.00000000000E+00 0.  1.
</event>
<event>
 7    1  0.4005571E-009  0.4778726E+02  0.7816164E-02  0.1312668E+00
        -11   -1    0    0    0    0  0.00000000000E+00  0.00000000000E+00  0.45593999997E+02  0.45594000000E+02  0.51100000000E-03 0.  1.
         11   -1    0    0    0    0 -0.00000000000E+00 -0.00000000000E+00 -0.45593999997E+02  0.45594000000E+02  0.51100000000E-03 0. -1.
    9900012    2    1    2    0    0 -0.58752278697E+00  0.20865615375E+02  0.38051346633E+02  0.47787261889E+02  0.19999958255E+02 0.  0.
         12    1    1    2    0    0  0.58752278697E+00 -0.20865615375E+02 -0.38051346633E+02  0.43400738111E+02  0.00000000000E+00 0. -1.
         11    1    3    3    0    0  0.40574091465E+01  0.96156144540E+01  0.98200271841E+01  0.14330231836E+02  0.51100000000E-03 0. -1.
        -11    1    3    3    0    0 -0.21703297350E+01  0.11499831705E+02  0.11045672661E+02  0.16092338090E+02  0.51100000000E-03 0.  1.
        -12    1    3    3    0    0 -0.24746021984E+01 -0.24983078323E+00  0.17185646788E+02  0.17364691963E+02  0.00000000000E+00 0.  1.
</event>
<event>
 7    1  0.4005571E-009  0.4778727E+02  0.7816164E-02  0.1312668E+00
        -11   -1    0    0    0    0  0.00000000000E+00  0.00000000000E+00  0.45593999997E+02  0.45594000000E+02  0.51100000000E-03 0.  1.
         11   -1    0    0    0    0 -0.00000000000E+00 -0.00000000000E+00 -0.45593999997E+02  0.45594000000E+02  0.51100000000E-03 0. -1.
    9900012    2    1    2    0    0 -0.79097367649E+01 -0.27725142355E+02  0.32440347770E+02  0.47787267084E+02  0.19999981941E+02 0.  0.
         12    1    1    2    0    0  0.79097367649E+01  0.27725142355E+02 -0.32440347770E+02  0.43400732916E+02  0.00000000000E+00 0. -1.
         11    1    3    3    0    0 -0.89560966842E+01 -0.58615139289E+01  0.71007606259E+01  0.12844836125E+02  0.51100000000E-03 0. -1.
        -11    1    3    3    0    0 -0.10298357290E+01 -0.32546344660E+00 -0.54107984324E+00  0.12079965818E+01  0.51100000000E-03 0.  1.
        -12    1    3    3    0    0  0.20761956483E+01 -0.21538164979E+02  0.25880666987E+02  0.33734434377E+02  0.00000000000E+00 0.  1.
</event>
<event>
 7    1  0.4005571E-009  0.4778733E+02  0.7816164E-02  0.1312667E+00
        -11   -1    0    0    0    0  0.00000000000E+00  0.00000000000E+00  0.45593999997E+02  0.45594000000E+02  0.51100000000E-03 0.  1.
         11   -1    0    0    0    0 -0.00000000000E+00 -0.00000000000E+00 -0.45593999997E+02  0.45594000000E+02  0.51100000000E-03 0. -1.
    9900012    2    1    2    0    0 -0.70235220693E+00 -0.13467021838E+02  0.41252444637E+02  0.47787329910E+02  0.20000268388E+02 0.  0.
         12    1    1    2    0    0  0.70235220693E+00  0.13467021838E+02 -0.41252444637E+02  0.43400670090E+02  0.00000000000E+00 0. -1.
         11    1    3    3    0    0  0.19549834496E+01  0.26200453005E+01  0.13317791552E+02  0.13713138582E+02  0.51100000000E-03 0. -1.
        -11    1    3    3    0    0 -0.35464099726E+01 -0.19180457124E+01  0.12355371958E+02  0.12996581841E+02  0.51100000000E-03 0.  1.
         12    1    3    3    0    0  0.88907431612E+00 -0.14169021426E+02  0.15579281126E+02  0.21077609487E+02  0.00000000000E+00 0. -1.
</event>
<event>
 7    1  0.4005571E-009  0.4778727E+02  0.7816164E-02  0.1312668E+00
        -11   -1    0    0    0    0  0.00000000000E+00  0.00000000000E+00  0.45593999997E+02  0.45594000000E+02  0.51100000000E-03 0.  1.
         11   -1    0    0    0    0 -0.00000000000E+00 -0.00000000000E+00 -0.45593999997E+02  0.45594000000E+02  0.51100000000E-03 0. -1.
    9900012    2    1    2    0    0  0.28221246195E+02  0.29360779349E+02  0.15004303603E+02  0.47787271580E+02  0.20000002441E+02 0.  0.
         12    1    1    2    0    0 -0.28221246195E+02 -0.29360779349E+02 -0.15004303603E+02  0.43400728420E+02  0.00000000000E+00 0. -1.
         11    1    3    3    0    0  0.19018710948E+01  0.13009767662E+02  0.74842196241E+01  0.15128936246E+02  0.51100000000E-03 0. -1.
        -11    1    3    3    0    0  0.87960362033E+01  0.89825348048E+01  0.12157217731E+01  0.12630683438E+02  0.51100000000E-03 0.  1.
         12    1    3    3    0    0  0.17523338897E+02  0.73684768821E+01  0.63043622056E+01  0.20027651896E+02  0.00000000000E+00 0. -1.
</event>
<event>
 7    1  0.4005571E-009  0.4778727E+02  0.7816164E-02  0.1312668E+00
        -11   -1    0    0    0    0  0.00000000000E+00  0.00000000000E+00  0.45593999997E+02  0.45594000000E+02  0.51100000000E-03 0. -1.
         11   -1    0    0    0    0 -0.00000000000E+00 -0.00000000000E+00 -0.45593999997E+02  0.45594000000E+02  0.51100000000E-03 0.  1.
    9900012    2    1    2    0    0  0.12013769639E+02 -0.38525654500E+02 -0.15970817137E+02  0.47787265955E+02  0.19999976797E+02 0.  0.
         12    1    1    2    0    0 -0.12013769639E+02  0.38525654500E+02  0.15970817137E+02  0.43400734045E+02  0.00000000000E+00 0. -1.
         11    1    3    3    0    0  0.33605812741E+01 -0.92186674307E+00 -0.68930277074E+01  0.77238057995E+01  0.51100000000E-03 0. -1.
        -11    1    3    3    0    0  0.56163628039E+01 -0.14003078408E+02 -0.51749387090E+01  0.15950226548E+02  0.51100000000E-03 0.  1.
         12    1    3    3    0    0  0.30368255607E+01 -0.23600709349E+02 -0.39028507210E+01  0.24113233608E+02  0.00000000000E+00 0. -1.
</event>
<event>
 7    1  0.4005571E-009  0.4778727E+02  0.7816164E-02  0.1312668E+00
        -11   -1    0    0    0    0  0.00000000000E+00  0.00000000000E+00  0.45593999997E+02  0.45594000000E+02  0.51100000000E-03 0.  1.
         11   -1    0    0    0    0 -0.00000000000E+00 -0.00000000000E+00 -0.45593999997E+02  0.45594000000E+02  0.51100000000E-03 0. -1.
    9900012    2    1    2    0    0 -0.33217543467E+01 -0.14961179171E+01  0.43247552399E+02  0.47787271789E+02  0.20000003394E+02 0.  0.
         12    1    1    2    0    0  0.33217543467E+01  0.14961179171E+01 -0.43247552399E+02  0.43400728211E+02  0.00000000000E+00 0. -1.
         11    1    3    3    0    0  0.26054160747E+01 -0.12751488250E+01  0.62605626676E+01  0.68999161317E+01  0.51100000000E-03 0. -1.
        -11    1    3    3    0    0  0.11748270450E+01 -0.27537394355E+01  0.31300457117E+02  0.31443312731E+02  0.51100000000E-03 0.  1.
         12    1    3    3    0    0 -0.71019974664E+01  0.25327703435E+01  0.56865326142E+01  0.94440429265E+01  0.00000000000E+00 0. -1.
</event>
<event>
 7    1  0.4005571E-009  0.4778727E+02  0.7816164E-02  0.1312668E+00
        -11   -1    0    0    0    0  0.00000000000E+00  0.00000000000E+00  0.45593999997E+02  0.45594000000E+02  0.51100000000E-03 0.  1.
         11   -1    0    0    0    0 -0.00000000000E+00 -0.00000000000E+00 -0.45593999997E+02  0.45594000000E+02  0.51100000000E-03 0. -1.
    9900012    2    1    2    0    0 -0.52813224501E+01 -0.13457605771E+02  0.40922168357E+02  0.47787269788E+02  0.19999994270E+02 0.  0.
         12    1    1    2    0    0  0.52813224501E+01  0.13457605771E+02 -0.40922168357E+02  0.43400730212E+02  0.00000000000E+00 0. -1.
         11    1    3    3    0    0 -0.10788244802E+01 -0.17271506161E+01 -0.15115838142E+01  0.25360988542E+01  0.51100000000E-03 0. -1.
        -11    1    3    3    0    0  0.16214789303E+01  0.34534336577E+00  0.17291319141E+01  0.23954860466E+01  0.51100000000E-03 0.  1.
        -12    1    3    3    0    0 -0.58239769002E+01 -0.12075798521E+02  0.40704620257E+02  0.42855684887E+02  0.00000000000E+00 0.  1.
</event>
<event>
 7    1  0.4005571E-009  0.4778727E+02  0.7816164E-02  0.1312668E+00
        -11   -1    0    0    0    0  0.00000000000E+00  0.00000000000E+00  0.45593999997E+02  0.45594000000E+02  0.51100000000E-03 0. -1.
         11   -1    0    0    0    0 -0.00000000000E+00 -0.00000000000E+00 -0.45593999997E+02  0.45594000000E+02  0.51100000000E-03 0.  1.
    9900012    2    1    2    0    0  0.20811431252E+02 -0.38008619789E+02  0.24192487896E+01  0.47787267129E+02  0.19999982149E+02 0.  0.
         12    1    1    2    0    0 -0.20811431252E+02  0.38008619789E+02 -0.24192487896E+01  0.43400732871E+02  0.00000000000E+00 0. -1.
         11    1    3    3    0    0  0.21331260769E+02 -0.31943199176E+02  0.86381069011E+00  0.38420526139E+02  0.51100000000E-03 0. -1.
        -11    1    3    3    0    0  0.15483343432E+01 -0.54400373427E+01  0.33363090967E+01  0.65667575088E+01  0.51100000000E-03 0.  1.
         12    1    3    3    0    0 -0.20681638608E+01 -0.62538327037E+00 -0.17808709972E+01  0.27999834819E+01  0.00000000000E+00 0. -1.
</event>
<event>
 7    1  0.4005571E-009  0.4778727E+02  0.7816164E-02  0.1312668E+00
        -11   -1    0    0    0    0  0.00000000000E+00  0.00000000000E+00  0.45593999997E+02  0.45594000000E+02  0.51100000000E-03 0.  1.
         11   -1    0    0    0    0 -0.00000000000E+00 -0.00000000000E+00 -0.45593999997E+02  0.45594000000E+02  0.51100000000E-03 0. -1.
    9900012    2    1    2    0    0 -0.98201274978E+00  0.12477109537E+02  0.41556958531E+02  0.47787269433E+02  0.19999992651E+02 0.  0.
         12    1    1    2    0    0  0.98201274978E+00 -0.12477109537E+02 -0.41556958531E+02  0.43400730567E+02  0.00000000000E+00 0. -1.
         11    1    3    3    0    0  0.12177272739E+01  0.14642291347E+01  0.24571562271E+01  0.31087688332E+01  0.51100000000E-03 0.  1.
        -11    1    3    3    0    0  0.40364408224E+01 -0.28513825713E+01  0.37667995278E+01  0.62138567753E+01  0.51100000000E-03 0. -1.
        -12    1    3    3    0    0 -0.62361808460E+01  0.13864262974E+02  0.35333002776E+02  0.38464643824E+02  0.00000000000E+00 0.  1.
</event>
<event>
 7    1  0.4005571E-009  0.4778727E+02  0.7816164E-02  0.1312668E+00
        -11   -1    0    0    0    0  0.00000000000E+00  0.00000000000E+00  0.45593999997E+02  0.45594000000E+02  0.51100000000E-03 0.  1.
         11   -1    0    0    0    0 -0.00000000000E+00 -0.00000000000E+00 -0.45593999997E+02  0.45594000000E+02  0.51100000000E-03 0. -1.
    9900012    2    1    2    0    0 -0.21652979570E+02 -0.19249226954E+01  0.37564162682E+02  0.47787272245E+02  0.20000005476E+02 0.  0.
         12    1    1    2    0    0  0.21652979570E+02  0.19249226954E+01 -0.37564162682E+02  0.43400727755E+02  0.00000000000E+00 0. -1.
         11    1    3    3    0    0 -0.14534401683E+01  0.54568924810E-01  0.67791391450E+01  0.69334114186E+01  0.51100000000E-03 0.  1.
        -11    1    3    3    0    0 -0.44968367000E+01 -0.86314714273E+01  0.97773968558E+01  0.13795699650E+02  0.51100000000E-03 0. -1.
         12    1    3    3    0    0 -0.15702702701E+02  0.66519798070E+01  0.21007626681E+02  0.27058161177E+02  0.00000000000E+00 0. -1.
</event>
<event>
 7    1  0.4005571E-009  0.4778728E+02  0.7816164E-02  0.1312668E+00
        -11   -1    0    0    0    0  0.00000000000E+00  0.00000000000E+00  0.45593999997E+02  0.45594000000E+02  0.51100000000E-03 0.  1.
         11   -1    0    0    0    0 -0.00000000000E+00 -0.00000000000E+00 -0.45593999997E+02  0.45594000000E+02  0.51100000000E-03 0. -1.
    9900012    2    1    2    0    0 -0.57117502770E+01  0.27646016277E+02  0.32965080165E+02  0.47787276303E+02  0.20000023974E+02 0.  0.
         12    1    1    2    0    0  0.57117502770E+01 -0.27646016277E+02 -0.32965080165E+02  0.43400723697E+02  0.00000000000E+00 0. -1.
         11    1    3    3    0    0 -0.33821952523E+01  0.38360930682E+00  0.76910946368E+00  0.34896891628E+01  0.51100000000E-03 0. -1.
        -11    1    3    3    0    0 -0.78323449539E+01  0.13907089848E+02  0.17696032948E+02  0.23830702001E+02  0.51100000000E-03 0.  1.
         12    1    3    3    0    0  0.55027899292E+01  0.13355317121E+02  0.14499937753E+02  0.20466885138E+02  0.00000000000E+00 0. -1.
</event>
<event>
 7    1  0.4005571E-009  0.4778727E+02  0.7816164E-02  0.1312668E+00
        -11   -1    0    0    0    0  0.00000000000E+00  0.00000000000E+00  0.45593999997E+02  0.45594000000E+02  0.51100000000E-03 0.  1.
         11   -1    0    0    0    0 -0.00000000000E+00 -0.00000000000E+00 -0.45593999997E+02  0.45594000000E+02  0.51100000000E-03 0. -1.
    9900012    2    1    2    0    0  0.11806088610E+02  0.41012530618E+02  0.78874673715E+01  0.47787268008E+02  0.19999986155E+02 0.  0.
         12    1    1    2    0    0 -0.11806088610E+02 -0.41012530618E+02 -0.78874673715E+01  0.43400731992E+02  0.00000000000E+00 0. -1.
         11    1    3    3    0    0  0.83985579900E+01  0.11846848462E+02 -0.23014794594E+01  0.14703074602E+02  0.51100000000E-03 0. -1.
        -11    1    3    3    0    0  0.52109605472E+01  0.51981632216E+01  0.13995564284E+01  0.74922472704E+01  0.51100000000E-03 0.  1.
        -12    1    3    3    0    0 -0.18034299271E+01  0.23967518934E+02  0.87893904025E+01  0.25591946135E+02  0.00000000000E+00 0.  1.
</event>
<event>
 7    1  0.4005571E-009  0.4778727E+02  0.7816164E-02  0.1312668E+00
        -11   -1    0    0    0    0  0.00000000000E+00  0.00000000000E+00  0.45593999997E+02  0.45594000000E+02  0.51100000000E-03 0.  1.
         11   -1    0    0    0    0 -0.00000000000E+00 -0.00000000000E+00 -0.45593999997E+02  0.45594000000E+02  0.51100000000E-03 0. -1.
    9900012    2    1    2    0    0 -0.16386324179E+02  0.30642101982E+02  0.26003330785E+02  0.47787271367E+02  0.20000001469E+02 0.  0.
         12    1    1    2    0    0  0.16386324179E+02 -0.30642101982E+02 -0.26003330785E+02  0.43400728633E+02  0.00000000000E+00 0. -1.
         11    1    3    3    0    0 -0.77175289118E+00  0.20985866845E+00 -0.19888389213E+00  0.82413484906E+00  0.51100000000E-03 0. -1.
        -11    1    3    3    0    0 -0.10871270741E+02  0.57208987045E+01  0.27990307294E+01  0.12599515181E+02  0.51100000000E-03 0.  1.
        -12    1    3    3    0    0 -0.47433005469E+01  0.24711344609E+02  0.23403183948E+02  0.34363621337E+02  0.00000000000E+00 0.  1.
</event>
<event>
 7    1  0.4005571E-009  0.4778727E+02  0.7816164E-02  0.1312668E+00
        -11   -1    0    0    0    0  0.00000000000E+00  0.00000000000E+00  0.45593999997E+02  0.45594000000E+02  0.51100000000E-03 0.  1.
         11   -1    0    0    0    0 -0.00000000000E+00 -0.00000000000E+00 -0.45593999997E+02  0.45594000000E+02  0.51100000000E-03 0. -1.
    9900012    2    1    2    0    0 -0.20419056813E+02  0.12708421194E+02  0.36127293605E+02  0.47787271969E+02  0.20000004216E+02 0.  0.
         12    1    1    2    0    0  0.20419056813E+02 -0.12708421194E+02 -0.36127293605E+02  0.43400728031E+02  0.00000000000E+00 0. -1.
         11    1    3    3    0    0 -0.22475528208E+01  0.72641446136E+01  0.63474195287E+01  0.99050000294E+01  0.51100000000E-03 0. -1.
        -11    1    3    3    0    0 -0.10057181599E+02  0.72468798259E+01  0.25890709853E+02  0.28705278711E+02  0.51100000000E-03 0.  1.
         12    1    3    3    0    0 -0.81143223931E+01 -0.18026032455E+01  0.38891642233E+01  0.91769932285E+01  0.00000000000E+00 0. -1.
</event>
<event>
 7    1  0.4005571E-009  0.4778727E+02  0.7816164E-02  0.1312668E+00
        -11   -1    0    0    0    0  0.00000000000E+00  0.00000000000E+00  0.45593999997E+02  0.45594000000E+02  0.51100000000E-03 0. -1.
         11   -1    0    0    0    0 -0.00000000000E+00 -0.00000000000E+00 -0.45593999997E+02  0.45594000000E+02  0.51100000000E-03 0.  1.
    9900012    2    1    2    0    0 -0.25065547118E+02  0.16774108122E+02 -0.31208507869E+02  0.47787270525E+02  0.19999997630E+02 0.  0.
         12    1    1    2    0    0  0.25065547118E+02 -0.16774108122E+02  0.31208507869E+02  0.43400729475E+02  0.00000000000E+00 0. -1.
         11    1    3    3    0    0 -0.15353958286E+01 -0.74485885301E-01  0.10995456565E+01  0.18899707430E+01  0.51100000000E-03 0. -1.
        -11    1    3    3    0    0 -0.57625674251E+01  0.12329456619E+02 -0.18395922546E+02  0.22883021007E+02  0.51100000000E-03 0.  1.
        -12    1    3    3    0    0 -0.17767583865E+02  0.45191373883E+01 -0.13912130979E+02  0.23014278774E+02  0.00000000000E+00 0.  1.
</event>
<event>
 7    1  0.4005571E-009  0.4778727E+02  0.7816164E-02  0.1312668E+00
        -11   -1    0    0    0    0  0.00000000000E+00  0.00000000000E+00  0.45593999997E+02  0.45594000000E+02  0.51100000000E-03 0. -1.
         11   -1    0    0    0    0 -0.00000000000E+00 -0.00000000000E+00 -0.45593999997E+02  0.45594000000E+02  0.51100000000E-03 0.  1.
    9900012    2    1    2    0    0 -0.17474146085E+02 -0.39720039175E+02 -0.77178778220E+00  0.47787274777E+02  0.20000017020E+02 0.  0.
         12    1    1    2    0    0  0.17474146085E+02  0.39720039175E+02  0.77178778220E+00  0.43400725223E+02  0.00000000000E+00 0. -1.
         11    1    3    3    0    0 -0.12337360319E+02 -0.25359247576E+02 -0.46681987532E+01  0.28584855730E+02  0.51100000000E-03 0. -1.
        -11    1    3    3    0    0 -0.63740240929E+01 -0.53758169244E+01 -0.17482126186E+01  0.85196149187E+01  0.51100000000E-03 0.  1.
         12    1    3    3    0    0  0.12372383270E+01 -0.89849746751E+01  0.56446235896E+01  0.10682804129E+02  0.00000000000E+00 0. -1.
</event>
<event>
 7    1  0.4005571E-009  0.4778726E+02  0.7816164E-02  0.1312668E+00
        -11   -1    0    0    0    0  0.00000000000E+00  0.00000000000E+00  0.45593999997E+02  0.45594000000E+02  0.51100000000E-03 0.  1.
         11   -1    0    0    0    0 -0.00000000000E+00 -0.00000000000E+00 -0.45593999997E+02  0.45594000000E+02  0.51100000000E-03 0. -1.
    9900012    2    1    2    0    0 -0.19110945829E+02  0.76990300277E+01  0.38198436552E+02  0.47787264190E+02  0.19999968746E+02 0.  0.
         12    1    1    2    0    0  0.19110945829E+02 -0.76990300277E+01 -0.38198436552E+02  0.43400735810E+02  0.00000000000E+00 0. -1.
         11    1    3    3    0    0 -0.89178551948E+01  0.24376261007E+01  0.10275881416E+02  0.13822586640E+02  0.51100000000E-03 0. -1.
        -11    1    3    3    0    0 -0.21456309230E+01  0.87441095650E+01  0.74247897127E+01  0.11670076550E+02  0.51100000000E-03 0.  1.
        -12    1    3    3    0    0 -0.80474597114E+01 -0.34827056381E+01  0.20497765424E+02  0.22294601000E+02  0.00000000000E+00 0.  1.
</event>
<event>
 7    1  0.4005571E-009  0.4778727E+02  0.7816164E-02  0.1312668E+00
        -11   -1    0    0    0    0  0.00000000000E+00  0.00000000000E+00  0.45593999997E+02  0.45594000000E+02  0.51100000000E-03 0.  1.
         11   -1    0    0    0    0 -0.00000000000E+00 -0.00000000000E+00 -0.45593999997E+02  0.45594000000E+02  0.51100000000E-03 0. -1.
    9900012    2    1    2    0    0  0.40989221184E+02 -0.74911406372E+01  0.12140411244E+02  0.47787273894E+02  0.20000012994E+02 0.  0.
         12    1    1    2    0    0 -0.40989221184E+02  0.74911406372E+01 -0.12140411244E+02  0.43400726106E+02  0.00000000000E+00 0. -1.
         11    1    3    3    0    0  0.17857275073E+02 -0.20756949229E+01  0.79045323695E+01  0.19638544108E+02  0.51100000000E-03 0.  1.
        -11    1    3    3    0    0  0.61125418141E+01 -0.11826859503E+01  0.80741475200E+01  0.10195772257E+02  0.51100000000E-03 0. -1.
         12    1    3    3    0    0  0.17019404297E+02 -0.42327597640E+01 -0.38382686456E+01  0.17952957529E+02  0.00000000000E+00 0. -1.
</event>
<event>
 7    1  0.4005571E-009  0.4778727E+02  0.7816164E-02  0.1312668E+00
        -11   -1    0    0    0    0  0.00000000000E+00  0.00000000000E+00  0.45593999997E+02  0.45594000000E+02  0.51100000000E-03 0.  1.
         11   -1    0    0    0    0 -0.00000000000E+00 -0.00000000000E+00 -0.45593999997E+02  0.45594000000E+02  0.51100000000E-03 0. -1.
    9900012    2    1    2    0    0  0.12970596181E+02 -0.12438091082E+02  0.39505454396E+02  0.47787269567E+02  0.19999993264E+02 0.  0.
         12    1    1    2    0    0 -0.12970596181E+02  0.12438091082E+02 -0.39505454396E+02  0.43400730433E+02  0.00000000000E+00 0. -1.
         11    1    3    3    0    0  0.53253496514E+01 -0.88444320723E+01  0.18232219074E+02  0.20952258595E+02  0.51100000000E-03 0. -1.
        -11    1    3    3    0    0  0.32150236092E+01 -0.88599852319E+01  0.13323751691E+02  0.16320480217E+02  0.51100000000E-03 0.  1.
         12    1    3    3    0    0  0.44302229206E+01  0.52663262225E+01  0.79494836314E+01  0.10514530756E+02  0.00000000000E+00 0. -1.
</event>
<event>
 7    1  0.4005571E-009  0.4778728E+02  0.7816164E-02  0.1312668E+00
        -11   -1    0    0    0    0  0.00000000000E+00  0.00000000000E+00  0.45593999997E+02  0.45594000000E+02  0.51100000000E-03 0. -1.
         11   -1    0    0    0    0 -0.00000000000E+00 -0.00000000000E+00 -0.45593999997E+02  0.45594000000E+02  0.51100000000E-03 0.  1.
    9900012    2    1    2    0    0 -0.16831297092E+02 -0.19994945390E+02 -0.34648696683E+02  0.47787278983E+02  0.20000036197E+02 0.  0.
         12    1    1    2    0    0  0.16831297092E+02  0.19994945390E+02  0.34648696683E+02  0.43400721017E+02  0.00000000000E+00 0. -1.
         11    1    3    3    0    0 -0.62754698015E+01 -0.12307433574E+01 -0.40711348584E+01  0.75809227498E+01  0.51100000000E-03 0. -1.
        -11    1    3    3    0    0 -0.58598759770E+01 -0.11169529329E+01 -0.19986459745E+01  0.62912889230E+01  0.51100000000E-03 0.  1.
        -12    1    3    3    0    0 -0.46959513137E+01 -0.17647249100E+02 -0.28578915850E+02  0.33915067311E+02  0.00000000000E+00 0.  1.
</event>
<event>
 7    1  0.4005571E-009  0.4778730E+02  0.7816164E-02  0.1312668E+00
        -11   -1    0    0    0    0  0.00000000000E+00  0.00000000000E+00  0.45593999997E+02  0.45594000000E+02  0.51100000000E-03 0.  1.
         11   -1    0    0    0    0 -0.00000000000E+00 -0.00000000000E+00 -0.45593999997E+02  0.45594000000E+02  0.51100000000E-03 0. -1.
    9900012    2    1    2    0    0  0.12925534665E+00 -0.13069773810E+02  0.41385807595E+02  0.47787299952E+02  0.20000131799E+02 0.  0.
         12    1    1    2    0    0 -0.12925534665E+00  0.13069773810E+02 -0.41385807595E+02  0.43400700048E+02  0.00000000000E+00 0. -1.
         11    1    3    3    0    0  0.49452924952E+01 -0.25772308090E+00  0.49284357083E+01  0.69865454870E+01  0.51100000000E-03 0. -1.
        -11    1    3    3    0    0  0.15325285692E+00 -0.10753563643E+02  0.13703460521E+02  0.17419743051E+02  0.51100000000E-03 0.  1.
        -12    1    3    3    0    0 -0.49692900055E+01 -0.20584870858E+01  0.22753911366E+02  0.23381011413E+02  0.00000000000E+00 0.  1.
</event>
<event>
 7    1  0.4005571E-009  0.4778727E+02  0.7816164E-02  0.1312668E+00
        -11   -1    0    0    0    0  0.00000000000E+00  0.00000000000E+00  0.45593999997E+02  0.45594000000E+02  0.51100000000E-03 0.  1.
         11   -1    0    0    0    0 -0.00000000000E+00 -0.00000000000E+00 -0.45593999997E+02  0.45594000000E+02  0.51100000000E-03 0. -1.
    9900012    2    1    2    0    0  0.20442564913E+02 -0.29513595898E+02  0.24385905453E+02  0.47787272036E+02  0.20000004520E+02 0.  0.
         12    1    1    2    0    0 -0.20442564913E+02  0.29513595898E+02 -0.24385905453E+02  0.43400727964E+02  0.00000000000E+00 0. -1.
         11    1    3    3    0    0 -0.24343741791E+00 -0.58248684593E+01  0.90371608678E+01  0.10754470287E+02  0.51100000000E-03 0. -1.
        -11    1    3    3    0    0  0.11034878275E+02 -0.11222442598E+02  0.14245958994E+02  0.21228732989E+02  0.51100000000E-03 0.  1.
         12    1    3    3    0    0  0.96511240566E+01 -0.12466284841E+02  0.11027855907E+01  0.15804068760E+02  0.00000000000E+00 0. -1.
</event>
<event>
 7    1  0.4005571E-009  0.4778727E+02  0.7816164E-02  0.1312668E+00
        -11   -1    0    0    0    0  0.00000000000E+00  0.00000000000E+00  0.45593999997E+02  0.45594000000E+02  0.51100000000E-03 0.  1.
         11   -1    0    0    0    0 -0.00000000000E+00 -0.00000000000E+00 -0.45593999997E+02  0.45594000000E+02  0.51100000000E-03 0. -1.
    9900012    2    1    2    0    0  0.18202265981E+02 -0.11096521140E+02  0.37804338088E+02  0.47787271360E+02  0.20000001438E+02 0.  0.
         12    1    1    2    0    0 -0.18202265981E+02  0.11096521140E+02 -0.37804338088E+02  0.43400728640E+02  0.00000000000E+00 0. -1.
         11    1    3    3    0    0  0.72143317799E+01 -0.62745350799E+01  0.17373542556E+02  0.19830692240E+02  0.51100000000E-03 0.  1.
        -11    1    3    3    0    0  0.11129027080E+02 -0.93367432506E+01  0.14802910559E+02  0.20740206835E+02  0.51100000000E-03 0. -1.
         12    1    3    3    0    0 -0.14109287900E+00  0.45147571909E+01  0.56278849723E+01  0.72163722850E+01  0.00000000000E+00 0. -1.
</event>
<event>
 7    1  0.4005571E-009  0.4778728E+02  0.7816164E-02  0.1312668E+00
        -11   -1    0    0    0    0  0.00000000000E+00  0.00000000000E+00  0.45593999997E+02  0.45594000000E+02  0.51100000000E-03 0.  1.
         11   -1    0    0    0    0 -0.00000000000E+00 -0.00000000000E+00 -0.45593999997E+02  0.45594000000E+02  0.51100000000E-03 0. -1.
    9900012    2    1    2    0    0 -0.13070082184E+02 -0.40124480535E+02  0.10140109551E+02  0.47787276409E+02  0.20000024459E+02 0.  0.
         12    1    1    2    0    0  0.13070082184E+02  0.40124480535E+02 -0.10140109551E+02  0.43400723591E+02  0.00000000000E+00 0. -1.
         11    1    3    3    0    0 -0.12016793989E+01 -0.16671970476E+02 -0.36136475157E+01  0.17101376598E+02  0.51100000000E-03 0. -1.
        -11    1    3    3    0    0 -0.67878303316E+01 -0.86436352828E+01  0.21505679918E+01  0.11198750576E+02  0.51100000000E-03 0.  1.
        -12    1    3    3    0    0 -0.50805724537E+01 -0.14808874776E+02  0.11603189075E+02  0.19487149235E+02  0.00000000000E+00 0.  1.
</event>
<event>
 7    1  0.4005571E-009  0.4778727E+02  0.7816164E-02  0.1312668E+00
        -11   -1    0    0    0    0  0.00000000000E+00  0.00000000000E+00  0.45593999997E+02  0.45594000000E+02  0.51100000000E-03 0.  1.
         11   -1    0    0    0    0 -0.00000000000E+00 -0.00000000000E+00 -0.45593999997E+02  0.45594000000E+02  0.51100000000E-03 0. -1.
    9900012    2    1    2    0    0  0.33331450945E+02  0.27719081934E+02  0.20712579283E+01  0.47787271495E+02  0.20000002054E+02 0.  0.
         12    1    1    2    0    0 -0.33331450945E+02 -0.27719081934E+02 -0.20712579283E+01  0.43400728505E+02  0.00000000000E+00 0. -1.
         11    1    3    3    0    0  0.89585232398E+01  0.61319299955E+01  0.61627889579E+01  0.12483415883E+02  0.51100000000E-03 0. -1.
        -11    1    3    3    0    0  0.11043738738E+02  0.17507795074E+02  0.25809590034E+00  0.20701537803E+02  0.51100000000E-03 0.  1.
         12    1    3    3    0    0  0.13329188967E+02  0.40793568647E+01 -0.43496269299E+01  0.14602317809E+02  0.00000000000E+00 0. -1.
</event>
<event>
 7    1  0.4005571E-009  0.4778727E+02  0.7816164E-02  0.1312668E+00
        -11   -1    0    0    0    0  0.00000000000E+00  0.00000000000E+00  0.45593999997E+02  0.45594000000E+02  0.51100000000E-03 0. -1.
         11   -1    0    0    0    0 -0.00000000000E+00 -0.00000000000E+00 -0.45593999997E+02  0.45594000000E+02  0.51100000000E-03 0.  1.
    9900012    2    1    2    0    0  0.19267703577E+02  0.38851215784E+02  0.17210004684E+01  0.47787271761E+02  0.20000003268E+02 0.  0.
         12    1    1    2    0    0 -0.19267703577E+02 -0.38851215784E+02 -0.17210004684E+01  0.43400728239E+02  0.00000000000E+00 0. -1.
         11    1    3    3    0    0 -0.63071617358E+00  0.40159046457E+01  0.31380904384E-01  0.40652525183E+01  0.51100000000E-03 0. -1.
        -11    1    3    3    0    0 -0.30258530385E+01  0.67819860563E+01 -0.36369217603E+00  0.74352803403E+01  0.51100000000E-03 0.  1.
        -12    1    3    3    0    0  0.22924272789E+02  0.28053325082E+02  0.20533117400E+01  0.36286738903E+02  0.00000000000E+00 0.  1.
</event>
<event>
 7    1  0.4005571E-009  0.4778727E+02  0.7816164E-02  0.1312668E+00
        -11   -1    0    0    0    0  0.00000000000E+00  0.00000000000E+00  0.45593999997E+02  0.45594000000E+02  0.51100000000E-03 0.  1.
         11   -1    0    0    0    0 -0.00000000000E+00 -0.00000000000E+00 -0.45593999997E+02  0.45594000000E+02  0.51100000000E-03 0. -1.
    9900012    2    1    2    0    0  0.31817550584E+02  0.25886971701E+02  0.14182075975E+02  0.47787272956E+02  0.20000008714E+02 0.  0.
         12    1    1    2    0    0 -0.31817550584E+02 -0.25886971701E+02 -0.14182075975E+02  0.43400727044E+02  0.00000000000E+00 0. -1.
         11    1    3    3    0    0  0.13563795615E+02  0.28494112413E+01  0.31331461260E+01  0.14209584822E+02  0.51100000000E-03 0. -1.
        -11    1    3    3    0    0  0.16379056925E+02  0.12103910366E+02  0.51215215295E+01  0.21000193689E+02  0.51100000000E-03 0.  1.
        -12    1    3    3    0    0  0.18746980435E+01  0.10933650093E+02  0.59274083200E+01  0.12577494445E+02  0.00000000000E+00 0.  1.
</event>
<event>
 7    1  0.5247447E-009  0.4778727E+02  0.7816164E-02  0.1312668E+00
        -11   -1    0    0    0    0  0.00000000000E+00  0.00000000000E+00  0.45593999997E+02  0.45594000000E+02  0.51100000000E-03 0.  1.
         11   -1    0    0    0    0 -0.00000000000E+00 -0.00000000000E+00 -0.45593999997E+02  0.45594000000E+02  0.51100000000E-03 0. -1.
    9900012    2    1    2    0    0 -0.16237465063E+02  0.39324844824E+02  0.85746402414E+01  0.47787272502E+02  0.20000006645E+02 0.  0.
         12    1    1    2    0    0  0.16237465063E+02 -0.39324844824E+02 -0.85746402414E+01  0.43400727498E+02  0.00000000000E+00 0. -1.
         11    1    3    3    0    0  0.25805218547E+01  0.36858954036E+01  0.42882283600E+01  0.62156110478E+01  0.51100000000E-03 0. -1.
        -11    1    3    3    0    0 -0.40161036009E+01  0.83763892035E+01 -0.28941640713E+01  0.97298083309E+01  0.51100000000E-03 0.  1.
        -12    1    3    3    0    0 -0.14801883317E+02  0.27262560217E+02  0.71805759527E+01  0.31841853123E+02  0.00000000000E+00 0.  1.
</event>
<event>
 7    1  0.4005571E-009  0.4778726E+02  0.7816164E-02  0.1312668E+00
        -11   -1    0    0    0    0  0.00000000000E+00  0.00000000000E+00  0.45593999997E+02  0.45594000000E+02  0.51100000000E-03 0.  1.
         11   -1    0    0    0    0 -0.00000000000E+00 -0.00000000000E+00 -0.45593999997E+02  0.45594000000E+02  0.51100000000E-03 0. -1.
    9900012    2    1    2    0    0 -0.39331903893E+02  0.18300931783E+02 -0.13042676892E+01  0.47787264036E+02  0.19999968047E+02 0.  0.
         12    1    1    2    0    0  0.39331903893E+02 -0.18300931783E+02  0.13042676892E+01  0.43400735964E+02  0.00000000000E+00 0. -1.
         11    1    3    3    0    0 -0.14675422751E+02  0.36121758024E+00  0.28158868790E+01  0.14947499130E+02  0.51100000000E-03 0. -1.
        -11    1    3    3    0    0 -0.15961435252E+02  0.64266770824E+01  0.16831728704E+01  0.17288801717E+02  0.51100000000E-03 0.  1.
         12    1    3    3    0    0 -0.86950458899E+01  0.11513037121E+02 -0.58033274385E+01  0.15550963190E+02  0.00000000000E+00 0. -1.
</event>
<event>
 7    1  0.4005571E-009  0.4778727E+02  0.7816164E-02  0.1312668E+00
        -11   -1    0    0    0    0  0.00000000000E+00  0.00000000000E+00  0.45593999997E+02  0.45594000000E+02  0.51100000000E-03 0.  1.
         11   -1    0    0    0    0 -0.00000000000E+00 -0.00000000000E+00 -0.45593999997E+02  0.45594000000E+02  0.51100000000E-03 0. -1.
    9900012    2    1    2    0    0 -0.10619495047E+02 -0.25585869225E+02  0.33409768824E+02  0.47787273832E+02  0.20000012710E+02 0.  0.
         12    1    1    2    0    0  0.10619495047E+02  0.25585869225E+02 -0.33409768824E+02  0.43400726168E+02  0.00000000000E+00 0. -1.
         11    1    3    3    0    0 -0.33190548377E+01 -0.13036926320E+02  0.61424041363E+01  0.14788735636E+02  0.51100000000E-03 0.  1.
        -11    1    3    3    0    0  0.15730697071E+01  0.67790288513E+00  0.70805805991E+01  0.72848282414E+01  0.51100000000E-03 0. -1.
        -12    1    3    3    0    0 -0.88735099160E+01 -0.13226845790E+02  0.20186784089E+02  0.25713709955E+02  0.00000000000E+00 0.  1.
</event>
<event>
 7    1  0.4005571E-009  0.4778727E+02  0.7816164E-02  0.1312668E+00
        -11   -1    0    0    0    0  0.00000000000E+00  0.00000000000E+00  0.45593999997E+02  0.45594000000E+02  0.51100000000E-03 0. -1.
         11   -1    0    0    0    0 -0.00000000000E+00 -0.00000000000E+00 -0.45593999997E+02  0.45594000000E+02  0.51100000000E-03 0.  1.
    9900012    2    1    2    0    0 -0.36186156178E+02  0.16888411057E+02 -0.16999032320E+02  0.47787269282E+02  0.19999991965E+02 0.  0.
         12    1    1    2    0    0  0.36186156178E+02 -0.16888411057E+02  0.16999032320E+02  0.43400730718E+02  0.00000000000E+00 0. -1.
         11    1    3    3    0    0 -0.75127424798E+01  0.63116585723E+01 -0.98493260491E+01  0.13902789554E+02  0.51100000000E-03 0. -1.
        -11    1    3    3    0    0 -0.12102481817E+02  0.91699522066E+01  0.12828290721E+01  0.15238232847E+02  0.51100000000E-03 0.  1.
         12    1    3    3    0    0 -0.16570931881E+02  0.14068002784E+01 -0.84325353434E+01  0.18646246881E+02  0.00000000000E+00 0. -1.
</event>
<event>
 7    1  0.4005571E-009  0.4778728E+02  0.7816164E-02  0.1312668E+00
        -11   -1    0    0    0    0  0.00000000000E+00  0.00000000000E+00  0.45593999997E+02  0.45594000000E+02  0.51100000000E-03 0.  1.
         11   -1    0    0    0    0 -0.00000000000E+00 -0.00000000000E+00 -0.45593999997E+02  0.45594000000E+02  0.51100000000E-03 0. -1.
    9900012    2    1    2    0    0  0.48731844347E+01  0.32387977450E+02  0.28476195959E+02  0.47787277124E+02  0.20000027721E+02 0.  0.
         12    1    1    2    0    0 -0.48731844347E+01 -0.32387977450E+02 -0.28476195959E+02  0.43400722876E+02  0.00000000000E+00 0. -1.
         11    1    3    3    0    0  0.30229157374E+01  0.13936178453E+02  0.99557671117E+01  0.17391733337E+02  0.51100000000E-03 0. -1.
        -11    1    3    3    0    0 -0.34098261862E+01  0.13964756414E+02  0.18567131934E+02  0.23481476207E+02  0.51100000000E-03 0.  1.
         12    1    3    3    0    0  0.52600948835E+01  0.44870425828E+01 -0.46703087456E-01  0.69140675800E+01  0.00000000000E+00 0. -1.
</event>
<event>
 7    1  0.4005571E-009  0.4778727E+02  0.7816164E-02  0.1312668E+00
        -11   -1    0    0    0    0  0.00000000000E+00  0.00000000000E+00  0.45593999997E+02  0.45594000000E+02  0.51100000000E-03 0. -1.
         11   -1    0    0    0    0 -0.00000000000E+00 -0.00000000000E+00 -0.45593999997E+02  0.45594000000E+02  0.51100000000E-03 0.  1.
    9900012    2    1    2    0    0  0.19865539755E+02 -0.33555987254E+01 -0.38441168059E+02  0.47787272883E+02  0.20000008382E+02 0.  0.
         12    1    1    2    0    0 -0.19865539755E+02  0.33555987254E+01  0.38441168059E+02  0.43400727117E+02  0.00000000000E+00 0. -1.
         11    1    3    3    0    0  0.11210698628E+02  0.15163297462E+01 -0.12401053984E+02  0.16785861902E+02  0.51100000000E-03 0. -1.
        -11    1    3    3    0    0  0.43135230127E+01 -0.21767680086E+01 -0.39010421992E+00  0.48473684931E+01  0.51100000000E-03 0.  1.
        -12    1    3    3    0    0  0.43413181150E+01 -0.26951604629E+01 -0.25650009855E+02  0.26154042487E+02  0.00000000000E+00 0.  1.
</event>
<event>
 7    1  0.4005571E-009  0.4778727E+02  0.7816164E-02  0.1312668E+00
        -11   -1    0    0    0    0  0.00000000000E+00  0.00000000000E+00  0.45593999997E+02  0.45594000000E+02  0.51100000000E-03 0.  1.
         11   -1    0    0    0    0 -0.00000000000E+00 -0.00000000000E+00 -0.45593999997E+02  0.45594000000E+02  0.51100000000E-03 0. -1.
    9900012    2    1    2    0    0 -0.21520467258E+02  0.37651429669E+02  0.16918702915E+01  0.47787273137E+02  0.20000009541E+02 0.  0.
         12    1    1    2    0    0  0.21520467258E+02 -0.37651429669E+02 -0.16918702915E+01  0.43400726863E+02  0.00000000000E+00 0. -1.
         11    1    3    3    0    0  0.28185526860E+01  0.38924710474E+01  0.25286252967E+01  0.54304250525E+01  0.51100000000E-03 0. -1.
        -11    1    3    3    0    0 -0.27788153407E+01  0.77292751641E+01 -0.22884939031E+01  0.85264713608E+01  0.51100000000E-03 0.  1.
         12    1    3    3    0    0 -0.21560204603E+02  0.26029683458E+02  0.14517388979E+01  0.33830376724E+02  0.00000000000E+00 0. -1.
</event>
<event>
 7    1  0.4005571E-009  0.4778727E+02  0.7816164E-02  0.1312668E+00
        -11   -1    0    0    0    0  0.00000000000E+00  0.00000000000E+00  0.45593999997E+02  0.45594000000E+02  0.51100000000E-03 0. -1.
         11   -1    0    0    0    0 -0.00000000000E+00 -0.00000000000E+00 -0.45593999997E+02  0.45594000000E+02  0.51100000000E-03 0.  1.
    9900012    2    1    2    0    0  0.38931530187E+02 -0.16527419752E+02 -0.97367190775E+01  0.47787270228E+02  0.19999996278E+02 0.  0.
         12    1    1    2    0    0 -0.38931530187E+02  0.16527419752E+02  0.97367190775E+01  0.43400729772E+02  0.00000000000E+00 0. -1.
         11    1    3    3    0    0 -0.11698075170E+00 -0.20817725273E+01  0.17578448692E+01  0.27271743979E+01  0.51100000000E-03 0. -1.
        -11    1    3    3    0    0  0.28954282731E+02 -0.10059826728E+02 -0.23341983873E+01  0.30740837410E+02  0.51100000000E-03 0.  1.
         12    1    3    3    0    0  0.10094228207E+02 -0.43858204973E+01 -0.91603655593E+01  0.14319258420E+02  0.00000000000E+00 0. -1.
</event>
<event>
 7    1  0.4005571E-009  0.4778727E+02  0.7816164E-02  0.1312668E+00
        -11   -1    0    0    0    0  0.00000000000E+00  0.00000000000E+00  0.45593999997E+02  0.45594000000E+02  0.51100000000E-03 0. -1.
         11   -1    0    0    0    0 -0.00000000000E+00 -0.00000000000E+00 -0.45593999997E+02  0.45594000000E+02  0.51100000000E-03 0.  1.
    9900012    2    1    2    0    0  0.37820199961E+02 -0.73868508624E+01 -0.19967224909E+02  0.47787272341E+02  0.20000005913E+02 0.  0.
         12    1    1    2    0    0 -0.37820199961E+02  0.73868508624E+01  0.19967224909E+02  0.43400727659E+02  0.00000000000E+00 0. -1.
         11    1    3    3    0    0  0.12540685752E+02  0.60581401956E+01 -0.81404410231E+01  0.16131851787E+02  0.51100000000E-03 0. -1.
        -11    1    3    3    0    0  0.19875042145E+01 -0.15938493480E+01  0.74609258512E+00  0.26546531136E+01  0.51100000000E-03 0.  1.
        -12    1    3    3    0    0  0.23292009994E+02 -0.11851141710E+02 -0.12572876471E+02  0.29000767441E+02  0.00000000000E+00 0.  1.
</event>
<event>
 7    1  0.4005571E-009  0.4778728E+02  0.7816164E-02  0.1312668E+00
        -11   -1    0    0    0    0  0.00000000000E+00  0.00000000000E+00  0.45593999997E+02  0.45594000000E+02  0.51100000000E-03 0.  1.
         11   -1    0    0    0    0 -0.00000000000E+00 -0.00000000000E+00 -0.45593999997E+02  0.45594000000E+02  0.51100000000E-03 0. -1.
    9900012    2    1    2    0    0 -0.34970966247E+02 -0.20844415219E+02  0.15038751621E+02  0.47787283688E+02  0.20000057649E+02 0.  0.
         12    1    1    2    0    0  0.34970966247E+02  0.20844415219E+02 -0.15038751621E+02  0.43400716312E+02  0.00000000000E+00 0. -1.
         11    1    3    3    0    0 -0.95603829881E+01 -0.76900370054E+00  0.71597182165E+00  0.96179470513E+01  0.51100000000E-03 0. -1.
        -11    1    3    3    0    0 -0.19812743392E+02 -0.71326112122E+01  0.64715709560E+01  0.22029529599E+02  0.51100000000E-03 0.  1.
         12    1    3    3    0    0 -0.55978398661E+01 -0.12942800307E+02  0.78512088430E+01  0.16139807039E+02  0.00000000000E+00 0. -1.
</event>
<event>
 7    1  0.4005571E-009  0.4778727E+02  0.7816164E-02  0.1312668E+00
        -11   -1    0    0    0    0  0.00000000000E+00  0.00000000000E+00  0.45593999997E+02  0.45594000000E+02  0.51100000000E-03 0.  1.
         11   -1    0    0    0    0 -0.00000000000E+00 -0.00000000000E+00 -0.45593999997E+02  0.45594000000E+02  0.51100000000E-03 0. -1.
    9900012    2    1    2    0    0 -0.33150452214E+02  0.80389845480E+01  0.26833663431E+02  0.47787271346E+02  0.20000001376E+02 0.  0.
         12    1    1    2    0    0  0.33150452214E+02 -0.80389845480E+01 -0.26833663431E+02  0.43400728654E+02  0.00000000000E+00 0. -1.
         11    1    3    3    0    0 -0.30091329765E+01  0.34634978994E+01  0.77393469443E+01  0.89971212259E+01  0.51100000000E-03 0. -1.
        -11    1    3    3    0    0 -0.87155622674E+01  0.62386053836E+01  0.12158674389E+02  0.16208472659E+02  0.51100000000E-03 0.  1.
        -12    1    3    3    0    0 -0.21425756970E+02 -0.16631187350E+01  0.69356420979E+01  0.22581677462E+02  0.00000000000E+00 0.  1.
</event>
<event>
 7    1  0.4005571E-009  0.4778726E+02  0.7816164E-02  0.1312668E+00
        -11   -1    0    0    0    0  0.00000000000E+00  0.00000000000E+00  0.45593999997E+02  0.45594000000E+02  0.51100000000E-03 0.  1.
         11   -1    0    0    0    0 -0.00000000000E+00 -0.00000000000E+00 -0.45593999997E+02  0.45594000000E+02  0.51100000000E-03 0. -1.
    9900012    2    1    2    0    0 -0.54682816839E+00 -0.36155587775E+02  0.24002057707E+02  0.47787258963E+02  0.19999944916E+02 0.  0.
         12    1    1    2    0    0  0.54682816839E+00  0.36155587775E+02 -0.24002057707E+02  0.43400741037E+02  0.00000000000E+00 0. -1.
         11    1    3    3    0    0  0.17448971121E+01 -0.15251198078E+01  0.24631637862E+01  0.33819864664E+01  0.51100000000E-03 0. -1.
        -11    1    3    3    0    0  0.23008407173E+01 -0.86677218885E+01 -0.18543132755E+01  0.91576060588E+01  0.51100000000E-03 0.  1.
        -12    1    3    3    0    0 -0.45925659978E+01 -0.25962746079E+02  0.23393207196E+02  0.35247666438E+02  0.00000000000E+00 0.  1.
</event>
<event>
 7    1  0.4005571E-009  0.4778727E+02  0.7816164E-02  0.1312668E+00
        -11   -1    0    0    0    0  0.00000000000E+00  0.00000000000E+00  0.45593999997E+02  0.45594000000E+02  0.51100000000E-03 0. -1.
         11   -1    0    0    0    0 -0.00000000000E+00 -0.00000000000E+00 -0.45593999997E+02  0.45594000000E+02  0.51100000000E-03 0.  1.
    9900012    2    1    2    0    0 -0.40909642186E+02 -0.11732296431E+02 -0.85075180715E+01  0.47787268819E+02  0.19999989851E+02 0.  0.
         12    1    1    2    0    0  0.40909642186E+02  0.11732296431E+02  0.85075180715E+01  0.43400731181E+02  0.00000000000E+00 0. -1.
         11    1    3    3    0    0 -0.14688051002E+02 -0.88177542732E+01 -0.58706198997E+01  0.18109550268E+02  0.51100000000E-03 0. -1.
        -11    1    3    3    0    0  0.37844597534E+00  0.98065185529E-01 -0.28801102909E+01  0.29065226105E+01  0.51100000000E-03 0.  1.
        -12    1    3    3    0    0 -0.26600037160E+02 -0.30126073432E+01  0.24321211916E+00  0.26771195940E+02  0.00000000000E+00 0.  1.
</event>
<event>
 7    1  0.4005571E-009  0.4778727E+02  0.7816164E-02  0.1312668E+00
        -11   -1    0    0    0    0  0.00000000000E+00  0.00000000000E+00  0.45593999997E+02  0.45594000000E+02  0.51100000000E-03 0. -1.
         11   -1    0    0    0    0 -0.00000000000E+00 -0.00000000000E+00 -0.45593999997E+02  0.45594000000E+02  0.51100000000E-03 0.  1.
    9900012    2    1    2    0    0 -0.16913224534E+02 -0.12768176889E+02 -0.37875321329E+02  0.47787268773E+02  0.19999989645E+02 0.  0.
         12    1    1    2    0    0  0.16913224534E+02  0.12768176889E+02  0.37875321329E+02  0.43400731227E+02  0.00000000000E+00 0. -1.
         11    1    3    3    0    0 -0.82353544855E+01 -0.30828984704E+01 -0.19765381628E+02  0.21633206828E+02  0.51100000000E-03 0. -1.
        -11    1    3    3    0    0 -0.85881442978E+01 -0.24328322740E+00 -0.12509407999E+02  0.15175661368E+02  0.51100000000E-03 0.  1.
         12    1    3    3    0    0 -0.89725751124E-01 -0.94419951912E+01 -0.56005317021E+01  0.10978400578E+02  0.00000000000E+00 0. -1.
</event>
<event>
 7    1  0.4005571E-009  0.4778728E+02  0.7816164E-02  0.1312668E+00
        -11   -1    0    0    0    0  0.00000000000E+00  0.00000000000E+00  0.45593999997E+02  0.45594000000E+02  0.51100000000E-03 0. -1.
         11   -1    0    0    0    0 -0.00000000000E+00 -0.00000000000E+00 -0.45593999997E+02  0.45594000000E+02  0.51100000000E-03 0.  1.
    9900012    2    1    2    0    0 -0.25964518869E+02  0.34334856997E+02 -0.55303019819E+01  0.47787275524E+02  0.20000020422E+02 0.  0.
         12    1    1    2    0    0  0.25964518869E+02 -0.34334856997E+02  0.55303019819E+01  0.43400724476E+02  0.00000000000E+00 0. -1.
         11    1    3    3    0    0 -0.89012438647E+01  0.13950608226E+02  0.10857892868E+01  0.16584045069E+02  0.51100000000E-03 0. -1.
        -11    1    3    3    0    0 -0.16092094133E+02  0.96243855657E+01 -0.43337857930E+00  0.18755588723E+02  0.51100000000E-03 0.  1.
         12    1    3    3    0    0 -0.97118087117E+00  0.10759863205E+02 -0.61827126894E+01  0.12447641731E+02  0.00000000000E+00 0. -1.
</event>
<event>
 7    1  0.4005571E-009  0.4778727E+02  0.7816164E-02  0.1312668E+00
        -11   -1    0    0    0    0  0.00000000000E+00  0.00000000000E+00  0.45593999997E+02  0.45594000000E+02  0.51100000000E-03 0.  1.
         11   -1    0    0    0    0 -0.00000000000E+00 -0.00000000000E+00 -0.45593999997E+02  0.45594000000E+02  0.51100000000E-03 0. -1.
    9900012    2    1    2    0    0  0.12197258534E+02  0.17873627502E+02  0.37621580110E+02  0.47787274593E+02  0.20000016181E+02 0.  0.
         12    1    1    2    0    0 -0.12197258534E+02 -0.17873627502E+02 -0.37621580110E+02  0.43400725407E+02  0.00000000000E+00 0. -1.
         11    1    3    3    0    0  0.13613708994E+02  0.55091221200E+01  0.12846202363E+02  0.19511750678E+02  0.51100000000E-03 0.  1.
        -11    1    3    3    0    0  0.18399958047E+00  0.53723559193E+01  0.54194556150E+01  0.76332537881E+01  0.51100000000E-03 0. -1.
        -12    1    3    3    0    0 -0.16004500399E+01  0.69921494632E+01  0.19355922132E+02  0.20642270127E+02  0.00000000000E+00 0.  1.
</event>
<event>
 7    1  0.4005571E-009  0.4778727E+02  0.7816164E-02  0.1312668E+00
        -11   -1    0    0    0    0  0.00000000000E+00  0.00000000000E+00  0.45593999997E+02  0.45594000000E+02  0.51100000000E-03 0.  1.
         11   -1    0    0    0    0 -0.00000000000E+00 -0.00000000000E+00 -0.45593999997E+02  0.45594000000E+02  0.51100000000E-03 0. -1.
    9900012    2    1    2    0    0  0.13912147460E+02 -0.39614911925E+02  0.10987919036E+02  0.47787268917E+02  0.19999990299E+02 0.  0.
         12    1    1    2    0    0 -0.13912147460E+02  0.39614911925E+02 -0.10987919036E+02  0.43400731083E+02  0.00000000000E+00 0. -1.
         11    1    3    3    0    0 -0.24403516776E+01 -0.12223660645E+02  0.85623746142E+01  0.15122415652E+02  0.51100000000E-03 0. -1.
        -11    1    3    3    0    0  0.42712585911E+01 -0.10823906106E+02 -0.16698823776E+01  0.11755386031E+02  0.51100000000E-03 0.  1.
        -12    1    3    3    0    0  0.12081240547E+02 -0.16567345175E+02  0.40954267996E+01  0.20909467233E+02  0.00000000000E+00 0.  1.
</event>
<event>
 7    1  0.4005571E-009  0.4778729E+02  0.7816164E-02  0.1312668E+00
        -11   -1    0    0    0    0  0.00000000000E+00  0.00000000000E+00  0.45593999997E+02  0.45594000000E+02  0.51100000000E-03 0. -1.
         11   -1    0    0    0    0 -0.00000000000E+00 -0.00000000000E+00 -0.45593999997E+02  0.45594000000E+02  0.51100000000E-03 0.  1.
    9900012    2    1    2    0    0  0.25614130676E+01  0.42234054097E+02  0.96615315622E+01  0.47787293157E+02  0.20000100818E+02 0.  0.
         12    1    1    2    0    0 -0.25614130676E+01 -0.42234054097E+02 -0.96615315622E+01  0.43400706843E+02  0.00000000000E+00 0. -1.
         11    1    3    3    0    0 -0.19091464447E+01  0.23358055599E+01 -0.15626560148E+01  0.33974581443E+01  0.51100000000E-03 0. -1.
        -11    1    3    3    0    0 -0.26389628882E+01  0.17140745222E+02  0.11018190738E+02  0.20546771019E+02  0.51100000000E-03 0.  1.
        -12    1    3    3    0    0  0.71095224005E+01  0.22757503315E+02  0.20599683875E+00  0.23843063993E+02  0.00000000000E+00 0.  1.
</event>
<event>
 7    1  0.4005571E-009  0.4778730E+02  0.7816164E-02  0.1312668E+00
        -11   -1    0    0    0    0  0.00000000000E+00  0.00000000000E+00  0.45593999997E+02  0.45594000000E+02  0.51100000000E-03 0. -1.
         11   -1    0    0    0    0 -0.00000000000E+00 -0.00000000000E+00 -0.45593999997E+02  0.45594000000E+02  0.51100000000E-03 0.  1.
    9900012    2    1    2    0    0 -0.20278013739E+02  0.34307344944E+02 -0.17188059664E+02  0.47787295475E+02  0.20000111386E+02 0.  0.
         12    1    1    2    0    0  0.20278013739E+02 -0.34307344944E+02  0.17188059664E+02  0.43400704525E+02  0.00000000000E+00 0. -1.
         11    1    3    3    0    0 -0.15988664725E+02  0.16556724116E+02 -0.82512888363E+01  0.24450895298E+02  0.51100000000E-03 0. -1.
        -11    1    3    3    0    0 -0.59391052117E+01  0.13497973292E+02 -0.10932753639E+02  0.18357378792E+02  0.51100000000E-03 0.  1.
        -12    1    3    3    0    0  0.16497561969E+01  0.42526475352E+01  0.19959828117E+01  0.49790213850E+01  0.00000000000E+00 0.  1.
</event>
<event>
 7    1  0.4005571E-009  0.4778727E+02  0.7816164E-02  0.1312668E+00
        -11   -1    0    0    0    0  0.00000000000E+00  0.00000000000E+00  0.45593999997E+02  0.45594000000E+02  0.51100000000E-03 0. -1.
         11   -1    0    0    0    0 -0.00000000000E+00 -0.00000000000E+00 -0.45593999997E+02  0.45594000000E+02  0.51100000000E-03 0.  1.
    9900012    2    1    2    0    0  0.17029016067E+02 -0.36698824994E+02 -0.15710895615E+02  0.47787269762E+02  0.19999994153E+02 0.  0.
         12    1    1    2    0    0 -0.17029016067E+02  0.36698824994E+02  0.15710895615E+02  0.43400730238E+02  0.00000000000E+00 0. -1.
         11    1    3    3    0    0  0.49702278840E+01 -0.12148539734E+02 -0.10706205897E+01  0.13169525868E+02  0.51100000000E-03 0. -1.
        -11    1    3    3    0    0  0.13558071563E+02 -0.10285229611E+02 -0.83359174038E+01  0.18949796091E+02  0.51100000000E-03 0.  1.
         12    1    3    3    0    0 -0.14992833805E+01 -0.14265055649E+02 -0.63043576219E+01  0.15667947803E+02  0.00000000000E+00 0. -1.
</event>
<event>
 7    1  0.4005571E-009  0.4778727E+02  0.7816164E-02  0.1312668E+00
        -11   -1    0    0    0    0  0.00000000000E+00  0.00000000000E+00  0.45593999997E+02  0.45594000000E+02  0.51100000000E-03 0. -1.
         11   -1    0    0    0    0 -0.00000000000E+00 -0.00000000000E+00 -0.45593999997E+02  0.45594000000E+02  0.51100000000E-03 0.  1.
    9900012    2    1    2    0    0  0.14796203335E+02 -0.39582693324E+02 -0.98947694383E+01  0.47787266064E+02  0.19999977293E+02 0.  0.
         12    1    1    2    0    0 -0.14796203335E+02  0.39582693324E+02  0.98947694383E+01  0.43400733936E+02  0.00000000000E+00 0. -1.
         11    1    3    3    0    0  0.37737116693E+01 -0.73055093385E+01 -0.23894877294E+00  0.82260843197E+01  0.51100000000E-03 0. -1.
        -11    1    3    3    0    0  0.16781157485E+01 -0.27918727800E+02 -0.82118755111E+01  0.29149722711E+02  0.51100000000E-03 0.  1.
         12    1    3    3    0    0  0.93443759175E+01 -0.43584561856E+01 -0.14439451542E+01  0.10411459034E+02  0.00000000000E+00 0. -1.
</event>
<event>
 7    1  0.4005571E-009  0.4778727E+02  0.7816164E-02  0.1312668E+00
        -11   -1    0    0    0    0  0.00000000000E+00  0.00000000000E+00  0.45593999997E+02  0.45594000000E+02  0.51100000000E-03 0. -1.
         11   -1    0    0    0    0 -0.00000000000E+00 -0.00000000000E+00 -0.45593999997E+02  0.45594000000E+02  0.51100000000E-03 0.  1.
    9900012    2    1    2    0    0 -0.22646674940E+02 -0.34092286933E+02  0.14438392363E+02  0.47787273183E+02  0.20000009753E+02 0.  0.
         12    1    1    2    0    0  0.22646674940E+02  0.34092286933E+02 -0.14438392363E+02  0.43400726817E+02  0.00000000000E+00 0. -1.
         11    1    3    3    0    0 -0.10717219142E+01 -0.39876986991E+01  0.13566656756E+01  0.43463629384E+01  0.51100000000E-03 0. -1.
        -11    1    3    3    0    0 -0.18894610301E+02 -0.29572818688E+02  0.56791908482E+01  0.35550121132E+02  0.51100000000E-03 0.  1.
         12    1    3    3    0    0 -0.26803427246E+01 -0.53176954654E+00  0.74025358393E+01  0.78907891129E+01  0.00000000000E+00 0. -1.
</event>
<event>
 7    1  0.4005571E-009  0.4778727E+02  0.7816164E-02  0.1312668E+00
        -11   -1    0    0    0    0  0.00000000000E+00  0.00000000000E+00  0.45593999997E+02  0.45594000000E+02  0.51100000000E-03 0.  1.
         11   -1    0    0    0    0 -0.00000000000E+00 -0.00000000000E+00 -0.45593999997E+02  0.45594000000E+02  0.51100000000E-03 0. -1.
    9900012    2    1    2    0    0  0.30762376321E+01 -0.13518992406E+02  0.41126594398E+02  0.47787272351E+02  0.20000005958E+02 0.  0.
         12    1    1    2    0    0 -0.30762376321E+01  0.13518992406E+02 -0.41126594398E+02  0.43400727649E+02  0.00000000000E+00 0. -1.
         11    1    3    3    0    0  0.50641220947E+01 -0.21127098719E+01  0.69586881343E+01  0.88618404637E+01  0.51100000000E-03 0. -1.
        -11    1    3    3    0    0 -0.28808036752E+01  0.28294831777E+01  0.11011213403E+02  0.11728249048E+02  0.51100000000E-03 0.  1.
         12    1    3    3    0    0  0.89291921256E+00 -0.14235765712E+02  0.23156692861E+02  0.27197182839E+02  0.00000000000E+00 0. -1.
</event>
<event>
 7    1  0.4005571E-009  0.4778726E+02  0.7816164E-02  0.1312668E+00
        -11   -1    0    0    0    0  0.00000000000E+00  0.00000000000E+00  0.45593999997E+02  0.45594000000E+02  0.51100000000E-03 0. -1.
         11   -1    0    0    0    0 -0.00000000000E+00 -0.00000000000E+00 -0.45593999997E+02  0.45594000000E+02  0.51100000000E-03 0.  1.
    9900012    2    1    2    0    0 -0.16830895920E+02  0.39982201515E+02 -0.13298183883E+01  0.47787263688E+02  0.19999966459E+02 0.  0.
         12    1    1    2    0    0  0.16830895920E+02 -0.39982201515E+02  0.13298183883E+01  0.43400736312E+02  0.00000000000E+00 0. -1.
         11    1    3    3    0    0 -0.10457661380E+01  0.55397085901E+01  0.44995168342E+01  0.72130194843E+01  0.51100000000E-03 0. -1.
        -11    1    3    3    0    0 -0.97027415246E+01  0.69419297019E+01 -0.74284250727E+00  0.11953467963E+02  0.51100000000E-03 0.  1.
         12    1    3    3    0    0 -0.60823882570E+01  0.27500563223E+02 -0.50864927152E+01  0.28620776241E+02  0.00000000000E+00 0. -1.
</event>
<event>
 7    1  0.4005571E-009  0.4778728E+02  0.7816164E-02  0.1312668E+00
        -11   -1    0    0    0    0  0.00000000000E+00  0.00000000000E+00  0.45593999997E+02  0.45594000000E+02  0.51100000000E-03 0.  1.
         11   -1    0    0    0    0 -0.00000000000E+00 -0.00000000000E+00 -0.45593999997E+02  0.45594000000E+02  0.51100000000E-03 0. -1.
    9900012    2    1    2    0    0 -0.25369929061E+02 -0.46691226172E+01  0.34902555480E+02  0.47787281277E+02  0.20000046656E+02 0.  0.
         12    1    1    2    0    0  0.25369929061E+02  0.46691226172E+01 -0.34902555480E+02  0.43400718723E+02  0.00000000000E+00 0. -1.
         11    1    3    3    0    0 -0.13868735286E+02 -0.46021826093E+01  0.79712284083E+01  0.16645191072E+02  0.51100000000E-03 0. -1.
        -11    1    3    3    0    0 -0.33489008218E+01 -0.50356681078E+01  0.93377910519E+01  0.11125081213E+02  0.51100000000E-03 0.  1.
         12    1    3    3    0    0 -0.81522929534E+01  0.49687280999E+01  0.17593536020E+02  0.20017008993E+02  0.00000000000E+00 0. -1.
</event>
<event>
 7    1  0.4005571E-009  0.4778727E+02  0.7816164E-02  0.1312668E+00
        -11   -1    0    0    0    0  0.00000000000E+00  0.00000000000E+00  0.45593999997E+02  0.45594000000E+02  0.51100000000E-03 0.  1.
         11   -1    0    0    0    0 -0.00000000000E+00 -0.00000000000E+00 -0.45593999997E+02  0.45594000000E+02  0.51100000000E-03 0. -1.
    9900012    2    1    2    0    0  0.22358301674E+02 -0.29001803325E+02  0.23294307161E+02  0.47787274246E+02  0.20000014596E+02 0.  0.
         12    1    1    2    0    0 -0.22358301674E+02  0.29001803325E+02 -0.23294307161E+02  0.43400725754E+02  0.00000000000E+00 0. -1.
         11    1    3    3    0    0  0.12019673397E+02 -0.31489425631E+01  0.60249136527E+01  0.13808981592E+02  0.51100000000E-03 0. -1.
        -11    1    3    3    0    0  0.36828485818E+01 -0.15035612905E+01  0.29936717782E+01  0.49785681885E+01  0.51100000000E-03 0.  1.
        -12    1    3    3    0    0  0.66557796955E+01 -0.24349299472E+02  0.14275721730E+02  0.28999724465E+02  0.00000000000E+00 0.  1.
</event>
<event>
 7    1  0.4005571E-009  0.4778727E+02  0.7816164E-02  0.1312668E+00
        -11   -1    0    0    0    0  0.00000000000E+00  0.00000000000E+00  0.45593999997E+02  0.45594000000E+02  0.51100000000E-03 0. -1.
         11   -1    0    0    0    0 -0.00000000000E+00 -0.00000000000E+00 -0.45593999997E+02  0.45594000000E+02  0.51100000000E-03 0.  1.
    9900012    2    1    2    0    0  0.33517348361E+02  0.50548089821E+01 -0.27104604023E+02  0.47787270810E+02  0.19999998930E+02 0.  0.
         12    1    1    2    0    0 -0.33517348361E+02 -0.50548089821E+01  0.27104604023E+02  0.43400729190E+02  0.00000000000E+00 0. -1.
         11    1    3    3    0    0  0.47170883221E+01  0.49354865916E+01 -0.26649692246E+01  0.73288478879E+01  0.51100000000E-03 0. -1.
        -11    1    3    3    0    0  0.98739764077E+00  0.36325283517E+01 -0.94493528261E+00  0.38811234554E+01  0.51100000000E-03 0.  1.
        -12    1    3    3    0    0  0.27812862399E+02 -0.35132059612E+01 -0.23494699516E+02  0.36577299466E+02  0.00000000000E+00 0.  1.
</event>
<event>
 7    1  0.4005571E-009  0.4778727E+02  0.7816164E-02  0.1312668E+00
        -11   -1    0    0    0    0  0.00000000000E+00  0.00000000000E+00  0.45593999997E+02  0.45594000000E+02  0.51100000000E-03 0.  1.
         11   -1    0    0    0    0 -0.00000000000E+00 -0.00000000000E+00 -0.45593999997E+02  0.45594000000E+02  0.51100000000E-03 0. -1.
    9900012    2    1    2    0    0  0.28994241290E+02 -0.10939509168E+02  0.30385594966E+02  0.47787271086E+02  0.20000000191E+02 0.  0.
         12    1    1    2    0    0 -0.28994241290E+02  0.10939509168E+02 -0.30385594966E+02  0.43400728914E+02  0.00000000000E+00 0. -1.
         11    1    3    3    0    0  0.39990439467E+01 -0.84686319390E-01  0.85514818641E+01  0.94407291346E+01  0.51100000000E-03 0. -1.
        -11    1    3    3    0    0  0.38161689942E+01  0.13545437756E+01  0.10783287308E+02  0.11518559808E+02  0.51100000000E-03 0.  1.
         12    1    3    3    0    0  0.21179028349E+02 -0.12209366624E+02  0.11050825794E+02  0.26827982143E+02  0.00000000000E+00 0. -1.
</event>
<event>
 7    1  0.4005571E-009  0.4778727E+02  0.7816164E-02  0.1312668E+00
        -11   -1    0    0    0    0  0.00000000000E+00  0.00000000000E+00  0.45593999997E+02  0.45594000000E+02  0.51100000000E-03 0.  1.
         11   -1    0    0    0    0 -0.00000000000E+00 -0.00000000000E+00 -0.45593999997E+02  0.45594000000E+02  0.51100000000E-03 0. -1.
    9900012    2    1    2    0    0 -0.39969505808E+02 -0.12972885736E+02  0.10852022780E+02  0.47787267779E+02  0.19999985113E+02 0.  0.
         12    1    1    2    0    0  0.39969505808E+02  0.12972885736E+02 -0.10852022780E+02  0.43400732221E+02  0.00000000000E+00 0. -1.
         11    1    3    3    0    0 -0.13164244031E+02 -0.35042169925E+01 -0.30810584620E+01  0.13966738314E+02  0.51100000000E-03 0. -1.
        -11    1    3    3    0    0 -0.22361704880E+00  0.12904413870E+01  0.27401102093E+01  0.30370129697E+01  0.51100000000E-03 0.  1.
        -12    1    3    3    0    0 -0.26581644729E+02 -0.10759110131E+02  0.11192971033E+02  0.30783516496E+02  0.00000000000E+00 0.  1.
</event>
<event>
 7    1  0.4005571E-009  0.4778727E+02  0.7816164E-02  0.1312668E+00
        -11   -1    0    0    0    0  0.00000000000E+00  0.00000000000E+00  0.45593999997E+02  0.45594000000E+02  0.51100000000E-03 0.  1.
         11   -1    0    0    0    0 -0.00000000000E+00 -0.00000000000E+00 -0.45593999997E+02  0.45594000000E+02  0.51100000000E-03 0. -1.
    9900012    2    1    2    0    0 -0.23507430681E+02 -0.21565897652E+01  0.36419401177E+02  0.47787274675E+02  0.20000016554E+02 0.  0.
         12    1    1    2    0    0  0.23507430681E+02  0.21565897652E+01 -0.36419401177E+02  0.43400725325E+02  0.00000000000E+00 0. -1.
         11    1    3    3    0    0 -0.32910995102E+01  0.33984154520E+01  0.27769605384E+01  0.54856242729E+01  0.51100000000E-03 0. -1.
        -11    1    3    3    0    0 -0.52981864079E+01  0.49641563272E+01  0.11566227058E+02  0.13656179402E+02  0.51100000000E-03 0.  1.
        -12    1    3    3    0    0 -0.14918144763E+02 -0.10519161544E+02  0.22076213581E+02  0.28645471000E+02  0.00000000000E+00 0.  1.
</event>
<event>
 7    1  0.4005571E-009  0.4778727E+02  0.7816164E-02  0.1312668E+00
        -11   -1    0    0    0    0  0.00000000000E+00  0.00000000000E+00  0.45593999997E+02  0.45594000000E+02  0.51100000000E-03 0.  1.
         11   -1    0    0    0    0 -0.00000000000E+00 -0.00000000000E+00 -0.45593999997E+02  0.45594000000E+02  0.51100000000E-03 0. -1.
    9900012    2    1    2    0    0  0.24216152383E+02  0.24065516469E+02  0.26796503507E+02  0.47787265913E+02  0.19999976602E+02 0.  0.
         12    1    1    2    0    0 -0.24216152383E+02 -0.24065516469E+02 -0.26796503507E+02  0.43400734087E+02  0.00000000000E+00 0. -1.
         11    1    3    3    0    0  0.16833976423E+02  0.80072298866E+01  0.18685196691E+02  0.26393845273E+02  0.51100000000E-03 0. -1.
        -11    1    3    3    0    0  0.67826304308E+01  0.45195771189E+01  0.43724760329E+01  0.92492810431E+01  0.51100000000E-03 0.  1.
        -12    1    3    3    0    0  0.59954552952E+00  0.11538709463E+02  0.37388307828E+01  0.12144139597E+02  0.00000000000E+00 0.  1.
</event>
<event>
 7    1  0.4005571E-009  0.4778727E+02  0.7816164E-02  0.1312668E+00
        -11   -1    0    0    0    0  0.00000000000E+00  0.00000000000E+00  0.45593999997E+02  0.45594000000E+02  0.51100000000E-03 0.  1.
         11   -1    0    0    0    0 -0.00000000000E+00 -0.00000000000E+00 -0.45593999997E+02  0.45594000000E+02  0.51100000000E-03 0. -1.
    9900012    2    1    2    0    0 -0.15020889589E+01 -0.29486675662E+02  0.31810417630E+02  0.47787274400E+02  0.20000015300E+02 0.  0.
         12    1    1    2    0    0  0.15020889589E+01  0.29486675662E+02 -0.31810417630E+02  0.43400725600E+02  0.00000000000E+00 0. -1.
         11    1    3    3    0    0  0.56574744338E+00  0.14595160204E+00 -0.20408474115E+01  0.21228354760E+01  0.51100000000E-03 0. -1.
        -11    1    3    3    0    0 -0.36218830431E+01 -0.15043616990E+02  0.13240961464E+02  0.20365448918E+02  0.51100000000E-03 0.  1.
        -12    1    3    3    0    0  0.15540466409E+01 -0.14589010274E+02  0.20610303578E+02  0.25298990006E+02  0.00000000000E+00 0.  1.
</event>
<event>
 7    1  0.4005571E-009  0.4778727E+02  0.7816164E-02  0.1312668E+00
        -11   -1    0    0    0    0  0.00000000000E+00  0.00000000000E+00  0.45593999997E+02  0.45594000000E+02  0.51100000000E-03 0.  1.
         11   -1    0    0    0    0 -0.00000000000E+00 -0.00000000000E+00 -0.45593999997E+02  0.45594000000E+02  0.51100000000E-03 0. -1.
    9900012    2    1    2    0    0 -0.28799291654E+02  0.13578863683E+02  0.29493022906E+02  0.47787272600E+02  0.20000007092E+02 0.  0.
         12    1    1    2    0    0  0.28799291654E+02 -0.13578863683E+02 -0.29493022906E+02  0.43400727400E+02  0.00000000000E+00 0. -1.
         11    1    3    3    0    0 -0.95802257911E+01  0.99623293065E+01  0.15943717074E+02  0.21100493971E+02  0.51100000000E-03 0.  1.
        -11    1    3    3    0    0  0.51445190838E-02 -0.72264447246E+00  0.52553654469E+01  0.53048192939E+01  0.51100000000E-03 0. -1.
         12    1    3    3    0    0 -0.19224210382E+02  0.43391788485E+01  0.82939403858E+01  0.21381959335E+02  0.00000000000E+00 0. -1.
</event>
<event>
 7    1  0.4005571E-009  0.4778728E+02  0.7816164E-02  0.1312668E+00
        -11   -1    0    0    0    0  0.00000000000E+00  0.00000000000E+00  0.45593999997E+02  0.45594000000E+02  0.51100000000E-03 0. -1.
         11   -1    0    0    0    0 -0.00000000000E+00 -0.00000000000E+00 -0.45593999997E+02  0.45594000000E+02  0.51100000000E-03 0.  1.
    9900012    2    1    2    0    0 -0.24866768900E+01  0.37673377134E+02 -0.21404561842E+02  0.47787283713E+02  0.20000057761E+02 0.  0.
         12    1    1    2    0    0  0.24866768900E+01 -0.37673377134E+02  0.21404561842E+02  0.43400716287E+02  0.00000000000E+00 0. -1.
         11    1    3    3    0    0 -0.21610663674E+01  0.11505861649E+02  0.12748812773E+01  0.11776263528E+02  0.51100000000E-03 0. -1.
        -11    1    3    3    0    0 -0.80479826090E+00  0.53307488981E+00 -0.44463542303E+01  0.45499379426E+01  0.51100000000E-03 0.  1.
        -12    1    3    3    0    0  0.47918773835E+00  0.25634440594E+02 -0.18233088888E+02  0.31461082243E+02  0.00000000000E+00 0.  1.
</event>
<event>
 7    1  0.4005571E-009  0.4778727E+02  0.7816164E-02  0.1312668E+00
        -11   -1    0    0    0    0  0.00000000000E+00  0.00000000000E+00  0.45593999997E+02  0.45594000000E+02  0.51100000000E-03 0.  1.
         11   -1    0    0    0    0 -0.00000000000E+00 -0.00000000000E+00 -0.45593999997E+02  0.45594000000E+02  0.51100000000E-03 0. -1.
    9900012    2    1    2    0    0 -0.21106530847E+02  0.21678909015E+01  0.37860773704E+02  0.47787267508E+02  0.19999983877E+02 0.  0.
         12    1    1    2    0    0  0.21106530847E+02 -0.21678909015E+01 -0.37860773704E+02  0.43400732492E+02  0.00000000000E+00 0. -1.
         11    1    3    3    0    0 -0.82768090997E+01 -0.10903504504E+01  0.20015317650E+02  0.21686571280E+02  0.51100000000E-03 0. -1.
        -11    1    3    3    0    0 -0.14438809972E+02 -0.10150875107E+01  0.13277068440E+02  0.19641542268E+02  0.51100000000E-03 0.  1.
         12    1    3    3    0    0  0.16090882253E+01  0.42733288626E+01  0.45683876146E+01  0.64591539603E+01  0.00000000000E+00 0. -1.
</event>
<event>
 7    1  0.4005571E-009  0.4778727E+02  0.7816164E-02  0.1312668E+00
        -11   -1    0    0    0    0  0.00000000000E+00  0.00000000000E+00  0.45593999997E+02  0.45594000000E+02  0.51100000000E-03 0. -1.
         11   -1    0    0    0    0 -0.00000000000E+00 -0.00000000000E+00 -0.45593999997E+02  0.45594000000E+02  0.51100000000E-03 0.  1.
    9900012    2    1    2    0    0  0.36748311560E+02 -0.22708296293E+02 -0.41854381056E+01  0.47787274025E+02  0.20000013591E+02 0.  0.
         12    1    1    2    0    0 -0.36748311560E+02  0.22708296293E+02  0.41854381056E+01  0.43400725975E+02  0.00000000000E+00 0. -1.
         11    1    3    3    0    0  0.20518532449E+02 -0.10273573047E+02 -0.59809609980E+01  0.23713463934E+02  0.51100000000E-03 0. -1.
        -11    1    3    3    0    0  0.16137744808E+02 -0.11795219554E+02 -0.21240142416E+01  0.20101379271E+02  0.51100000000E-03 0.  1.
         12    1    3    3    0    0  0.92034302828E-01 -0.63950369128E+00  0.39195371340E+01  0.39724308212E+01  0.00000000000E+00 0. -1.
</event>
<event>
 7    1  0.4005571E-009  0.4778728E+02  0.7816164E-02  0.1312668E+00
        -11   -1    0    0    0    0  0.00000000000E+00  0.00000000000E+00  0.45593999997E+02  0.45594000000E+02  0.51100000000E-03 0.  1.
         11   -1    0    0    0    0 -0.00000000000E+00 -0.00000000000E+00 -0.45593999997E+02  0.45594000000E+02  0.51100000000E-03 0. -1.
    9900012    2    1    2    0    0 -0.76206324565E+01 -0.22570523063E+02  0.36278368619E+02  0.47787279038E+02  0.20000036445E+02 0.  0.
         12    1    1    2    0    0  0.76206324565E+01  0.22570523063E+02 -0.36278368619E+02  0.43400720962E+02  0.00000000000E+00 0. -1.
         11    1    3    3    0    0  0.21111452855E+01 -0.71760811207E+01  0.72022823411E+01  0.10383927284E+02  0.51100000000E-03 0. -1.
        -11    1    3    3    0    0 -0.45912528608E+01 -0.14682603096E+02  0.28224055978E+02  0.32144296113E+02  0.51100000000E-03 0.  1.
         12    1    3    3    0    0 -0.51405248812E+01 -0.71183884651E+00  0.85203030018E+00  0.52590556405E+01  0.00000000000E+00 0. -1.
</event>
<event>
 7    1  0.4005571E-009  0.4778727E+02  0.7816164E-02  0.1312668E+00
        -11   -1    0    0    0    0  0.00000000000E+00  0.00000000000E+00  0.45593999997E+02  0.45594000000E+02  0.51100000000E-03 0.  1.
         11   -1    0    0    0    0 -0.00000000000E+00 -0.00000000000E+00 -0.45593999997E+02  0.45594000000E+02  0.51100000000E-03 0. -1.
    9900012    2    1    2    0    0  0.30663997105E+02  0.29250966648E+02 -0.93660787891E+01  0.47787271893E+02  0.20000003870E+02 0.  0.
         12    1    1    2    0    0 -0.30663997105E+02 -0.29250966648E+02  0.93660787891E+01  0.43400728107E+02  0.00000000000E+00 0. -1.
         11    1    3    3    0    0  0.88783042289E+01  0.14415355762E+02 -0.62892994268E+01  0.18060510936E+02  0.51100000000E-03 0.  1.
        -11    1    3    3    0    0 -0.98208964289E-01  0.47005125022E+01  0.19528192748E+01  0.50909690792E+01  0.51100000000E-03 0. -1.
         12    1    3    3    0    0  0.21883901841E+02  0.10135098384E+02 -0.50295986372E+01  0.24635791878E+02  0.00000000000E+00 0. -1.
</event>
<event>
 7    1  0.4005571E-009  0.4778727E+02  0.7816164E-02  0.1312668E+00
        -11   -1    0    0    0    0  0.00000000000E+00  0.00000000000E+00  0.45593999997E+02  0.45594000000E+02  0.51100000000E-03 0.  1.
         11   -1    0    0    0    0 -0.00000000000E+00 -0.00000000000E+00 -0.45593999997E+02  0.45594000000E+02  0.51100000000E-03 0. -1.
    9900012    2    1    2    0    0  0.38019413969E+02  0.17638392174E+02  0.11270946199E+02  0.47787274831E+02  0.20000017263E+02 0.  0.
         12    1    1    2    0    0 -0.38019413969E+02 -0.17638392174E+02 -0.11270946199E+02  0.43400725169E+02  0.00000000000E+00 0. -1.
         11    1    3    3    0    0  0.81591973386E+01  0.42456455079E+01  0.47718378732E+01  0.10361874538E+02  0.51100000000E-03 0.  1.
        -11    1    3    3    0    0  0.29161013856E+02  0.12620977197E+02  0.96031743233E+00  0.31789558103E+02  0.51100000000E-03 0. -1.
         12    1    3    3    0    0  0.69920277373E+00  0.77176946918E+00  0.55387908934E+01  0.56358421902E+01  0.00000000000E+00 0. -1.
</event>
<event>
 7    1  0.4005571E-009  0.4778727E+02  0.7816164E-02  0.1312668E+00
        -11   -1    0    0    0    0  0.00000000000E+00  0.00000000000E+00  0.45593999997E+02  0.45594000000E+02  0.51100000000E-03 0.  1.
         11   -1    0    0    0    0 -0.00000000000E+00 -0.00000000000E+00 -0.45593999997E+02  0.45594000000E+02  0.51100000000E-03 0. -1.
    9900012    2    1    2    0    0  0.33808429453E+02 -0.26922705687E+02  0.39725599849E+01  0.47787271706E+02  0.20000003018E+02 0.  0.
         12    1    1    2    0    0 -0.33808429453E+02  0.26922705687E+02 -0.39725599849E+01  0.43400728294E+02  0.00000000000E+00 0. -1.
         11    1    3    3    0    0  0.13989994847E+02 -0.16787540980E+02 -0.16748790879E+01  0.21916813367E+02  0.51100000000E-03 0. -1.
        -11    1    3    3    0    0 -0.32384924952E+00 -0.41389365893E+01  0.17047249672E+01  0.44879574309E+01  0.51100000000E-03 0.  1.
         12    1    3    3    0    0  0.20142283856E+02 -0.59962281180E+01  0.39427141057E+01  0.21382500908E+02  0.00000000000E+00 0. -1.
</event>
<event>
 7    1  0.4005571E-009  0.4778727E+02  0.7816164E-02  0.1312668E+00
        -11   -1    0    0    0    0  0.00000000000E+00  0.00000000000E+00  0.45593999997E+02  0.45594000000E+02  0.51100000000E-03 0.  1.
         11   -1    0    0    0    0 -0.00000000000E+00 -0.00000000000E+00 -0.45593999997E+02  0.45594000000E+02  0.51100000000E-03 0. -1.
    9900012    2    1    2    0    0  0.26730001734E+02 -0.21099634270E+02  0.26906050724E+02  0.47787272765E+02  0.20000007843E+02 0.  0.
         12    1    1    2    0    0 -0.26730001734E+02  0.21099634270E+02 -0.26906050724E+02  0.43400727235E+02  0.00000000000E+00 0. -1.
         11    1    3    3    0    0  0.13385054198E+02 -0.99040953319E+01  0.13244171335E+02  0.21275780945E+02  0.51100000000E-03 0. -1.
        -11    1    3    3    0    0  0.14524947607E+02 -0.13308272067E+02  0.13854608928E+02  0.24083903280E+02  0.51100000000E-03 0.  1.
         12    1    3    3    0    0 -0.11800000706E+01  0.21127331289E+01 -0.19272953939E+00  0.24275885393E+01  0.00000000000E+00 0. -1.
</event>
<event>
 7    1  0.4005571E-009  0.4778727E+02  0.7816164E-02  0.1312668E+00
        -11   -1    0    0    0    0  0.00000000000E+00  0.00000000000E+00  0.45593999997E+02  0.45594000000E+02  0.51100000000E-03 0. -1.
         11   -1    0    0    0    0 -0.00000000000E+00 -0.00000000000E+00 -0.45593999997E+02  0.45594000000E+02  0.51100000000E-03 0.  1.
    9900012    2    1    2    0    0  0.17800301265E+02 -0.92371332852E+01 -0.38489577896E+02  0.47787274625E+02  0.20000016324E+02 0.  0.
         12    1    1    2    0    0 -0.17800301265E+02  0.92371332852E+01  0.38489577896E+02  0.43400725375E+02  0.00000000000E+00 0. -1.
         11    1    3    3    0    0 -0.17536070631E+01 -0.91852585697E+00 -0.68005474230E+01  0.70828153297E+01  0.51100000000E-03 0. -1.
        -11    1    3    3    0    0  0.72922480651E+01 -0.36757664456E+01 -0.24341452567E+02  0.25674782456E+02  0.51100000000E-03 0.  1.
         12    1    3    3    0    0  0.12261660263E+02 -0.46428409826E+01 -0.73475779059E+01  0.15029676839E+02  0.00000000000E+00 0. -1.
</event>
<event>
 7    1  0.4005571E-009  0.4778727E+02  0.7816164E-02  0.1312668E+00
        -11   -1    0    0    0    0  0.00000000000E+00  0.00000000000E+00  0.45593999997E+02  0.45594000000E+02  0.51100000000E-03 0.  1.
         11   -1    0    0    0    0 -0.00000000000E+00 -0.00000000000E+00 -0.45593999997E+02  0.45594000000E+02  0.51100000000E-03 0. -1.
    9900012    2    1    2    0    0 -0.27691460595E+02 -0.13897815908E+02  0.30391724059E+02  0.47787272262E+02  0.20000005552E+02 0.  0.
         12    1    1    2    0    0  0.27691460595E+02  0.13897815908E+02 -0.30391724059E+02  0.43400727738E+02  0.00000000000E+00 0. -1.
         11    1    3    3    0    0 -0.61431478075E+01 -0.31788617928E+01  0.33074471351E+01  0.76669833765E+01  0.51100000000E-03 0. -1.
        -11    1    3    3    0    0 -0.23251033433E+02 -0.10341853048E+02  0.28250908979E+02  0.38022076989E+02  0.51100000000E-03 0.  1.
         12    1    3    3    0    0  0.17027206452E+01 -0.37710106717E+00 -0.11666320551E+01  0.20982118965E+01  0.00000000000E+00 0. -1.
</event>
<event>
 7    1  0.4005571E-009  0.4778728E+02  0.7816164E-02  0.1312668E+00
        -11   -1    0    0    0    0  0.00000000000E+00  0.00000000000E+00  0.45593999997E+02  0.45594000000E+02  0.51100000000E-03 0. -1.
         11   -1    0    0    0    0 -0.00000000000E+00 -0.00000000000E+00 -0.45593999997E+02  0.45594000000E+02  0.51100000000E-03 0.  1.
    9900012    2    1    2    0    0  0.47809596249E+01  0.32904557789E+02 -0.27893639558E+02  0.47787278508E+02  0.20000034029E+02 0.  0.
         12    1    1    2    0    0 -0.47809596249E+01 -0.32904557789E+02  0.27893639558E+02  0.43400721492E+02  0.00000000000E+00 0. -1.
         11    1    3    3    0    0  0.14174720483E+00 -0.58203022973E+00  0.55118073644E+00  0.81403435046E+00  0.51100000000E-03 0. -1.
        -11    1    3    3    0    0 -0.38182857126E+01  0.21200453166E+02 -0.11572764966E+02  0.24453372149E+02  0.51100000000E-03 0.  1.
        -12    1    3    3    0    0  0.84574981326E+01  0.12286134853E+02 -0.16872055329E+02  0.22519872009E+02  0.00000000000E+00 0.  1.
</event>
<event>
 7    1  0.4005571E-009  0.4778729E+02  0.7816164E-02  0.1312668E+00
        -11   -1    0    0    0    0  0.00000000000E+00  0.00000000000E+00  0.45593999997E+02  0.45594000000E+02  0.51100000000E-03 0. -1.
         11   -1    0    0    0    0 -0.00000000000E+00 -0.00000000000E+00 -0.45593999997E+02  0.45594000000E+02  0.51100000000E-03 0.  1.
    9900012    2    1    2    0    0 -0.46487241381E+01  0.39222329642E+02 -0.17989431978E+02  0.47787292154E+02  0.20000096245E+02 0.  0.
         12    1    1    2    0    0  0.46487241381E+01 -0.39222329642E+02  0.17989431978E+02  0.43400707846E+02  0.00000000000E+00 0. -1.
         11    1    3    3    0    0 -0.57685367707E+01  0.17387553430E+02 -0.10001556632E+02  0.20871851046E+02  0.51100000000E-03 0.  1.
        -11    1    3    3    0    0 -0.35242149641E+01  0.20061480987E+02 -0.45479995817E+01  0.20870251818E+02  0.51100000000E-03 0. -1.
         12    1    3    3    0    0  0.46440275967E+01  0.17732952252E+01 -0.34398757636E+01  0.60451892893E+01  0.00000000000E+00 0. -1.
</event>
<event>
 7    1  0.4005571E-009  0.4778727E+02  0.7816164E-02  0.1312668E+00
        -11   -1    0    0    0    0  0.00000000000E+00  0.00000000000E+00  0.45593999997E+02  0.45594000000E+02  0.51100000000E-03 0.  1.
         11   -1    0    0    0    0 -0.00000000000E+00 -0.00000000000E+00 -0.45593999997E+02  0.45594000000E+02  0.51100000000E-03 0. -1.
    9900012    2    1    2    0    0  0.83206236426E+01 -0.37749504211E+02  0.19732343652E+02  0.47787271527E+02  0.20000002200E+02 0.  0.
         12    1    1    2    0    0 -0.83206236426E+01  0.37749504211E+02 -0.19732343652E+02  0.43400728473E+02  0.00000000000E+00 0. -1.
         11    1    3    3    0    0  0.88164871540E+01 -0.22419198098E+02  0.43562641299E+01  0.24481174941E+02  0.51100000000E-03 0. -1.
        -11    1    3    3    0    0  0.36555628044E+01 -0.83592188975E+01  0.60630620104E+01  0.10954469462E+02  0.51100000000E-03 0.  1.
        -12    1    3    3    0    0 -0.41514263157E+01 -0.69710872161E+01  0.93130175115E+01  0.12351627124E+02  0.00000000000E+00 0.  1.
</event>
<event>
 7    1  0.4005571E-009  0.4778727E+02  0.7816164E-02  0.1312668E+00
        -11   -1    0    0    0    0  0.00000000000E+00  0.00000000000E+00  0.45593999997E+02  0.45594000000E+02  0.51100000000E-03 0. -1.
         11   -1    0    0    0    0 -0.00000000000E+00 -0.00000000000E+00 -0.45593999997E+02  0.45594000000E+02  0.51100000000E-03 0.  1.
    9900012    2    1    2    0    0 -0.34646654810E+02 -0.25681684779E+02 -0.48665841122E+01  0.47787271164E+02  0.20000000545E+02 0.  0.
         12    1    1    2    0    0  0.34646654810E+02  0.25681684779E+02  0.48665841122E+01  0.43400728836E+02  0.00000000000E+00 0. -1.
         11    1    3    3    0    0  0.76253859951E+00 -0.92496672868E+00 -0.10532063597E+01  0.15957043780E+01  0.51100000000E-03 0. -1.
        -11    1    3    3    0    0 -0.53207112566E+01 -0.11391499536E+02 -0.42307922220E+01  0.13265588304E+02  0.51100000000E-03 0.  1.
         12    1    3    3    0    0 -0.30088482153E+02 -0.13365218514E+02  0.41741446942E+00  0.32925978482E+02  0.00000000000E+00 0. -1.
</event>
<event>
 7    1  0.4005571E-009  0.4778727E+02  0.7816164E-02  0.1312668E+00
        -11   -1    0    0    0    0  0.00000000000E+00  0.00000000000E+00  0.45593999997E+02  0.45594000000E+02  0.51100000000E-03 0.  1.
         11   -1    0    0    0    0 -0.00000000000E+00 -0.00000000000E+00 -0.45593999997E+02  0.45594000000E+02  0.51100000000E-03 0. -1.
    9900012    2    1    2    0    0  0.28733830723E+02  0.11470411896E+02  0.30437152255E+02  0.47787267121E+02  0.19999982111E+02 0.  0.
         12    1    1    2    0    0 -0.28733830723E+02 -0.11470411896E+02 -0.30437152255E+02  0.43400732879E+02  0.00000000000E+00 0. -1.
         11    1    3    3    0    0  0.14168836776E+02  0.10590147386E+02  0.14112282371E+02  0.22628823903E+02  0.51100000000E-03 0. -1.
        -11    1    3    3    0    0  0.15747890622E+02  0.35825363882E+01  0.13170431086E+02  0.20839646860E+02  0.51100000000E-03 0.  1.
        -12    1    3    3    0    0 -0.11828966754E+01 -0.27022718784E+01  0.31544387979E+01  0.43187963577E+01  0.00000000000E+00 0.  1.
</event>
<event>
 7    1  0.4005571E-009  0.4778728E+02  0.7816164E-02  0.1312668E+00
        -11   -1    0    0    0    0  0.00000000000E+00  0.00000000000E+00  0.45593999997E+02  0.45594000000E+02  0.51100000000E-03 0. -1.
         11   -1    0    0    0    0 -0.00000000000E+00 -0.00000000000E+00 -0.45593999997E+02  0.45594000000E+02  0.51100000000E-03 0.  1.
    9900012    2    1    2    0    0  0.35757237573E+02  0.17759119913E+02 -0.17019287872E+02  0.47787279515E+02  0.20000038619E+02 0.  0.
         12    1    1    2    0    0 -0.35757237573E+02 -0.17759119913E+02  0.17019287872E+02  0.43400720485E+02  0.00000000000E+00 0. -1.
         11    1    3    3    0    0  0.16399052820E+01 -0.33379621991E+01  0.73238287534E+00  0.37904704080E+01  0.51100000000E-03 0. -1.
        -11    1    3    3    0    0  0.16927879562E+01  0.67360709383E+00 -0.15497498464E+01  0.23918617078E+01  0.51100000000E-03 0.  1.
        -12    1    3    3    0    0  0.32424544335E+02  0.20423475019E+02 -0.16201920901E+02  0.41604947399E+02  0.00000000000E+00 0.  1.
</event>
<event>
 7    1  0.4005571E-009  0.4778728E+02  0.7816164E-02  0.1312668E+00
        -11   -1    0    0    0    0  0.00000000000E+00  0.00000000000E+00  0.45593999997E+02  0.45594000000E+02  0.51100000000E-03 0.  1.
         11   -1    0    0    0    0 -0.00000000000E+00 -0.00000000000E+00 -0.45593999997E+02  0.45594000000E+02  0.51100000000E-03 0. -1.
    9900012    2    1    2    0    0 -0.40117976174E+02  0.16493881986E+02 -0.14568436171E+01  0.47787279401E+02  0.20000038099E+02 0.  0.
         12    1    1    2    0    0  0.40117976174E+02 -0.16493881986E+02  0.14568436171E+01  0.43400720599E+02  0.00000000000E+00 0. -1.
         11    1    3    3    0    0 -0.16084119401E+02  0.61528307411E+01 -0.30562581550E+01  0.17489909583E+02  0.51100000000E-03 0. -1.
        -11    1    3    3    0    0 -0.24615928500E+02  0.12660501839E+02  0.55129270756E+00  0.27686389556E+02  0.51100000000E-03 0.  1.
         12    1    3    3    0    0  0.58207172729E+00 -0.23194505947E+01  0.10481218303E+01  0.26109802619E+01  0.00000000000E+00 0. -1.
</event>
<event>
 7    1  0.4005571E-009  0.4778729E+02  0.7816164E-02  0.1312668E+00
        -11   -1    0    0    0    0  0.00000000000E+00  0.00000000000E+00  0.45593999997E+02  0.45594000000E+02  0.51100000000E-03 0. -1.
         11   -1    0    0    0    0 -0.00000000000E+00 -0.00000000000E+00 -0.45593999997E+02  0.45594000000E+02  0.51100000000E-03 0.  1.
    9900012    2    1    2    0    0  0.14295394188E+02  0.30969584374E+02 -0.26835582082E+02  0.47787286677E+02  0.20000071274E+02 0.  0.
         12    1    1    2    0    0 -0.14295394188E+02 -0.30969584374E+02  0.26835582082E+02  0.43400713323E+02  0.00000000000E+00 0. -1.
         11    1    3    3    0    0  0.13610575562E+02  0.26112297023E+02 -0.16143639266E+02  0.33581496572E+02  0.51100000000E-03 0. -1.
        -11    1    3    3    0    0  0.40318499951E+01  0.43441986116E+01 -0.74267705288E+01  0.95018312292E+01  0.51100000000E-03 0.  1.
        -12    1    3    3    0    0 -0.33470313699E+01  0.51308873940E+00 -0.32651722866E+01  0.47039588760E+01  0.00000000000E+00 0.  1.
</event>
<event>
 7    1  0.4005571E-009  0.4778730E+02  0.7816164E-02  0.1312668E+00
        -11   -1    0    0    0    0  0.00000000000E+00  0.00000000000E+00  0.45593999997E+02  0.45594000000E+02  0.51100000000E-03 0. -1.
         11   -1    0    0    0    0 -0.00000000000E+00 -0.00000000000E+00 -0.45593999997E+02  0.45594000000E+02  0.51100000000E-03 0.  1.
    9900012    2    1    2    0    0 -0.52697038660E+01  0.10601332178E+02 -0.41754796332E+02  0.47787296786E+02  0.20000117364E+02 0.  0.
         12    1    1    2    0    0  0.52697038660E+01 -0.10601332178E+02  0.41754796332E+02  0.43400703214E+02  0.00000000000E+00 0. -1.
         11    1    3    3    0    0 -0.10634841405E+02  0.63023336722E+01 -0.24294755824E+02  0.27259024602E+02  0.51100000000E-03 0. -1.
        -11    1    3    3    0    0  0.85442065056E+00  0.40761964544E+01 -0.24025409469E+01  0.48080781447E+01  0.51100000000E-03 0.  1.
        -12    1    3    3    0    0  0.45107168884E+01  0.22280205130E+00 -0.15057499561E+02  0.15720194039E+02  0.00000000000E+00 0.  1.
</event>
<event>
 7    1  0.4005571E-009  0.4778727E+02  0.7816164E-02  0.1312668E+00
        -11   -1    0    0    0    0  0.00000000000E+00  0.00000000000E+00  0.45593999997E+02  0.45594000000E+02  0.51100000000E-03 0. -1.
         11   -1    0    0    0    0 -0.00000000000E+00 -0.00000000000E+00 -0.45593999997E+02  0.45594000000E+02  0.51100000000E-03 0.  1.
    9900012    2    1    2    0    0  0.32089117461E+02 -0.17457682138E+02 -0.23433760212E+02  0.47787271403E+02  0.20000001636E+02 0.  0.
         12    1    1    2    0    0 -0.32089117461E+02  0.17457682138E+02  0.23433760212E+02  0.43400728597E+02  0.00000000000E+00 0. -1.
         11    1    3    3    0    0  0.24316972670E+02 -0.17102158733E+02 -0.16201237339E+02  0.33856743563E+02  0.51100000000E-03 0.  1.
        -11    1    3    3    0    0  0.32977035335E+01 -0.45198585853E+01 -0.47268484407E+01  0.73244157902E+01  0.51100000000E-03 0. -1.
        -12    1    3    3    0    0  0.44744412575E+01  0.41643351794E+01 -0.25056744323E+01  0.66061120498E+01  0.00000000000E+00 0.  1.
</event>
<event>
 7    1  0.4005571E-009  0.4778727E+02  0.7816164E-02  0.1312668E+00
        -11   -1    0    0    0    0  0.00000000000E+00  0.00000000000E+00  0.45593999997E+02  0.45594000000E+02  0.51100000000E-03 0.  1.
         11   -1    0    0    0    0 -0.00000000000E+00 -0.00000000000E+00 -0.45593999997E+02  0.45594000000E+02  0.51100000000E-03 0. -1.
    9900012    2    1    2    0    0 -0.40131107229E+02 -0.12631782491E+01  0.16477925415E+02  0.47787269445E+02  0.19999992709E+02 0.  0.
         12    1    1    2    0    0  0.40131107229E+02  0.12631782491E+01 -0.16477925415E+02  0.43400730555E+02  0.00000000000E+00 0. -1.
         11    1    3    3    0    0 -0.77633395185E+01  0.14602135085E+01  0.89472334819E+01  0.11935436783E+02  0.51100000000E-03 0. -1.
        -11    1    3    3    0    0 -0.18417166201E+02  0.49057636056E+01  0.53980995725E+01  0.19809038510E+02  0.51100000000E-03 0.  1.
        -12    1    3    3    0    0 -0.13950601509E+02 -0.76291553633E+01  0.21325923604E+01  0.16042794152E+02  0.00000000000E+00 0.  1.
</event>
<event>
 7    1  0.4005571E-009  0.4778727E+02  0.7816164E-02  0.1312668E+00
        -11   -1    0    0    0    0  0.00000000000E+00  0.00000000000E+00  0.45593999997E+02  0.45594000000E+02  0.51100000000E-03 0.  1.
         11   -1    0    0    0    0 -0.00000000000E+00 -0.00000000000E+00 -0.45593999997E+02  0.45594000000E+02  0.51100000000E-03 0. -1.
    9900012    2    1    2    0    0  0.23045829556E+02  0.34557803438E+02  0.12580598025E+02  0.47787268611E+02  0.19999988905E+02 0.  0.
         12    1    1    2    0    0 -0.23045829556E+02 -0.34557803438E+02 -0.12580598025E+02  0.43400731389E+02  0.00000000000E+00 0. -1.
         11    1    3    3    0    0  0.84916684253E+01  0.77099127357E+01  0.35708202167E+01  0.12012574425E+02  0.51100000000E-03 0. -1.
        -11    1    3    3    0    0  0.74073705612E+01  0.26402955228E+02  0.64537606725E+01  0.28171549664E+02  0.51100000000E-03 0.  1.
        -12    1    3    3    0    0  0.71467905698E+01  0.44493547512E+00  0.25560171360E+01  0.76031445222E+01  0.00000000000E+00 0.  1.
</event>
<event>
 7    1  0.4005571E-009  0.4778727E+02  0.7816164E-02  0.1312668E+00
        -11   -1    0    0    0    0  0.00000000000E+00  0.00000000000E+00  0.45593999997E+02  0.45594000000E+02  0.51100000000E-03 0. -1.
         11   -1    0    0    0    0 -0.00000000000E+00 -0.00000000000E+00 -0.45593999997E+02  0.45594000000E+02  0.51100000000E-03 0.  1.
    9900012    2    1    2    0    0 -0.19046262777E+02 -0.22691445722E+02 -0.31716892929E+02  0.47787272681E+02  0.20000007464E+02 0.  0.
         12    1    1    2    0    0  0.19046262777E+02  0.22691445722E+02  0.31716892929E+02  0.43400727319E+02  0.00000000000E+00 0. -1.
         11    1    3    3    0    0  0.52002425423E+00 -0.74852996376E+01 -0.76226973963E+01  0.10696057767E+02  0.51100000000E-03 0. -1.
        -11    1    3    3    0    0 -0.13723619872E+02 -0.13301964575E+02 -0.24332960897E+02  0.30941444540E+02  0.51100000000E-03 0.  1.
        -12    1    3    3    0    0 -0.58426671597E+01 -0.19041815093E+01  0.23876536515E+00  0.61497703745E+01  0.00000000000E+00 0.  1.
</event>
<event>
 7    1  0.4005571E-009  0.4778727E+02  0.7816164E-02  0.1312668E+00
        -11   -1    0    0    0    0  0.00000000000E+00  0.00000000000E+00  0.45593999997E+02  0.45594000000E+02  0.51100000000E-03 0.  1.
         11   -1    0    0    0    0 -0.00000000000E+00 -0.00000000000E+00 -0.45593999997E+02  0.45594000000E+02  0.51100000000E-03 0. -1.
    9900012    2    1    2    0    0 -0.13100154872E+02  0.29895902586E+02  0.28604962539E+02  0.47787274995E+02  0.20000018011E+02 0.  0.
         12    1    1    2    0    0  0.13100154872E+02 -0.29895902586E+02 -0.28604962539E+02  0.43400725005E+02  0.00000000000E+00 0. -1.
         11    1    3    3    0    0  0.40109276972E+00  0.15110576974E+02  0.10539919124E+02  0.18427704884E+02  0.51100000000E-03 0. -1.
        -11    1    3    3    0    0 -0.39280002058E+01  0.11623710349E+02  0.60653077414E+01  0.13686774132E+02  0.51100000000E-03 0.  1.
        -12    1    3    3    0    0 -0.95732474360E+01  0.31616152638E+01  0.11999735674E+02  0.15672795978E+02  0.00000000000E+00 0.  1.
</event>
<event>
 7    1  0.4005571E-009  0.4778727E+02  0.7816164E-02  0.1312668E+00
        -11   -1    0    0    0    0  0.00000000000E+00  0.00000000000E+00  0.45593999997E+02  0.45594000000E+02  0.51100000000E-03 0.  1.
         11   -1    0    0    0    0 -0.00000000000E+00 -0.00000000000E+00 -0.45593999997E+02  0.45594000000E+02  0.51100000000E-03 0. -1.
    9900012    2    1    2    0    0 -0.19154086447E+02 -0.76581212675E+01  0.38185047321E+02  0.47787266275E+02  0.19999978254E+02 0.  0.
         12    1    1    2    0    0  0.19154086447E+02  0.76581212675E+01 -0.38185047321E+02  0.43400733725E+02  0.00000000000E+00 0. -1.
         11    1    3    3    0    0 -0.83997367938E+01 -0.11169838586E+01  0.48618533408E+01  0.97693832617E+01  0.51100000000E-03 0. -1.
        -11    1    3    3    0    0 -0.11478311553E+02 -0.24336679759E+01  0.14081217659E+02  0.18329077089E+02  0.51100000000E-03 0.  1.
         12    1    3    3    0    0  0.72396189980E+00 -0.41074694330E+01  0.19241976321E+02  0.19688805924E+02  0.00000000000E+00 0. -1.
</event>
<event>
 7    1  0.4005571E-009  0.4778727E+02  0.7816164E-02  0.1312668E+00
        -11   -1    0    0    0    0  0.00000000000E+00  0.00000000000E+00  0.45593999997E+02  0.45594000000E+02  0.51100000000E-03 0. -1.
         11   -1    0    0    0    0 -0.00000000000E+00 -0.00000000000E+00 -0.45593999997E+02  0.45594000000E+02  0.51100000000E-03 0.  1.
    9900012    2    1    2    0    0  0.36265847185E+02  0.10968687640E+02 -0.21168356962E+02  0.47787272851E+02  0.20000008237E+02 0.  0.
         12    1    1    2    0    0 -0.36265847185E+02 -0.10968687640E+02  0.21168356962E+02  0.43400727149E+02  0.00000000000E+00 0. -1.
         11    1    3    3    0    0  0.10675009079E+02  0.89758413039E+01 -0.15150660029E+02  0.20592815386E+02  0.51100000000E-03 0. -1.
        -11    1    3    3    0    0  0.77102059576E+01  0.37079368738E+01 -0.21024678208E+01  0.88100194647E+01  0.51100000000E-03 0.  1.
        -12    1    3    3    0    0  0.17880632149E+02 -0.17150905375E+01 -0.39152291118E+01  0.18384438000E+02  0.00000000000E+00 0.  1.
</event>
<event>
 7    1  0.4005571E-009  0.4778727E+02  0.7816164E-02  0.1312668E+00
        -11   -1    0    0    0    0  0.00000000000E+00  0.00000000000E+00  0.45593999997E+02  0.45594000000E+02  0.51100000000E-03 0.  1.
         11   -1    0    0    0    0 -0.00000000000E+00 -0.00000000000E+00 -0.45593999997E+02  0.45594000000E+02  0.51100000000E-03 0. -1.
    9900012    2    1    2    0    0 -0.30827025916E+02 -0.38424320653E+01  0.30307646812E+02  0.47787271132E+02  0.20000000398E+02 0.  0.
         12    1    1    2    0    0  0.30827025916E+02  0.38424320653E+01 -0.30307646812E+02  0.43400728868E+02  0.00000000000E+00 0. -1.
         11    1    3    3    0    0 -0.19514549867E+01 -0.37542888741E+01  0.25727174308E+01  0.49519427254E+01  0.51100000000E-03 0. -1.
        -11    1    3    3    0    0 -0.85071379069E+01 -0.33221638246E+00  0.11255050905E+00  0.85143661520E+01  0.51100000000E-03 0.  1.
        -12    1    3    3    0    0 -0.20368433023E+02  0.24407319124E+00  0.27622378872E+02  0.34320962254E+02  0.00000000000E+00 0.  1.
</event>
<event>
 7    1  0.4005571E-009  0.4778728E+02  0.7816164E-02  0.1312668E+00
        -11   -1    0    0    0    0  0.00000000000E+00  0.00000000000E+00  0.45593999997E+02  0.45594000000E+02  0.51100000000E-03 0. -1.
         11   -1    0    0    0    0 -0.00000000000E+00 -0.00000000000E+00 -0.45593999997E+02  0.45594000000E+02  0.51100000000E-03 0.  1.
    9900012    2    1    2    0    0  0.34228443854E+02 -0.24031209383E+02  0.11599025415E+02  0.47787276692E+02  0.20000025750E+02 0.  0.
         12    1    1    2    0    0 -0.34228443854E+02  0.24031209383E+02 -0.11599025415E+02  0.43400723308E+02  0.00000000000E+00 0. -1.
         11    1    3    3    0    0  0.92723716683E+01 -0.93684640803E+01  0.96729750443E+01  0.16349661833E+02  0.51100000000E-03 0. -1.
        -11    1    3    3    0    0 -0.26199944070E+00 -0.39251460137E+01 -0.25464306361E+00  0.39421134289E+01  0.51100000000E-03 0.  1.
        -12    1    3    3    0    0  0.25218071627E+02 -0.10737599289E+02  0.21806934340E+01  0.27495501430E+02  0.00000000000E+00 0.  1.
</event>
<event>
 7    1  0.4005571E-009  0.4778725E+02  0.7816164E-02  0.1312668E+00
        -11   -1    0    0    0    0  0.00000000000E+00  0.00000000000E+00  0.45593999997E+02  0.45594000000E+02  0.51100000000E-03 0.  1.
         11   -1    0    0    0    0 -0.00000000000E+00 -0.00000000000E+00 -0.45593999997E+02  0.45594000000E+02  0.51100000000E-03 0. -1.
    9900012    2    1    2    0    0 -0.10566825655E+02 -0.23845681200E+01  0.42027144774E+02  0.47787252686E+02  0.19999916295E+02 0.  0.
         12    1    1    2    0    0  0.10566825655E+02  0.23845681200E+01 -0.42027144774E+02  0.43400747314E+02  0.00000000000E+00 0. -1.
         11    1    3    3    0    0 -0.20875408494E+01 -0.76073770745E+01  0.13948830756E+02  0.16024977144E+02  0.51100000000E-03 0. -1.
        -11    1    3    3    0    0  0.11159170100E+01  0.24559195474E+00 -0.47045508100E+00  0.12356837888E+01  0.51100000000E-03 0.  1.
        -12    1    3    3    0    0 -0.95952018160E+01  0.49772169998E+01  0.28548769100E+02  0.30526591753E+02  0.00000000000E+00 0.  1.
</event>
<event>
 7    1  0.4005571E-009  0.4778726E+02  0.7816164E-02  0.1312668E+00
        -11   -1    0    0    0    0  0.00000000000E+00  0.00000000000E+00  0.45593999997E+02  0.45594000000E+02  0.51100000000E-03 0.  1.
         11   -1    0    0    0    0 -0.00000000000E+00 -0.00000000000E+00 -0.45593999997E+02  0.45594000000E+02  0.51100000000E-03 0. -1.
    9900012    2    1    2    0    0  0.39325897450E+01 -0.28510746581E+02  0.32485317826E+02  0.47787264903E+02  0.19999971998E+02 0.  0.
         12    1    1    2    0    0 -0.39325897450E+01  0.28510746581E+02 -0.32485317826E+02  0.43400735097E+02  0.00000000000E+00 0. -1.
         11    1    3    3    0    0  0.36954323852E+00  0.16136625150E+01  0.28158327716E+01  0.32664022068E+01  0.51100000000E-03 0. -1.
        -11    1    3    3    0    0  0.32730008255E+01 -0.75754535943E+01  0.16390796058E+02  0.18350973469E+02  0.51100000000E-03 0.  1.
         12    1    3    3    0    0  0.29004568100E+00 -0.22548955502E+02  0.13278688996E+02  0.26169889227E+02  0.00000000000E+00 0. -1.
</event>
<event>
 7    1  0.4005571E-009  0.4778727E+02  0.7816164E-02  0.1312668E+00
        -11   -1    0    0    0    0  0.00000000000E+00  0.00000000000E+00  0.45593999997E+02  0.45594000000E+02  0.51100000000E-03 0.  1.
         11   -1    0    0    0    0 -0.00000000000E+00 -0.00000000000E+00 -0.45593999997E+02  0.45594000000E+02  0.51100000000E-03 0. -1.
    9900012    2    1    2    0    0 -0.18961777137E+02  0.79858761825E+01  0.38213874310E+02  0.47787269587E+02  0.19999993355E+02 0.  0.
         12    1    1    2    0    0  0.18961777137E+02 -0.79858761825E+01 -0.38213874310E+02  0.43400730413E+02  0.00000000000E+00 0. -1.
         11    1    3    3    0    0 -0.17038035145E+02  0.97575551567E+01  0.25310886573E+02  0.32033505953E+02  0.51100000000E-03 0. -1.
        -11    1    3    3    0    0 -0.35457202672E+01  0.14447892032E+01  0.11066969737E+02  0.11710566489E+02  0.51100000000E-03 0.  1.
        -12    1    3    3    0    0  0.16219782755E+01 -0.32164681774E+01  0.18360179995E+01  0.40431971454E+01  0.00000000000E+00 0.  1.
</event>
<event>
 7    1  0.4005571E-009  0.4778727E+02  0.7816164E-02  0.1312668E+00
        -11   -1    0    0    0    0  0.00000000000E+00  0.00000000000E+00  0.45593999997E+02  0.45594000000E+02  0.51100000000E-03 0.  1.
         11   -1    0    0    0    0 -0.00000000000E+00 -0.00000000000E+00 -0.45593999997E+02  0.45594000000E+02  0.51100000000E-03 0. -1.
    9900012    2    1    2    0    0 -0.26033530499E+02 -0.22585957744E+02  0.26377128183E+02  0.47787273179E+02  0.20000009730E+02 0.  0.
         12    1    1    2    0    0  0.26033530499E+02  0.22585957744E+02 -0.26377128183E+02  0.43400726821E+02  0.00000000000E+00 0. -1.
         11    1    3    3    0    0 -0.11666140072E+02 -0.95597274347E+01  0.13188388311E+02  0.20035488497E+02  0.51100000000E-03 0. -1.
        -11    1    3    3    0    0 -0.14853689051E+02 -0.15712151259E+02  0.12329421739E+02  0.24890126884E+02  0.51100000000E-03 0.  1.
         12    1    3    3    0    0  0.48629862357E+00  0.26859209498E+01  0.85931813287E+00  0.28616577981E+01  0.00000000000E+00 0. -1.
</event>
<event>
 7    1  0.4005571E-009  0.4778731E+02  0.7816164E-02  0.1312668E+00
        -11   -1    0    0    0    0  0.00000000000E+00  0.00000000000E+00  0.45593999997E+02  0.45594000000E+02  0.51100000000E-03 0.  1.
         11   -1    0    0    0    0 -0.00000000000E+00 -0.00000000000E+00 -0.45593999997E+02  0.45594000000E+02  0.51100000000E-03 0. -1.
    9900012    2    1    2    0    0 -0.40710217817E+02 -0.15668040056E+01  0.14961375402E+02  0.47787314943E+02  0.20000200152E+02 0.  0.
         12    1    1    2    0    0  0.40710217817E+02  0.15668040056E+01 -0.14961375402E+02  0.43400685057E+02  0.00000000000E+00 0. -1.
         11    1    3    3    0    0 -0.21683591052E+02 -0.10318403862E+02  0.51373884925E+01  0.24556879687E+02  0.51100000000E-03 0. -1.
        -11    1    3    3    0    0 -0.34020847778E+01  0.19372339661E+01  0.27001939725E+01  0.47558494535E+01  0.51100000000E-03 0.  1.
        -12    1    3    3    0    0 -0.15624541987E+02  0.68143658903E+01  0.71237929370E+01  0.18474585803E+02  0.00000000000E+00 0.  1.
</event>
<event>
 7    1  0.4005571E-009  0.4778727E+02  0.7816164E-02  0.1312668E+00
        -11   -1    0    0    0    0  0.00000000000E+00  0.00000000000E+00  0.45593999997E+02  0.45594000000E+02  0.51100000000E-03 0.  1.
         11   -1    0    0    0    0 -0.00000000000E+00 -0.00000000000E+00 -0.45593999997E+02  0.45594000000E+02  0.51100000000E-03 0. -1.
    9900012    2    1    2    0    0  0.11489595853E+02 -0.19729780278E+02  0.36910001441E+02  0.47787271331E+02  0.20000001305E+02 0.  0.
         12    1    1    2    0    0 -0.11489595853E+02  0.19729780278E+02 -0.36910001441E+02  0.43400728669E+02  0.00000000000E+00 0. -1.
         11    1    3    3    0    0 -0.35890271088E+01 -0.14783652449E+01  0.69958845444E+01  0.80005674927E+01  0.51100000000E-03 0. -1.
        -11    1    3    3    0    0  0.12949743243E+01 -0.15783799580E+00 -0.82773653239E+00  0.15449981753E+01  0.51100000000E-03 0.  1.
        -12    1    3    3    0    0  0.13783648637E+02 -0.18093577037E+02  0.30741853429E+02  0.38241705663E+02  0.00000000000E+00 0.  1.
</event>
<event>
 7    1  0.4005571E-009  0.4778727E+02  0.7816164E-02  0.1312668E+00
        -11   -1    0    0    0    0  0.00000000000E+00  0.00000000000E+00  0.45593999997E+02  0.45594000000E+02  0.51100000000E-03 0.  1.
         11   -1    0    0    0    0 -0.00000000000E+00 -0.00000000000E+00 -0.45593999997E+02  0.45594000000E+02  0.51100000000E-03 0. -1.
    9900012    2    1    2    0    0 -0.15856032063E+01  0.43332838243E+02  0.18369462226E+01  0.47787269832E+02  0.19999994471E+02 0.  0.
         12    1    1    2    0    0  0.15856032063E+01 -0.43332838243E+02 -0.18369462226E+01  0.43400730168E+02  0.00000000000E+00 0. -1.
         11    1    3    3    0    0 -0.25220723060E+01  0.69252127387E+01 -0.91164880616E+00  0.74263398791E+01  0.51100000000E-03 0. -1.
        -11    1    3    3    0    0  0.14425538648E+01  0.35879307538E+02 -0.16070805449E+01  0.35944239861E+02  0.51100000000E-03 0.  1.
         12    1    3    3    0    0 -0.50608476521E+00  0.52831796647E+00  0.43556755737E+01  0.44166900917E+01  0.00000000000E+00 0. -1.
</event>
<event>
 7    1  0.4005571E-009  0.4778727E+02  0.7816164E-02  0.1312668E+00
        -11   -1    0    0    0    0  0.00000000000E+00  0.00000000000E+00  0.45593999997E+02  0.45594000000E+02  0.51100000000E-03 0. -1.
         11   -1    0    0    0    0 -0.00000000000E+00 -0.00000000000E+00 -0.45593999997E+02  0.45594000000E+02  0.51100000000E-03 0.  1.
    9900012    2    1    2    0    0 -0.10445061537E+02  0.74504147919E+01 -0.41461014963E+02  0.47787265526E+02  0.19999974841E+02 0.  0.
         12    1    1    2    0    0  0.10445061537E+02 -0.74504147919E+01  0.41461014963E+02  0.43400734474E+02  0.00000000000E+00 0. -1.
         11    1    3    3    0    0  0.79440572181E+00 -0.19508803561E+01  0.12254217142E+01  0.24369393208E+01  0.51100000000E-03 0. -1.
        -11    1    3    3    0    0 -0.28720355387E+01  0.23457581577E+01 -0.58858645997E+01  0.69566207182E+01  0.51100000000E-03 0.  1.
        -12    1    3    3    0    0 -0.83674317198E+01  0.70555369902E+01 -0.36800572078E+02  0.38393705487E+02  0.00000000000E+00 0.  1.
</event>
<event>
 7    1  0.4005571E-009  0.4778727E+02  0.7816164E-02  0.1312668E+00
        -11   -1    0    0    0    0  0.00000000000E+00  0.00000000000E+00  0.45593999997E+02  0.45594000000E+02  0.51100000000E-03 0.  1.
         11   -1    0    0    0    0 -0.00000000000E+00 -0.00000000000E+00 -0.45593999997E+02  0.45594000000E+02  0.51100000000E-03 0. -1.
    9900012    2    1    2    0    0 -0.74152477972E+01  0.40941765059E+02  0.12345428390E+02  0.47787266963E+02  0.19999981390E+02 0.  0.
         12    1    1    2    0    0  0.74152477972E+01 -0.40941765059E+02 -0.12345428390E+02  0.43400733037E+02  0.00000000000E+00 0. -1.
         11    1    3    3    0    0 -0.38751263182E+01  0.16337998427E+02  0.31226703380E+01  0.17079164701E+02  0.51100000000E-03 0. -1.
        -11    1    3    3    0    0  0.53353158116E+01  0.15161510918E+02  0.30723773478E+01  0.16363878237E+02  0.51100000000E-03 0.  1.
         12    1    3    3    0    0 -0.88754372906E+01  0.94422557138E+01  0.61503807046E+01  0.14344224025E+02  0.00000000000E+00 0. -1.
</event>
<event>
 7    1  0.4005571E-009  0.4778727E+02  0.7816164E-02  0.1312668E+00
        -11   -1    0    0    0    0  0.00000000000E+00  0.00000000000E+00  0.45593999997E+02  0.45594000000E+02  0.51100000000E-03 0. -1.
         11   -1    0    0    0    0 -0.00000000000E+00 -0.00000000000E+00 -0.45593999997E+02  0.45594000000E+02  0.51100000000E-03 0.  1.
    9900012    2    1    2    0    0 -0.76639470360E+00  0.26619759823E+02  0.34269873696E+02  0.47787271699E+02  0.20000002984E+02 0.  0.
         12    1    1    2    0    0  0.76639470360E+00 -0.26619759823E+02 -0.34269873696E+02  0.43400728301E+02  0.00000000000E+00 0. -1.
         11    1    3    3    0    0 -0.50095184893E-01  0.67926253756E+01  0.55682707273E+01  0.87833881944E+01  0.51100000000E-03 0. -1.
        -11    1    3    3    0    0 -0.27792861368E+01  0.14892528902E+02  0.70650398218E+01  0.16716059239E+02  0.51100000000E-03 0.  1.
         12    1    3    3    0    0  0.20629866181E+01  0.49346055457E+01  0.21636563147E+02  0.22287824266E+02  0.00000000000E+00 0. -1.
</event>
<event>
 7    1  0.4005571E-009  0.4778727E+02  0.7816164E-02  0.1312668E+00
        -11   -1    0    0    0    0  0.00000000000E+00  0.00000000000E+00  0.45593999997E+02  0.45594000000E+02  0.51100000000E-03 0.  1.
         11   -1    0    0    0    0 -0.00000000000E+00 -0.00000000000E+00 -0.45593999997E+02  0.45594000000E+02  0.51100000000E-03 0. -1.
    9900012    2    1    2    0    0  0.28789674275E+02  0.13512989911E+02  0.29532647077E+02  0.47787268617E+02  0.19999988931E+02 0.  0.
         12    1    1    2    0    0 -0.28789674275E+02 -0.13512989911E+02 -0.29532647077E+02  0.43400731383E+02  0.00000000000E+00 0. -1.
         11    1    3    3    0    0  0.15916137053E+02  0.43402830870E+01  0.82299150253E+01  0.18436186632E+02  0.51100000000E-03 0. -1.
        -11    1    3    3    0    0  0.92548355568E+00 -0.15452756372E+01 -0.85237457563E+00  0.19927215774E+01  0.51100000000E-03 0.  1.
        -12    1    3    3    0    0  0.11948053667E+02  0.10717982462E+02  0.22155106628E+02  0.27358360407E+02  0.00000000000E+00 0.  1.
</event>
<event>
 7    1  0.4005571E-009  0.4778727E+02  0.7816164E-02  0.1312668E+00
        -11   -1    0    0    0    0  0.00000000000E+00  0.00000000000E+00  0.45593999997E+02  0.45594000000E+02  0.51100000000E-03 0.  1.
         11   -1    0    0    0    0 -0.00000000000E+00 -0.00000000000E+00 -0.45593999997E+02  0.45594000000E+02  0.51100000000E-03 0. -1.
    9900012    2    1    2    0    0 -0.12995971683E+02  0.23964584819E+02  0.33770210272E+02  0.47787266050E+02  0.19999977230E+02 0.  0.
         12    1    1    2    0    0  0.12995971683E+02 -0.23964584819E+02 -0.33770210272E+02  0.43400733950E+02  0.00000000000E+00 0. -1.
         11    1    3    3    0    0 -0.13444228543E+02  0.90154794956E+01  0.17659797052E+02  0.23956097008E+02  0.51100000000E-03 0. -1.
        -11    1    3    3    0    0 -0.80117349219E+00  0.29427102262E+01  0.96901768932E+01  0.10158786882E+02  0.51100000000E-03 0.  1.
        -12    1    3    3    0    0  0.12494303530E+01  0.12006395098E+02  0.64202363271E+01  0.13672382161E+02  0.00000000000E+00 0.  1.
</event>
<event>
 7    1  0.4005571E-009  0.4778728E+02  0.7816164E-02  0.1312668E+00
        -11   -1    0    0    0    0  0.00000000000E+00  0.00000000000E+00  0.45593999997E+02  0.45594000000E+02  0.51100000000E-03 0. -1.
         11   -1    0    0    0    0 -0.00000000000E+00 -0.00000000000E+00 -0.45593999997E+02  0.45594000000E+02  0.51100000000E-03 0.  1.
    9900012    2    1    2    0    0 -0.42208549242E+02  0.90091690864E+01  0.45712284551E+01  0.47787275509E+02  0.20000020354E+02 0.  0.
         12    1    1    2    0    0  0.42208549242E+02 -0.90091690864E+01 -0.45712284551E+01  0.43400724491E+02  0.00000000000E+00 0. -1.
         11    1    3    3    0    0 -0.57369934484E+01 -0.57421410912E+00  0.29100031448E+01  0.64584002845E+01  0.51100000000E-03 0. -1.
        -11    1    3    3    0    0 -0.83782032615E+01  0.66891301173E+01 -0.57016965708E+01  0.12142820746E+02  0.51100000000E-03 0.  1.
        -12    1    3    3    0    0 -0.28093352533E+02  0.28942530783E+01  0.73629218810E+01  0.29186054479E+02  0.00000000000E+00 0.  1.
</event>
<event>
 7    1  0.4005571E-009  0.4778727E+02  0.7816164E-02  0.1312668E+00
        -11   -1    0    0    0    0  0.00000000000E+00  0.00000000000E+00  0.45593999997E+02  0.45594000000E+02  0.51100000000E-03 0. -1.
         11   -1    0    0    0    0 -0.00000000000E+00 -0.00000000000E+00 -0.45593999997E+02  0.45594000000E+02  0.51100000000E-03 0.  1.
    9900012    2    1    2    0    0  0.26121621109E+02 -0.20463120771E+01 -0.34599081787E+02  0.47787274856E+02  0.20000017379E+02 0.  0.
         12    1    1    2    0    0 -0.26121621109E+02  0.20463120771E+01  0.34599081787E+02  0.43400725144E+02  0.00000000000E+00 0. -1.
         11    1    3    3    0    0  0.81599147753E+01 -0.43786541333E+00 -0.26007602101E+01  0.85755401691E+01  0.51100000000E-03 0. -1.
        -11    1    3    3    0    0  0.93055918166E+01  0.59211468988E+01 -0.13350310559E+02  0.17317182563E+02  0.51100000000E-03 0.  1.
        -12    1    3    3    0    0  0.86561145173E+01 -0.75295935626E+01 -0.18648011019E+02  0.21894552124E+02  0.00000000000E+00 0.  1.
</event>
<event>
 7    1  0.4005571E-009  0.4778727E+02  0.7816164E-02  0.1312668E+00
        -11   -1    0    0    0    0  0.00000000000E+00  0.00000000000E+00  0.45593999997E+02  0.45594000000E+02  0.51100000000E-03 0.  1.
         11   -1    0    0    0    0 -0.00000000000E+00 -0.00000000000E+00 -0.45593999997E+02  0.45594000000E+02  0.51100000000E-03 0. -1.
    9900012    2    1    2    0    0 -0.37102421596E+01  0.42079945459E+02 -0.99566830844E+01  0.47787271380E+02  0.20000001531E+02 0.  0.
         12    1    1    2    0    0  0.37102421596E+01 -0.42079945459E+02  0.99566830844E+01  0.43400728620E+02  0.00000000000E+00 0. -1.
         11    1    3    3    0    0  0.43235700976E+01  0.56308069761E+01 -0.15479052420E+01  0.72660344405E+01  0.51100000000E-03 0. -1.
        -11    1    3    3    0    0  0.28406011335E+01  0.38031694721E+01  0.99467868219E+00  0.48499998737E+01  0.51100000000E-03 0.  1.
         12    1    3    3    0    0 -0.10874413391E+02  0.32645969010E+02 -0.94034565245E+01  0.35671237066E+02  0.00000000000E+00 0. -1.
</event>
<event>
 7    1  0.4005571E-009  0.4778726E+02  0.7816164E-02  0.1312668E+00
        -11   -1    0    0    0    0  0.00000000000E+00  0.00000000000E+00  0.45593999997E+02  0.45594000000E+02  0.51100000000E-03 0.  1.
         11   -1    0    0    0    0 -0.00000000000E+00 -0.00000000000E+00 -0.45593999997E+02  0.45594000000E+02  0.51100000000E-03 0. -1.
    9900012    2    1    2    0    0  0.17091697833E+02  0.20308330754E+02  0.34337585503E+02  0.47787260248E+02  0.19999950775E+02 0.  0.
         12    1    1    2    0    0 -0.17091697833E+02 -0.20308330754E+02 -0.34337585503E+02  0.43400739752E+02  0.00000000000E+00 0. -1.
         11    1    3    3    0    0  0.61841505236E+01 -0.20455837816E+01  0.55774247126E+01  0.85753015919E+01  0.51100000000E-03 0. -1.
        -11    1    3    3    0    0  0.51718708841E+01  0.70945687718E+01  0.16926421679E+02  0.19067902497E+02  0.51100000000E-03 0.  1.
         12    1    3    3    0    0  0.57356764251E+01  0.15259345764E+02  0.11833739111E+02  0.20144056160E+02  0.00000000000E+00 0. -1.
</event>
<event>
 7    1  0.4005571E-009  0.4778727E+02  0.7816164E-02  0.1312668E+00
        -11   -1    0    0    0    0  0.00000000000E+00  0.00000000000E+00  0.45593999997E+02  0.45594000000E+02  0.51100000000E-03 0. -1.
         11   -1    0    0    0    0 -0.00000000000E+00 -0.00000000000E+00 -0.45593999997E+02  0.45594000000E+02  0.51100000000E-03 0.  1.
    9900012    2    1    2    0    0  0.32034181328E+02  0.29269903941E+02 -0.84100401888E+00  0.47787270307E+02  0.19999996639E+02 0.  0.
         12    1    1    2    0    0 -0.32034181328E+02 -0.29269903941E+02  0.84100401888E+00  0.43400729693E+02  0.00000000000E+00 0. -1.
         11    1    3    3    0    0  0.63548272116E+01  0.13198521270E+02 -0.16812278917E+01  0.14744874367E+02  0.51100000000E-03 0. -1.
        -11    1    3    3    0    0  0.23396124889E+01  0.74234938415E+01  0.22797768495E+01  0.81104519083E+01  0.51100000000E-03 0.  1.
         12    1    3    3    0    0  0.23339741628E+02  0.86478888297E+01 -0.14395529766E+01  0.24931944032E+02  0.00000000000E+00 0. -1.
</event>
<event>
 7    1  0.4005571E-009  0.4778727E+02  0.7816164E-02  0.1312668E+00
        -11   -1    0    0    0    0  0.00000000000E+00  0.00000000000E+00  0.45593999997E+02  0.45594000000E+02  0.51100000000E-03 0.  1.
         11   -1    0    0    0    0 -0.00000000000E+00 -0.00000000000E+00 -0.45593999997E+02  0.45594000000E+02  0.51100000000E-03 0. -1.
    9900012    2    1    2    0    0 -0.15305797837E+02 -0.38956845033E+02  0.11476933930E+02  0.47787271494E+02  0.20000002051E+02 0.  0.
         12    1    1    2    0    0  0.15305797837E+02  0.38956845033E+02 -0.11476933930E+02  0.43400728506E+02  0.00000000000E+00 0. -1.
         11    1    3    3    0    0 -0.40066876575E+01 -0.33377842354E+00 -0.20531822621E+01  0.45144780078E+01  0.51100000000E-03 0. -1.
        -11    1    3    3    0    0 -0.22322259627E+00 -0.36653822988E+01  0.39047718805E+01  0.53602331502E+01  0.51100000000E-03 0.  1.
        -12    1    3    3    0    0 -0.11075887584E+02 -0.34957684311E+02  0.96253443116E+01  0.37912560336E+02  0.00000000000E+00 0.  1.
</event>
<event>
 7    1  0.4005571E-009  0.4778727E+02  0.7816164E-02  0.1312668E+00
        -11   -1    0    0    0    0  0.00000000000E+00  0.00000000000E+00  0.45593999997E+02  0.45594000000E+02  0.51100000000E-03 0. -1.
         11   -1    0    0    0    0 -0.00000000000E+00 -0.00000000000E+00 -0.45593999997E+02  0.45594000000E+02  0.51100000000E-03 0.  1.
    9900012    2    1    2    0    0  0.33270985800E+02  0.18584775145E+01 -0.27806664741E+02  0.47787273752E+02  0.20000012347E+02 0.  0.
         12    1    1    2    0    0 -0.33270985800E+02 -0.18584775145E+01  0.27806664741E+02  0.43400726248E+02  0.00000000000E+00 0. -1.
         11    1    3    3    0    0 -0.17502321985E+00  0.69356286430E+00  0.45611500492E+00  0.84835354249E+00  0.51100000000E-03 0. -1.
        -11    1    3    3    0    0  0.33737764833E+02  0.88388666433E+00 -0.21180565142E+02  0.39845129835E+02  0.51100000000E-03 0.  1.
        -12    1    3    3    0    0 -0.29175581290E+00  0.28102798584E+00 -0.70822146046E+01  0.70937903753E+01  0.00000000000E+00 0.  1.
</event>
<event>
 7    1  0.4005571E-009  0.4778727E+02  0.7816164E-02  0.1312668E+00
        -11   -1    0    0    0    0  0.00000000000E+00  0.00000000000E+00  0.45593999997E+02  0.45594000000E+02  0.51100000000E-03 0.  1.
         11   -1    0    0    0    0 -0.00000000000E+00 -0.00000000000E+00 -0.45593999997E+02  0.45594000000E+02  0.51100000000E-03 0. -1.
    9900012    2    1    2    0    0 -0.39110958600E+02 -0.88855603189E+01  0.16583226651E+02  0.47787266470E+02  0.19999979141E+02 0.  0.
         12    1    1    2    0    0  0.39110958600E+02  0.88855603189E+01 -0.16583226651E+02  0.43400733530E+02  0.00000000000E+00 0. -1.
         11    1    3    3    0    0 -0.29890191418E+02 -0.17157103784E+01  0.10989549599E+02  0.31892591706E+02  0.51100000000E-03 0.  1.
        -11    1    3    3    0    0 -0.27879682077E+01  0.20016872852E+01  0.13966758531E+00  0.34349710348E+01  0.51100000000E-03 0. -1.
        -12    1    3    3    0    0 -0.64327989750E+01 -0.91715372257E+01  0.54540094672E+01  0.12459703729E+02  0.00000000000E+00 0.  1.
</event>
<event>
 7    1  0.4005571E-009  0.4778728E+02  0.7816164E-02  0.1312668E+00
        -11   -1    0    0    0    0  0.00000000000E+00  0.00000000000E+00  0.45593999997E+02  0.45594000000E+02  0.51100000000E-03 0. -1.
         11   -1    0    0    0    0 -0.00000000000E+00 -0.00000000000E+00 -0.45593999997E+02  0.45594000000E+02  0.51100000000E-03 0.  1.
    9900012    2    1    2    0    0 -0.30001864765E+02  0.29222663133E+02  0.11381869684E+02  0.47787275496E+02  0.20000020298E+02 0.  0.
         12    1    1    2    0    0  0.30001864765E+02 -0.29222663133E+02 -0.11381869684E+02  0.43400724504E+02  0.00000000000E+00 0. -1.
         11    1    3    3    0    0 -0.18315859470E+02  0.16280347924E+02  0.41527809420E+01  0.24854899446E+02  0.51100000000E-03 0. -1.
        -11    1    3    3    0    0 -0.11442843165E+02  0.15360825909E+02  0.73058372120E+01  0.20500460725E+02  0.51100000000E-03 0.  1.
         12    1    3    3    0    0 -0.24316213023E+00 -0.24185106996E+01 -0.76748470119E-01  0.24319153261E+01  0.00000000000E+00 0. -1.
</event>
<event>
 7    1  0.4005571E-009  0.4778727E+02  0.7816164E-02  0.1312668E+00
        -11   -1    0    0    0    0  0.00000000000E+00  0.00000000000E+00  0.45593999997E+02  0.45594000000E+02  0.51100000000E-03 0. -1.
         11   -1    0    0    0    0 -0.00000000000E+00 -0.00000000000E+00 -0.45593999997E+02  0.45594000000E+02  0.51100000000E-03 0.  1.
    9900012    2    1    2    0    0 -0.22123100151E+02 -0.35587733249E+01 -0.37168891881E+02  0.47787274758E+02  0.20000016931E+02 0.  0.
         12    1    1    2    0    0  0.22123100151E+02  0.35587733249E+01  0.37168891881E+02  0.43400725242E+02  0.00000000000E+00 0. -1.
         11    1    3    3    0    0 -0.34195200840E+01 -0.26006747921E+01  0.14188954431E+01  0.45243664218E+01  0.51100000000E-03 0. -1.
        -11    1    3    3    0    0 -0.68309698994E+01 -0.23715159066E+01 -0.10635252784E+02  0.12860592502E+02  0.51100000000E-03 0.  1.
         12    1    3    3    0    0 -0.11872610168E+02  0.14134173737E+01 -0.27952534540E+02  0.30402315834E+02  0.00000000000E+00 0. -1.
</event>
<event>
 7    1  0.4005571E-009  0.4778727E+02  0.7816164E-02  0.1312668E+00
        -11   -1    0    0    0    0  0.00000000000E+00  0.00000000000E+00  0.45593999997E+02  0.45594000000E+02  0.51100000000E-03 0.  1.
         11   -1    0    0    0    0 -0.00000000000E+00 -0.00000000000E+00 -0.45593999997E+02  0.45594000000E+02  0.51100000000E-03 0. -1.
    9900012    2    1    2    0    0 -0.34186494582E+02  0.19568322892E+02  0.18220523536E+02  0.47787272465E+02  0.20000006479E+02 0.  0.
         12    1    1    2    0    0  0.34186494582E+02 -0.19568322892E+02 -0.18220523536E+02  0.43400727535E+02  0.00000000000E+00 0. -1.
         11    1    3    3    0    0 -0.66367157387E+01  0.12247490725E+02  0.45605633144E+01  0.14657617912E+02  0.51100000000E-03 0. -1.
        -11    1    3    3    0    0 -0.23322685564E+01  0.23316257184E+00  0.50312768073E+01  0.55504583574E+01  0.51100000000E-03 0.  1.
        -12    1    3    3    0    0 -0.25217510287E+02  0.70876695950E+01  0.86286834144E+01  0.27579196196E+02  0.00000000000E+00 0.  1.
</event>
<event>
 7    1  0.4005571E-009  0.4778727E+02  0.7816164E-02  0.1312668E+00
        -11   -1    0    0    0    0  0.00000000000E+00  0.00000000000E+00  0.45593999997E+02  0.45594000000E+02  0.51100000000E-03 0.  1.
         11   -1    0    0    0    0 -0.00000000000E+00 -0.00000000000E+00 -0.45593999997E+02  0.45594000000E+02  0.51100000000E-03 0. -1.
    9900012    2    1    2    0    0  0.12702828009E+02 -0.26525157624E+02  0.31916724908E+02  0.47787272411E+02  0.20000006231E+02 0.  0.
         12    1    1    2    0    0 -0.12702828009E+02  0.26525157624E+02 -0.31916724908E+02  0.43400727589E+02  0.00000000000E+00 0. -1.
         11    1    3    3    0    0 -0.20524826757E+01 -0.38850654016E+01  0.74281168729E+00  0.44562526603E+01  0.51100000000E-03 0. -1.
        -11    1    3    3    0    0  0.36554479032E+01 -0.17185170431E+02  0.16079997208E+02  0.23817193214E+02  0.51100000000E-03 0.  1.
        -12    1    3    3    0    0  0.11099862781E+02 -0.54549217913E+01  0.15093916012E+02  0.19513826537E+02  0.00000000000E+00 0.  1.
</event>
<event>
 7    1  0.4005571E-009  0.4778728E+02  0.7816164E-02  0.1312668E+00
        -11   -1    0    0    0    0  0.00000000000E+00  0.00000000000E+00  0.45593999997E+02  0.45594000000E+02  0.51100000000E-03 0.  1.
         11   -1    0    0    0    0 -0.00000000000E+00 -0.00000000000E+00 -0.45593999997E+02  0.45594000000E+02  0.51100000000E-03 0. -1.
    9900012    2    1    2    0    0  0.56074628495E+01 -0.38382619418E+02  0.19466714220E+02  0.47787284850E+02  0.20000062944E+02 0.  0.
         12    1    1    2    0    0 -0.56074628495E+01  0.38382619418E+02 -0.19466714220E+02  0.43400715150E+02  0.00000000000E+00 0. -1.
         11    1    3    3    0    0 -0.28419111240E+01 -0.43647383299E+01  0.24724614993E+01  0.57654545053E+01  0.51100000000E-03 0. -1.
        -11    1    3    3    0    0 -0.31258197970E+01 -0.53010666801E+01 -0.96361863505E+00  0.62290142467E+01  0.51100000000E-03 0.  1.
        -12    1    3    3    0    0  0.11575193771E+02 -0.28716814408E+02  0.17957871356E+02  0.35792816098E+02  0.00000000000E+00 0.  1.
</event>
<event>
 7    1  0.4005571E-009  0.4778727E+02  0.7816164E-02  0.1312668E+00
        -11   -1    0    0    0    0  0.00000000000E+00  0.00000000000E+00  0.45593999997E+02  0.45594000000E+02  0.51100000000E-03 0.  1.
         11   -1    0    0    0    0 -0.00000000000E+00 -0.00000000000E+00 -0.45593999997E+02  0.45594000000E+02  0.51100000000E-03 0. -1.
    9900012    2    1    2    0    0  0.26587485007E+02 -0.28336528505E+02  0.19333142233E+02  0.47787267341E+02  0.19999983116E+02 0.  0.
         12    1    1    2    0    0 -0.26587485007E+02  0.28336528505E+02 -0.19333142233E+02  0.43400732659E+02  0.00000000000E+00 0. -1.
         11    1    3    3    0    0  0.98981118479E+01 -0.72601636846E+01  0.27652230321E+01  0.12582887330E+02  0.51100000000E-03 0. -1.
        -11    1    3    3    0    0  0.18483825392E+02 -0.14454766064E+02  0.15828294129E+02  0.28304186234E+02  0.51100000000E-03 0.  1.
         12    1    3    3    0    0 -0.17944522331E+01 -0.66215987567E+01  0.73962507137E+00  0.69001937769E+01  0.00000000000E+00 0. -1.
</event>
<event>
 7    1  0.4005571E-009  0.4778727E+02  0.7816164E-02  0.1312668E+00
        -11   -1    0    0    0    0  0.00000000000E+00  0.00000000000E+00  0.45593999997E+02  0.45594000000E+02  0.51100000000E-03 0.  1.
         11   -1    0    0    0    0 -0.00000000000E+00 -0.00000000000E+00 -0.45593999997E+02  0.45594000000E+02  0.51100000000E-03 0. -1.
    9900012    2    1    2    0    0 -0.33933208813E+02  0.20513048044E+02  0.17645840931E+02  0.47787268410E+02  0.19999987986E+02 0.  0.
         12    1    1    2    0    0  0.33933208813E+02 -0.20513048044E+02 -0.17645840931E+02  0.43400731590E+02  0.00000000000E+00 0. -1.
         11    1    3    3    0    0 -0.15614700102E+02  0.53074503546E+01  0.80831658938E+01  0.18366422070E+02  0.51100000000E-03 0. -1.
        -11    1    3    3    0    0 -0.13399027111E+02  0.41539954547E+01  0.10141231629E+02  0.17309944685E+02  0.51100000000E-03 0.  1.
         12    1    3    3    0    0 -0.49194816006E+01  0.11051602234E+02 -0.57855659175E+00  0.12110901655E+02  0.00000000000E+00 0. -1.
</event>
<event>
 7    1  0.4005571E-009  0.4778727E+02  0.7816164E-02  0.1312668E+00
        -11   -1    0    0    0    0  0.00000000000E+00  0.00000000000E+00  0.45593999997E+02  0.45594000000E+02  0.51100000000E-03 0.  1.
         11   -1    0    0    0    0 -0.00000000000E+00 -0.00000000000E+00 -0.45593999997E+02  0.45594000000E+02  0.51100000000E-03 0. -1.
    9900012    2    1    2    0    0 -0.16078357815E+02  0.87815829400E+01  0.39344552134E+02  0.47787267615E+02  0.19999984363E+02 0.  0.
         12    1    1    2    0    0  0.16078357815E+02 -0.87815829400E+01 -0.39344552134E+02  0.43400732385E+02  0.00000000000E+00 0. -1.
         11    1    3    3    0    0 -0.13744985924E+01  0.13944501757E+01  0.24875786202E+01  0.31657203487E+01  0.51100000000E-03 0. -1.
        -11    1    3    3    0    0 -0.17685113176E+02  0.51742745067E+01  0.36505237157E+02  0.40892159211E+02  0.51100000000E-03 0.  1.
         12    1    3    3    0    0  0.29812539537E+01  0.22128582575E+01  0.35173635641E+00  0.37293880555E+01  0.00000000000E+00 0. -1.
</event>
<event>
 7    1  0.4005571E-009  0.4778727E+02  0.7816164E-02  0.1312668E+00
        -11   -1    0    0    0    0  0.00000000000E+00  0.00000000000E+00  0.45593999997E+02  0.45594000000E+02  0.51100000000E-03 0. -1.
         11   -1    0    0    0    0 -0.00000000000E+00 -0.00000000000E+00 -0.45593999997E+02  0.45594000000E+02  0.51100000000E-03 0.  1.
    9900012    2    1    2    0    0 -0.36575544888E+02  0.17856657321E+02  0.15066284052E+02  0.47787267176E+02  0.19999982360E+02 0.  0.
         12    1    1    2    0    0  0.36575544888E+02 -0.17856657321E+02 -0.15066284052E+02  0.43400732824E+02  0.00000000000E+00 0. -1.
         11    1    3    3    0    0 -0.80500931336E+01 -0.17934220668E+01  0.63662007359E+01  0.10418679102E+02  0.51100000000E-03 0. -1.
        -11    1    3    3    0    0 -0.80008919038E+01  0.11709540043E+02  0.50883441518E+01  0.15067144578E+02  0.51100000000E-03 0.  1.
        -12    1    3    3    0    0 -0.20524559851E+02  0.79405393447E+01  0.36117391642E+01  0.22301443495E+02  0.00000000000E+00 0.  1.
</event>
<event>
 7    1  0.4005571E-009  0.4778727E+02  0.7816164E-02  0.1312668E+00
        -11   -1    0    0    0    0  0.00000000000E+00  0.00000000000E+00  0.45593999997E+02  0.45594000000E+02  0.51100000000E-03 0.  1.
         11   -1    0    0    0    0 -0.00000000000E+00 -0.00000000000E+00 -0.45593999997E+02  0.45594000000E+02  0.51100000000E-03 0. -1.
    9900012    2    1    2    0    0 -0.23877864137E+02 -0.33440380534E+02 -0.13971837409E+02  0.47787266290E+02  0.19999978322E+02 0.  0.
         12    1    1    2    0    0  0.23877864137E+02  0.33440380534E+02  0.13971837409E+02  0.43400733710E+02  0.00000000000E+00 0. -1.
         11    1    3    3    0    0 -0.13190975570E+02 -0.11701530312E+02 -0.91007697688E+01  0.19843176631E+02  0.51100000000E-03 0. -1.
        -11    1    3    3    0    0 -0.12728265473E+02 -0.12733192627E+02 -0.50822664890E+01  0.18707548460E+02  0.51100000000E-03 0.  1.
         12    1    3    3    0    0  0.20413769065E+01 -0.90056575940E+01  0.21119884874E+00  0.92365411994E+01  0.00000000000E+00 0. -1.
</event>
<event>
 7    1  0.4005571E-009  0.4778727E+02  0.7816164E-02  0.1312668E+00
        -11   -1    0    0    0    0  0.00000000000E+00  0.00000000000E+00  0.45593999997E+02  0.45594000000E+02  0.51100000000E-03 0. -1.
         11   -1    0    0    0    0 -0.00000000000E+00 -0.00000000000E+00 -0.45593999997E+02  0.45594000000E+02  0.51100000000E-03 0.  1.
    9900012    2    1    2    0    0  0.24371995015E+02  0.35058502418E+02 -0.77801614894E+01  0.47787266762E+02  0.19999980477E+02 0.  0.
         12    1    1    2    0    0 -0.24371995015E+02 -0.35058502418E+02  0.77801614894E+01  0.43400733238E+02  0.00000000000E+00 0. -1.
         11    1    3    3    0    0  0.67605570291E+01  0.12398489136E+02 -0.65346565209E+01  0.15560507713E+02  0.51100000000E-03 0. -1.
        -11    1    3    3    0    0  0.13569433275E+01  0.88943347746E+01 -0.54447894251E+01  0.10516473669E+02  0.51100000000E-03 0.  1.
        -12    1    3    3    0    0  0.16254494658E+02  0.13765678507E+02  0.41992844565E+01  0.21710285380E+02  0.00000000000E+00 0.  1.
</event>
<event>
 7    1  0.4005571E-009  0.4778727E+02  0.7816164E-02  0.1312668E+00
        -11   -1    0    0    0    0  0.00000000000E+00  0.00000000000E+00  0.45593999997E+02  0.45594000000E+02  0.51100000000E-03 0. -1.
         11   -1    0    0    0    0 -0.00000000000E+00 -0.00000000000E+00 -0.45593999997E+02  0.45594000000E+02  0.51100000000E-03 0.  1.
    9900012    2    1    2    0    0  0.25570026823E+01  0.38658896382E+02 -0.19559526475E+02  0.47787267194E+02  0.19999982445E+02 0.  0.
         12    1    1    2    0    0 -0.25570026823E+01 -0.38658896382E+02  0.19559526475E+02  0.43400732806E+02  0.00000000000E+00 0. -1.
         11    1    3    3    0    0  0.23217004623E+01  0.74731538813E+01 -0.29851678206E+01  0.83755327680E+01  0.51100000000E-03 0. -1.
        -11    1    3    3    0    0 -0.35488888196E+01  0.24179937286E+02 -0.19144471968E+02  0.31044722357E+02  0.51100000000E-03 0.  1.
         12    1    3    3    0    0  0.37841910396E+01  0.70058052144E+01  0.25701133137E+01  0.83670120695E+01  0.00000000000E+00 0. -1.
</event>
<event>
 7    1  0.4005571E-009  0.4778726E+02  0.7816164E-02  0.1312668E+00
        -11   -1    0    0    0    0  0.00000000000E+00  0.00000000000E+00  0.45593999997E+02  0.45594000000E+02  0.51100000000E-03 0.  1.
         11   -1    0    0    0    0 -0.00000000000E+00 -0.00000000000E+00 -0.45593999997E+02  0.45594000000E+02  0.51100000000E-03 0. -1.
    9900012    2    1    2    0    0  0.20581010429E+02  0.12223895131E+02  0.36202517537E+02  0.47787264079E+02  0.19999968241E+02 0.  0.
         12    1    1    2    0    0 -0.20581010429E+02 -0.12223895131E+02 -0.36202517537E+02  0.43400735921E+02  0.00000000000E+00 0. -1.
         11    1    3    3    0    0  0.47697141226E+01  0.10355878086E+02  0.81996535741E+01  0.14043813682E+02  0.51100000000E-03 0. -1.
        -11    1    3    3    0    0  0.18629210466E+01  0.41901743583E+01  0.54291801513E+01  0.71066189820E+01  0.51100000000E-03 0.  1.
        -12    1    3    3    0    0  0.13948375260E+02 -0.23221573132E+01  0.22573683812E+02  0.26636831415E+02  0.00000000000E+00 0.  1.
</event>
<event>
 7    1  0.4005571E-009  0.4778727E+02  0.7816164E-02  0.1312668E+00
        -11   -1    0    0    0    0  0.00000000000E+00  0.00000000000E+00  0.45593999997E+02  0.45594000000E+02  0.51100000000E-03 0. -1.
         11   -1    0    0    0    0 -0.00000000000E+00 -0.00000000000E+00 -0.45593999997E+02  0.45594000000E+02  0.51100000000E-03 0.  1.
    9900012    2    1    2    0    0 -0.27966235763E+02  0.89931749359E+01  0.31947392058E+02  0.47787269621E+02  0.19999993508E+02 0.  0.
         12    1    1    2    0    0  0.27966235763E+02 -0.89931749359E+01 -0.31947392058E+02  0.43400730379E+02  0.00000000000E+00 0. -1.
         11    1    3    3    0    0  0.14608627052E+01  0.28564835195E+01  0.54322725028E+00  0.32540304312E+01  0.51100000000E-03 0. -1.
        -11    1    3    3    0    0 -0.61434881277E+01 -0.14122730893E+01  0.28328864841E+01  0.69110207456E+01  0.51100000000E-03 0.  1.
        -12    1    3    3    0    0 -0.23283610341E+02  0.75489645056E+01  0.28571278323E+02  0.37622218444E+02  0.00000000000E+00 0.  1.
</event>
<event>
 7    1  0.4005571E-009  0.4778727E+02  0.7816164E-02  0.1312668E+00
        -11   -1    0    0    0    0  0.00000000000E+00  0.00000000000E+00  0.45593999997E+02  0.45594000000E+02  0.51100000000E-03 0.  1.
         11   -1    0    0    0    0 -0.00000000000E+00 -0.00000000000E+00 -0.45593999997E+02  0.45594000000E+02  0.51100000000E-03 0. -1.
    9900012    2    1    2    0    0 -0.16002051526E+02 -0.32275029362E+02  0.24204961123E+02  0.47787270555E+02  0.19999997769E+02 0.  0.
         12    1    1    2    0    0  0.16002051526E+02  0.32275029362E+02 -0.24204961123E+02  0.43400729445E+02  0.00000000000E+00 0. -1.
         11    1    3    3    0    0 -0.46065020411E+01 -0.58172337038E-02  0.72229421533E+01  0.85668423883E+01  0.51100000000E-03 0. -1.
        -11    1    3    3    0    0 -0.61853544850E+01 -0.63977166049E+01  0.53183491385E+01  0.10366977654E+02  0.51100000000E-03 0.  1.
        -12    1    3    3    0    0 -0.52101950000E+01 -0.25871495523E+02  0.11663669832E+02  0.28853450513E+02  0.00000000000E+00 0.  1.
</event>
<event>
 7    1  0.4005571E-009  0.4778727E+02  0.7816164E-02  0.1312668E+00
        -11   -1    0    0    0    0  0.00000000000E+00  0.00000000000E+00  0.45593999997E+02  0.45594000000E+02  0.51100000000E-03 0. -1.
         11   -1    0    0    0    0 -0.00000000000E+00 -0.00000000000E+00 -0.45593999997E+02  0.45594000000E+02  0.51100000000E-03 0.  1.
    9900012    2    1    2    0    0  0.51655198435E-01  0.42655626196E+02 -0.80073625440E+01  0.47787274553E+02  0.20000015995E+02 0.  0.
         12    1    1    2    0    0 -0.51655198435E-01 -0.42655626196E+02  0.80073625440E+01  0.43400725447E+02  0.00000000000E+00 0. -1.
         11    1    3    3    0    0 -0.25992640265E+01  0.64048465034E+01  0.20270282012E+00  0.69151515461E+01  0.51100000000E-03 0. -1.
        -11    1    3    3    0    0 -0.13195248994E+01  0.34001779075E+02 -0.10704861701E+02  0.35671503901E+02  0.51100000000E-03 0.  1.
        -12    1    3    3    0    0  0.39704441243E+01  0.22490006173E+01  0.24947963366E+01  0.52006191057E+01  0.00000000000E+00 0.  1.
</event>
<event>
 7    1  0.4005571E-009  0.4778728E+02  0.7816164E-02  0.1312668E+00
        -11   -1    0    0    0    0  0.00000000000E+00  0.00000000000E+00  0.45593999997E+02  0.45594000000E+02  0.51100000000E-03 0.  1.
         11   -1    0    0    0    0 -0.00000000000E+00 -0.00000000000E+00 -0.45593999997E+02  0.45594000000E+02  0.51100000000E-03 0. -1.
    9900012    2    1    2    0    0 -0.51095024972E+01 -0.92143896938E+01  0.42102383155E+02  0.47787278111E+02  0.20000032219E+02 0.  0.
         12    1    1    2    0    0  0.51095024972E+01  0.92143896938E+01 -0.42102383155E+02  0.43400721889E+02  0.00000000000E+00 0. -1.
         11    1    3    3    0    0 -0.39549773721E+00 -0.37383244547E-01 -0.54244681858E+00  0.67235762747E+00  0.51100000000E-03 0. -1.
        -11    1    3    3    0    0  0.39301756337E+01  0.13729884087E+01  0.28434576042E+01  0.50414907606E+01  0.51100000000E-03 0.  1.
         12    1    3    3    0    0 -0.86441803936E+01 -0.10549994858E+02  0.39801372369E+02  0.42073429723E+02  0.00000000000E+00 0. -1.
</event>
<event>
 7    1  0.4005571E-009  0.4778727E+02  0.7816164E-02  0.1312668E+00
        -11   -1    0    0    0    0  0.00000000000E+00  0.00000000000E+00  0.45593999997E+02  0.45594000000E+02  0.51100000000E-03 0. -1.
         11   -1    0    0    0    0 -0.00000000000E+00 -0.00000000000E+00 -0.45593999997E+02  0.45594000000E+02  0.51100000000E-03 0.  1.
    9900012    2    1    2    0    0 -0.15714518195E+02 -0.40288846789E+02 -0.36723203296E+01  0.47787271961E+02  0.20000004180E+02 0.  0.
         12    1    1    2    0    0  0.15714518195E+02  0.40288846789E+02  0.36723203296E+01  0.43400728039E+02  0.00000000000E+00 0. -1.
         11    1    3    3    0    0  0.38559674251E+01 -0.10209536377E+02 -0.12059720466E+00  0.10914103800E+02  0.51100000000E-03 0. -1.
        -11    1    3    3    0    0 -0.44004818785E+01 -0.58467658921E+01  0.23407912847E+01  0.76829822504E+01  0.51100000000E-03 0.  1.
        -12    1    3    3    0    0 -0.15170003742E+02 -0.24232544520E+02 -0.58925144095E+01  0.29190185911E+02  0.00000000000E+00 0.  1.
</event>
<event>
 7    1  0.4005571E-009  0.4778727E+02  0.7816164E-02  0.1312668E+00
        -11   -1    0    0    0    0  0.00000000000E+00  0.00000000000E+00  0.45593999997E+02  0.45594000000E+02  0.51100000000E-03 0.  1.
         11   -1    0    0    0    0 -0.00000000000E+00 -0.00000000000E+00 -0.45593999997E+02  0.45594000000E+02  0.51100000000E-03 0. -1.
    9900012    2    1    2    0    0 -0.22632433770E+02 -0.80374173784E+01  0.36149638354E+02  0.47787268559E+02  0.19999988669E+02 0.  0.
         12    1    1    2    0    0  0.22632433770E+02  0.80374173784E+01 -0.36149638354E+02  0.43400731441E+02  0.00000000000E+00 0. -1.
         11    1    3    3    0    0 -0.24792283783E+01 -0.55144134095E+01  0.53130728370E+01  0.80488553121E+01  0.51100000000E-03 0. -1.
        -11    1    3    3    0    0 -0.11482856486E+02 -0.19069519831E+01  0.28427837296E+02  0.30718632661E+02  0.51100000000E-03 0.  1.
        -12    1    3    3    0    0 -0.86703489050E+01 -0.61605198583E+00  0.24087282213E+01  0.90197805864E+01  0.00000000000E+00 0.  1.
</event>
<event>
 7    1  0.4005571E-009  0.4778728E+02  0.7816164E-02  0.1312668E+00
        -11   -1    0    0    0    0  0.00000000000E+00  0.00000000000E+00  0.45593999997E+02  0.45594000000E+02  0.51100000000E-03 0.  1.
         11   -1    0    0    0    0 -0.00000000000E+00 -0.00000000000E+00 -0.45593999997E+02  0.45594000000E+02  0.51100000000E-03 0. -1.
    9900012    2    1    2    0    0  0.33428657567E+02  0.11441449350E+02  0.25203986585E+02  0.47787275931E+02  0.20000022280E+02 0.  0.
         12    1    1    2    0    0 -0.33428657567E+02 -0.11441449350E+02 -0.25203986585E+02  0.43400724069E+02  0.00000000000E+00 0. -1.
         11    1    3    3    0    0  0.13063654065E+02  0.10410009683E+02  0.10677358469E+02  0.19825068557E+02  0.51100000000E-03 0. -1.
        -11    1    3    3    0    0  0.27309741521E+01  0.25599320179E+01 -0.15494586299E+01  0.40512089631E+01  0.51100000000E-03 0.  1.
        -12    1    3    3    0    0  0.17634029349E+02 -0.15284923510E+01  0.16076086746E+02  0.23910998411E+02  0.00000000000E+00 0.  1.
</event>
<event>
 7    1  0.4005571E-009  0.4778727E+02  0.7816164E-02  0.1312668E+00
        -11   -1    0    0    0    0  0.00000000000E+00  0.00000000000E+00  0.45593999997E+02  0.45594000000E+02  0.51100000000E-03 0.  1.
         11   -1    0    0    0    0 -0.00000000000E+00 -0.00000000000E+00 -0.45593999997E+02  0.45594000000E+02  0.51100000000E-03 0. -1.
    9900012    2    1    2    0    0  0.99604981336E+01 -0.42218675850E+02  0.14125061874E+01  0.47787270889E+02  0.19999999291E+02 0.  0.
         12    1    1    2    0    0 -0.99604981336E+01  0.42218675850E+02 -0.14125061874E+01  0.43400729111E+02  0.00000000000E+00 0. -1.
         11    1    3    3    0    0  0.50746273824E+01 -0.99089037857E+01  0.11760421914E+01  0.11194699317E+02  0.51100000000E-03 0. -1.
        -11    1    3    3    0    0  0.95669616984E+01 -0.29452745541E+02 -0.94776969750E+00  0.30982079396E+02  0.51100000000E-03 0.  1.
         12    1    3    3    0    0 -0.46810909472E+01 -0.28570265235E+01  0.11842336934E+01  0.56104921756E+01  0.00000000000E+00 0. -1.
</event>
<event>
 7    1  0.4005571E-009  0.4778727E+02  0.7816164E-02  0.1312668E+00
        -11   -1    0    0    0    0  0.00000000000E+00  0.00000000000E+00  0.45593999997E+02  0.45594000000E+02  0.51100000000E-03 0. -1.
         11   -1    0    0    0    0 -0.00000000000E+00 -0.00000000000E+00 -0.45593999997E+02  0.45594000000E+02  0.51100000000E-03 0.  1.
    9900012    2    1    2    0    0  0.10448458423E+01 -0.18876424094E+02 -0.39066769013E+02  0.47787268088E+02  0.19999986520E+02 0.  0.
         12    1    1    2    0    0 -0.10448458423E+01  0.18876424094E+02  0.39066769013E+02  0.43400731912E+02  0.00000000000E+00 0. -1.
         11    1    3    3    0    0  0.52938636339E+01  0.16361967124E+00 -0.80527862954E+01  0.96384195256E+01  0.51100000000E-03 0. -1.
        -11    1    3    3    0    0  0.18911791719E+00 -0.16864479204E+01  0.61087232563E+00  0.18036178737E+01  0.51100000000E-03 0.  1.
        -12    1    3    3    0    0 -0.44381357088E+01 -0.17353595845E+02 -0.31624855043E+02  0.36345230689E+02  0.00000000000E+00 0.  1.
</event>
<event>
 7    1  0.4005571E-009  0.4778727E+02  0.7816164E-02  0.1312668E+00
        -11   -1    0    0    0    0  0.00000000000E+00  0.00000000000E+00  0.45593999997E+02  0.45594000000E+02  0.51100000000E-03 0.  1.
         11   -1    0    0    0    0 -0.00000000000E+00 -0.00000000000E+00 -0.45593999997E+02  0.45594000000E+02  0.51100000000E-03 0. -1.
    9900012    2    1    2    0    0 -0.42729505820E+01 -0.29042280989E+02  0.31967343113E+02  0.47787271695E+02  0.20000002966E+02 0.  0.
         12    1    1    2    0    0  0.42729505820E+01  0.29042280989E+02 -0.31967343113E+02  0.43400728305E+02  0.00000000000E+00 0. -1.
         11    1    3    3    0    0  0.11943835875E+01  0.84192756010E+00  0.30477331770E+00  0.14927428468E+01  0.51100000000E-03 0. -1.
        -11    1    3    3    0    0 -0.41134937684E+01 -0.60363286324E+01  0.91897373784E+00  0.73622420045E+01  0.51100000000E-03 0.  1.
        -12    1    3    3    0    0 -0.13538404011E+01 -0.23847879917E+02  0.30743596057E+02  0.38932286844E+02  0.00000000000E+00 0.  1.
</event>
<event>
 7    1  0.4005571E-009  0.4778727E+02  0.7816164E-02  0.1312668E+00
        -11   -1    0    0    0    0  0.00000000000E+00  0.00000000000E+00  0.45593999997E+02  0.45594000000E+02  0.51100000000E-03 0.  1.
         11   -1    0    0    0    0 -0.00000000000E+00 -0.00000000000E+00 -0.45593999997E+02  0.45594000000E+02  0.51100000000E-03 0. -1.
    9900012    2    1    2    0    0  0.11377209927E+02 -0.15268314144E+02  0.39000777907E+02  0.47787274201E+02  0.20000014394E+02 0.  0.
         12    1    1    2    0    0 -0.11377209927E+02  0.15268314144E+02 -0.39000777907E+02  0.43400725799E+02  0.00000000000E+00 0. -1.
         11    1    3    3    0    0 -0.87969529970E+00 -0.14220524706E+01  0.38960668986E+01  0.42397446373E+01  0.51100000000E-03 0. -1.
        -11    1    3    3    0    0 -0.34993879482E+01 -0.82569996718E+01  0.10625949162E+02  0.13904479690E+02  0.51100000000E-03 0.  1.
         12    1    3    3    0    0  0.15756293175E+02 -0.55892620019E+01  0.24478761846E+02  0.29643049874E+02  0.00000000000E+00 0. -1.
</event>
<event>
 7    1  0.4005571E-009  0.4778727E+02  0.7816164E-02  0.1312668E+00
        -11   -1    0    0    0    0  0.00000000000E+00  0.00000000000E+00  0.45593999997E+02  0.45594000000E+02  0.51100000000E-03 0. -1.
         11   -1    0    0    0    0 -0.00000000000E+00 -0.00000000000E+00 -0.45593999997E+02  0.45594000000E+02  0.51100000000E-03 0.  1.
    9900012    2    1    2    0    0 -0.76216279921E+01  0.29355747623E+02 -0.31044713594E+02  0.47787269892E+02  0.19999994746E+02 0.  0.
         12    1    1    2    0    0  0.76216279921E+01 -0.29355747623E+02  0.31044713594E+02  0.43400730108E+02  0.00000000000E+00 0. -1.
         11    1    3    3    0    0 -0.65590165969E+01  0.94621950606E+01 -0.14699938710E+02  0.18671958451E+02  0.51100000000E-03 0. -1.
        -11    1    3    3    0    0 -0.55109923084E+01  0.80641828527E+01 -0.19505356260E+01  0.99602545547E+01  0.51100000000E-03 0.  1.
         12    1    3    3    0    0  0.44483809132E+01  0.11829369710E+02 -0.14394239258E+02  0.19155056886E+02  0.00000000000E+00 0. -1.
</event>
<event>
 7    1  0.4005571E-009  0.4778726E+02  0.7816164E-02  0.1312668E+00
        -11   -1    0    0    0    0  0.00000000000E+00  0.00000000000E+00  0.45593999997E+02  0.45594000000E+02  0.51100000000E-03 0. -1.
         11   -1    0    0    0    0 -0.00000000000E+00 -0.00000000000E+00 -0.45593999997E+02  0.45594000000E+02  0.51100000000E-03 0.  1.
    9900012    2    1    2    0    0 -0.16892376041E+02 -0.39657301680E+02  0.50567467858E+01  0.47787255388E+02  0.19999928614E+02 0.  0.
         12    1    1    2    0    0  0.16892376041E+02  0.39657301680E+02 -0.50567467858E+01  0.43400744612E+02  0.00000000000E+00 0. -1.
         11    1    3    3    0    0  0.46184401063E+00 -0.92087013947E+01  0.44677302320E+01  0.10245686651E+02  0.51100000000E-03 0. -1.
        -11    1    3    3    0    0 -0.24433221960E+01 -0.11958481036E+02 -0.49165751796E+01  0.13158563896E+02  0.51100000000E-03 0.  1.
        -12    1    3    3    0    0 -0.14910897856E+02 -0.18490119249E+02  0.55055917334E+01  0.24383004840E+02  0.00000000000E+00 0.  1.
</event>
<event>
 7    1  0.4997667E-009  0.4778728E+02  0.7816164E-02  0.1312668E+00
        -11   -1    0    0    0    0  0.00000000000E+00  0.00000000000E+00  0.45593999997E+02  0.45594000000E+02  0.51100000000E-03 0. -1.
         11   -1    0    0    0    0 -0.00000000000E+00 -0.00000000000E+00 -0.45593999997E+02  0.45594000000E+02  0.51100000000E-03 0.  1.
    9900012    2    1    2    0    0 -0.11032026244E+02 -0.37569667872E+02 -0.18719966955E+02  0.47787277542E+02  0.20000029626E+02 0.  0.
         12    1    1    2    0    0  0.11032026244E+02  0.37569667872E+02  0.18719966955E+02  0.43400722458E+02  0.00000000000E+00 0. -1.
         11    1    3    3    0    0  0.12211066277E+01  0.75659933544E+00 -0.85988148380E+00  0.16741984285E+01  0.51100000000E-03 0. -1.
        -11    1    3    3    0    0 -0.85977016012E+01 -0.86423169310E+01 -0.81667163185E+01  0.14673287650E+02  0.51100000000E-03 0.  1.
        -12    1    3    3    0    0 -0.36554312704E+01 -0.29683950277E+02 -0.96933691522E+01  0.31439791464E+02  0.00000000000E+00 0.  1.
</event>
<event>
 7    1  0.4005571E-009  0.4778727E+02  0.7816164E-02  0.1312668E+00
        -11   -1    0    0    0    0  0.00000000000E+00  0.00000000000E+00  0.45593999997E+02  0.45594000000E+02  0.51100000000E-03 0. -1.
         11   -1    0    0    0    0 -0.00000000000E+00 -0.00000000000E+00 -0.45593999997E+02  0.45594000000E+02  0.51100000000E-03 0.  1.
    9900012    2    1    2    0    0  0.33553125986E+02  0.16890344071E+02 -0.21737689973E+02  0.47787272453E+02  0.20000006420E+02 0.  0.
         12    1    1    2    0    0 -0.33553125986E+02 -0.16890344071E+02  0.21737689973E+02  0.43400727547E+02  0.00000000000E+00 0. -1.
         11    1    3    3    0    0  0.30031955696E+02  0.11779914659E+02 -0.21035502398E+02  0.38512038556E+02  0.51100000000E-03 0. -1.
        -11    1    3    3    0    0  0.55142153963E+01  0.46248290314E+01 -0.57989495797E+00  0.72202419232E+01  0.51100000000E-03 0.  1.
         12    1    3    3    0    0 -0.19930451067E+01  0.48560038144E+00 -0.12229261695E+00  0.20549919737E+01  0.00000000000E+00 0. -1.
</event>
<event>
 7    1  0.4005571E-009  0.4778726E+02  0.7816164E-02  0.1312668E+00
        -11   -1    0    0    0    0  0.00000000000E+00  0.00000000000E+00  0.45593999997E+02  0.45594000000E+02  0.51100000000E-03 0. -1.
         11   -1    0    0    0    0 -0.00000000000E+00 -0.00000000000E+00 -0.45593999997E+02  0.45594000000E+02  0.51100000000E-03 0.  1.
    9900012    2    1    2    0    0 -0.41873045561E+02 -0.77864958068E+01 -0.83452231083E+01  0.47787260257E+02  0.19999950816E+02 0.  0.
         12    1    1    2    0    0  0.41873045561E+02  0.77864958068E+01  0.83452231083E+01  0.43400739743E+02  0.00000000000E+00 0. -1.
         11    1    3    3    0    0 -0.60012505369E+01 -0.52094383378E+01  0.13562310782E+01  0.80617999727E+01  0.51100000000E-03 0. -1.
        -11    1    3    3    0    0 -0.31709140992E+02 -0.57084666738E+01 -0.48027338593E+01  0.32574874781E+02  0.51100000000E-03 0.  1.
        -12    1    3    3    0    0 -0.41626540325E+01  0.31314092048E+01 -0.48987203272E+01  0.71505855037E+01  0.00000000000E+00 0.  1.
</event>
<event>
 7    1  0.4005571E-009  0.4778727E+02  0.7816164E-02  0.1312668E+00
        -11   -1    0    0    0    0  0.00000000000E+00  0.00000000000E+00  0.45593999997E+02  0.45594000000E+02  0.51100000000E-03 0.  1.
         11   -1    0    0    0    0 -0.00000000000E+00 -0.00000000000E+00 -0.45593999997E+02  0.45594000000E+02  0.51100000000E-03 0. -1.
    9900012    2    1    2    0    0 -0.97497689011E+01 -0.26586578619E+02  0.32889497064E+02  0.47787272202E+02  0.20000005278E+02 0.  0.
         12    1    1    2    0    0  0.97497689011E+01  0.26586578619E+02 -0.32889497064E+02  0.43400727798E+02  0.00000000000E+00 0. -1.
         11    1    3    3    0    0 -0.35240183228E+01 -0.19287499539E+01  0.23963486632E+01  0.46777418378E+01  0.51100000000E-03 0. -1.
        -11    1    3    3    0    0 -0.10020703996E+02 -0.10657944263E+02  0.89869088205E+01  0.17168890905E+02  0.51100000000E-03 0.  1.
        -12    1    3    3    0    0  0.37949534172E+01 -0.13999884402E+02  0.21506239580E+02  0.25940639460E+02  0.00000000000E+00 0.  1.
</event>
<event>
 7    1  0.4005571E-009  0.4778729E+02  0.7816164E-02  0.1312668E+00
        -11   -1    0    0    0    0  0.00000000000E+00  0.00000000000E+00  0.45593999997E+02  0.45594000000E+02  0.51100000000E-03 0.  1.
         11   -1    0    0    0    0 -0.00000000000E+00 -0.00000000000E+00 -0.45593999997E+02  0.45594000000E+02  0.51100000000E-03 0. -1.
    9900012    2    1    2    0    0 -0.12399390415E+02 -0.25375369687E+02  0.32954025381E+02  0.47787285049E+02  0.20000063854E+02 0.  0.
         12    1    1    2    0    0  0.12399390415E+02  0.25375369687E+02 -0.32954025381E+02  0.43400714951E+02  0.00000000000E+00 0. -1.
         11    1    3    3    0    0 -0.30837702825E+01 -0.16003695350E+02  0.15690514208E+02  0.22623442275E+02  0.51100000000E-03 0. -1.
        -11    1    3    3    0    0 -0.45032564307E+01 -0.11887998308E+02  0.13581714305E+02  0.18602870369E+02  0.51100000000E-03 0.  1.
        -12    1    3    3    0    0 -0.48123637022E+01  0.25163239703E+01  0.36817968681E+01  0.65609724053E+01  0.00000000000E+00 0.  1.
</event>
<event>
 7    1  0.4005571E-009  0.4778728E+02  0.7816164E-02  0.1312668E+00
        -11   -1    0    0    0    0  0.00000000000E+00  0.00000000000E+00  0.45593999997E+02  0.45594000000E+02  0.51100000000E-03 0. -1.
         11   -1    0    0    0    0 -0.00000000000E+00 -0.00000000000E+00 -0.45593999997E+02  0.45594000000E+02  0.51100000000E-03 0.  1.
    9900012    2    1    2    0    0  0.26581169267E+02 -0.19809034218E+02 -0.28011897944E+02  0.47787276243E+02  0.20000023700E+02 0.  0.
         12    1    1    2    0    0 -0.26581169267E+02  0.19809034218E+02  0.28011897944E+02  0.43400723757E+02  0.00000000000E+00 0. -1.
         11    1    3    3    0    0  0.27928045049E+01 -0.56002459907E+01 -0.63617770071E+01  0.89238287247E+01  0.51100000000E-03 0. -1.
        -11    1    3    3    0    0  0.55120847026E+01 -0.58049594719E+01 -0.16124930685E+02  0.18002611536E+02  0.51100000000E-03 0.  1.
         12    1    3    3    0    0  0.18276280059E+02 -0.84038287555E+01 -0.55251902518E+01  0.20860835982E+02  0.00000000000E+00 0. -1.
</event>
<event>
 7    1  0.4005571E-009  0.4778727E+02  0.7816164E-02  0.1312668E+00
        -11   -1    0    0    0    0  0.00000000000E+00  0.00000000000E+00  0.45593999997E+02  0.45594000000E+02  0.51100000000E-03 0.  1.
         11   -1    0    0    0    0 -0.00000000000E+00 -0.00000000000E+00 -0.45593999997E+02  0.45594000000E+02  0.51100000000E-03 0. -1.
    9900012    2    1    2    0    0 -0.52011692691E+01 -0.12171412800E+01  0.43070756821E+02  0.47787266275E+02  0.19999978256E+02 0.  0.
         12    1    1    2    0    0  0.52011692691E+01  0.12171412800E+01 -0.43070756821E+02  0.43400733725E+02  0.00000000000E+00 0. -1.
         11    1    3    3    0    0 -0.25792054466E+01  0.35364968334E+01  0.68839714804E+01  0.81577064297E+01  0.51100000000E-03 0. -1.
        -11    1    3    3    0    0 -0.37954177874E+00  0.10875025817E-01 -0.15149757718E+01  0.15618329227E+01  0.51100000000E-03 0.  1.
        -12    1    3    3    0    0 -0.22424220438E+01 -0.47645131392E+01  0.37701761113E+02  0.38067726923E+02  0.00000000000E+00 0.  1.
</event>
<event>
 7    1  0.4005571E-009  0.4778727E+02  0.7816164E-02  0.1312668E+00
        -11   -1    0    0    0    0  0.00000000000E+00  0.00000000000E+00  0.45593999997E+02  0.45594000000E+02  0.51100000000E-03 0.  1.
         11   -1    0    0    0    0 -0.00000000000E+00 -0.00000000000E+00 -0.45593999997E+02  0.45594000000E+02  0.51100000000E-03 0. -1.
    9900012    2    1    2    0    0  0.37077939759E+02 -0.22122964612E+02  0.44072786753E+01  0.47787270913E+02  0.19999999400E+02 0.  0.
         12    1    1    2    0    0 -0.37077939759E+02  0.22122964612E+02 -0.44072786753E+01  0.43400729087E+02  0.00000000000E+00 0. -1.
         11    1    3    3    0    0  0.40339094231E+01 -0.16652423856E+00 -0.20085480481E+01  0.45093703639E+01  0.51100000000E-03 0. -1.
        -11    1    3    3    0    0  0.31975544912E+02 -0.20559572599E+02  0.14861606792E+01  0.38043924242E+02  0.51100000000E-03 0.  1.
         12    1    3    3    0    0  0.10684854238E+01 -0.13968677744E+01  0.49296660442E+01  0.52339763075E+01  0.00000000000E+00 0. -1.
</event>
<event>
 7    1  0.4005571E-009  0.4778727E+02  0.7816164E-02  0.1312668E+00
        -11   -1    0    0    0    0  0.00000000000E+00  0.00000000000E+00  0.45593999997E+02  0.45594000000E+02  0.51100000000E-03 0.  1.
         11   -1    0    0    0    0 -0.00000000000E+00 -0.00000000000E+00 -0.45593999997E+02  0.45594000000E+02  0.51100000000E-03 0. -1.
    9900012    2    1    2    0    0  0.52282618114E+01 -0.11867968231E+02  0.41417873067E+02  0.47787267277E+02  0.19999982824E+02 0.  0.
         12    1    1    2    0    0 -0.52282618114E+01  0.11867968231E+02 -0.41417873067E+02  0.43400732723E+02  0.00000000000E+00 0. -1.
         11    1    3    3    0    0 -0.46411324907E+00 -0.62756362518E+01  0.47569867849E+01  0.78884684829E+01  0.51100000000E-03 0. -1.
        -11    1    3    3    0    0 -0.40356388357E+01  0.64547541222E+00  0.76991700128E+01  0.87166644118E+01  0.51100000000E-03 0.  1.
         12    1    3    3    0    0  0.97280138961E+01 -0.62378073910E+01  0.28961716269E+02  0.31182134383E+02  0.00000000000E+00 0. -1.
</event>
<event>
 7    1  0.4005571E-009  0.4778727E+02  0.7816164E-02  0.1312668E+00
        -11   -1    0    0    0    0  0.00000000000E+00  0.00000000000E+00  0.45593999997E+02  0.45594000000E+02  0.51100000000E-03 0.  1.
         11   -1    0    0    0    0 -0.00000000000E+00 -0.00000000000E+00 -0.45593999997E+02  0.45594000000E+02  0.51100000000E-03 0. -1.
    9900012    2    1    2    0    0 -0.32942384599E+02  0.24785933222E+02  0.13567608829E+02  0.47787271917E+02  0.20000003980E+02 0.  0.
         12    1    1    2    0    0  0.32942384599E+02 -0.24785933222E+02 -0.13567608829E+02  0.43400728083E+02  0.00000000000E+00 0. -1.
         11    1    3    3    0    0  0.70774276122E+00 -0.10153869947E+01  0.53012314662E+00  0.13464551150E+01  0.51100000000E-03 0.  1.
        -11    1    3    3    0    0 -0.65414053229E+01  0.35533173299E-01  0.48808054920E+01  0.81617099138E+01  0.51100000000E-03 0. -1.
        -12    1    3    3    0    0 -0.27108722038E+02  0.25765787043E+02  0.81566801901E+01  0.38279106889E+02  0.00000000000E+00 0.  1.
</event>
<event>
 7    1  0.4005571E-009  0.4778727E+02  0.7816164E-02  0.1312668E+00
        -11   -1    0    0    0    0  0.00000000000E+00  0.00000000000E+00  0.45593999997E+02  0.45594000000E+02  0.51100000000E-03 0.  1.
         11   -1    0    0    0    0 -0.00000000000E+00 -0.00000000000E+00 -0.45593999997E+02  0.45594000000E+02  0.51100000000E-03 0. -1.
    9900012    2    1    2    0    0 -0.77809657733E+01 -0.33053426553E+02 -0.27028703184E+02  0.47787271537E+02  0.20000002247E+02 0.  0.
         12    1    1    2    0    0  0.77809657733E+01  0.33053426553E+02  0.27028703184E+02  0.43400728463E+02  0.00000000000E+00 0. -1.
         11    1    3    3    0    0 -0.52339480185E+00 -0.28058211693E+01 -0.82170186626E+01  0.86986188855E+01  0.51100000000E-03 0. -1.
        -11    1    3    3    0    0  0.43231836296E+01 -0.61701064656E+01 -0.37024880123E+01  0.83945546776E+01  0.51100000000E-03 0.  1.
        -12    1    3    3    0    0 -0.11580754601E+02 -0.24077498918E+02 -0.15109196510E+02  0.30694097974E+02  0.00000000000E+00 0.  1.
</event>
<event>
 7    1  0.4005571E-009  0.4778727E+02  0.7816164E-02  0.1312668E+00
        -11   -1    0    0    0    0  0.00000000000E+00  0.00000000000E+00  0.45593999997E+02  0.45594000000E+02  0.51100000000E-03 0. -1.
         11   -1    0    0    0    0 -0.00000000000E+00 -0.00000000000E+00 -0.45593999997E+02  0.45594000000E+02  0.51100000000E-03 0.  1.
    9900012    2    1    2    0    0 -0.70353121760E+01  0.42535333668E+02  0.49872882638E+01  0.47787271067E+02  0.20000000102E+02 0.  0.
         12    1    1    2    0    0  0.70353121760E+01 -0.42535333668E+02 -0.49872882638E+01  0.43400728933E+02  0.00000000000E+00 0. -1.
         11    1    3    3    0    0 -0.13218632893E+01 -0.34636870954E+00 -0.99660752915E+00  0.16913073839E+01  0.51100000000E-03 0. -1.
        -11    1    3    3    0    0  0.20969637078E+01  0.17920166703E+02 -0.33008786700E+01  0.18341903710E+02  0.51100000000E-03 0.  1.
         12    1    3    3    0    0 -0.78104125945E+01  0.24961535675E+02  0.92847744629E+01  0.27754059973E+02  0.00000000000E+00 0. -1.
</event>
<event>
 7    1  0.4005571E-009  0.4778727E+02  0.7816164E-02  0.1312668E+00
        -11   -1    0    0    0    0  0.00000000000E+00  0.00000000000E+00  0.45593999997E+02  0.45594000000E+02  0.51100000000E-03 0. -1.
         11   -1    0    0    0    0 -0.00000000000E+00 -0.00000000000E+00 -0.45593999997E+02  0.45594000000E+02  0.51100000000E-03 0.  1.
    9900012    2    1    2    0    0  0.39701179460E+02  0.16473558070E+02 -0.60051334339E+01  0.47787269666E+02  0.19999993714E+02 0.  0.
         12    1    1    2    0    0 -0.39701179460E+02 -0.16473558070E+02  0.60051334339E+01  0.43400730334E+02  0.00000000000E+00 0. -1.
         11    1    3    3    0    0  0.12651881274E+02  0.12590030595E+01  0.57979473765E+01  0.13973953718E+02  0.51100000000E-03 0. -1.
        -11    1    3    3    0    0  0.11734952498E+02  0.58284941144E+01 -0.17206295893E+01  0.13215181430E+02  0.51100000000E-03 0.  1.
         12    1    3    3    0    0  0.15314345688E+02  0.93860608965E+01 -0.10082451221E+02  0.20598134518E+02  0.00000000000E+00 0. -1.
</event>
<event>
 7    1  0.4005571E-009  0.4778727E+02  0.7816164E-02  0.1312668E+00
        -11   -1    0    0    0    0  0.00000000000E+00  0.00000000000E+00  0.45593999997E+02  0.45594000000E+02  0.51100000000E-03 0.  1.
         11   -1    0    0    0    0 -0.00000000000E+00 -0.00000000000E+00 -0.45593999997E+02  0.45594000000E+02  0.51100000000E-03 0. -1.
    9900012    2    1    2    0    0  0.24792489893E+02 -0.16251823857E+02  0.31699118396E+02  0.47787269121E+02  0.19999991229E+02 0.  0.
         12    1    1    2    0    0 -0.24792489893E+02  0.16251823857E+02 -0.31699118396E+02  0.43400730879E+02  0.00000000000E+00 0. -1.
         11    1    3    3    0    0  0.30088616513E+00 -0.27954159362E+01  0.39594740647E+01  0.48561628753E+01  0.51100000000E-03 0. -1.
        -11    1    3    3    0    0  0.12455894968E+02 -0.10401255416E+02  0.25630627096E+02  0.30335861275E+02  0.51100000000E-03 0.  1.
         12    1    3    3    0    0  0.12035708760E+02 -0.30551525047E+01  0.21090172354E+01  0.12595244971E+02  0.00000000000E+00 0. -1.
</event>
<event>
 7    1  0.4005571E-009  0.4778727E+02  0.7816164E-02  0.1312668E+00
        -11   -1    0    0    0    0  0.00000000000E+00  0.00000000000E+00  0.45593999997E+02  0.45594000000E+02  0.51100000000E-03 0.  1.
         11   -1    0    0    0    0 -0.00000000000E+00 -0.00000000000E+00 -0.45593999997E+02  0.45594000000E+02  0.51100000000E-03 0. -1.
    9900012    2    1    2    0    0  0.14607709268E+02 -0.17324692405E+02  0.37014773656E+02  0.47787267221E+02  0.19999982567E+02 0.  0.
         12    1    1    2    0    0 -0.14607709268E+02  0.17324692405E+02 -0.37014773656E+02  0.43400732779E+02  0.00000000000E+00 0. -1.
         11    1    3    3    0    0  0.20155295299E+01  0.18951249961E+01  0.58870273950E+01  0.65046867601E+01  0.51100000000E-03 0. -1.
        -11    1    3    3    0    0  0.83030425281E+01 -0.32285074167E+01  0.46361067237E+01  0.10042771588E+02  0.51100000000E-03 0.  1.
        -12    1    3    3    0    0  0.42891372096E+01 -0.15991309985E+02  0.26491639537E+02  0.31239808872E+02  0.00000000000E+00 0.  1.
</event>
<event>
 7    1  0.4005571E-009  0.4778728E+02  0.7816164E-02  0.1312668E+00
        -11   -1    0    0    0    0  0.00000000000E+00  0.00000000000E+00  0.45593999997E+02  0.45594000000E+02  0.51100000000E-03 0.  1.
         11   -1    0    0    0    0 -0.00000000000E+00 -0.00000000000E+00 -0.45593999997E+02  0.45594000000E+02  0.51100000000E-03 0. -1.
    9900012    2    1    2    0    0  0.12475726047E+01 -0.10233596217E+02  0.42158509335E+02  0.47787276063E+02  0.20000022882E+02 0.  0.
         12    1    1    2    0    0 -0.12475726047E+01  0.10233596217E+02 -0.42158509335E+02  0.43400723937E+02  0.00000000000E+00 0. -1.
         11    1    3    3    0    0 -0.26240535955E+01 -0.20032835018E+00  0.78141257111E+01  0.82453835332E+01  0.51100000000E-03 0. -1.
        -11    1    3    3    0    0  0.60821173611E+01 -0.92602753345E+01  0.35311168420E+02  0.37008424261E+02  0.51100000000E-03 0.  1.
        -12    1    3    3    0    0 -0.22104911609E+01 -0.77299253199E+00 -0.96678479622E+00  0.25334682688E+01  0.00000000000E+00 0.  1.
</event>
<event>
 7    1  0.4005571E-009  0.4778727E+02  0.7816164E-02  0.1312668E+00
        -11   -1    0    0    0    0  0.00000000000E+00  0.00000000000E+00  0.45593999997E+02  0.45594000000E+02  0.51100000000E-03 0.  1.
         11   -1    0    0    0    0 -0.00000000000E+00 -0.00000000000E+00 -0.45593999997E+02  0.45594000000E+02  0.51100000000E-03 0. -1.
    9900012    2    1    2    0    0  0.25078227269E+02  0.30558993501E+02  0.17912390162E+02  0.47787270882E+02  0.19999999258E+02 0.  0.
         12    1    1    2    0    0 -0.25078227269E+02 -0.30558993501E+02 -0.17912390162E+02  0.43400729118E+02  0.00000000000E+00 0. -1.
         11    1    3    3    0    0  0.18154748617E+02  0.13823888151E+02  0.15008064336E+02  0.27311843152E+02  0.51100000000E-03 0.  1.
        -11    1    3    3    0    0  0.25795699176E+01  0.32122310992E+00 -0.14094967903E+01  0.29570334305E+01  0.51100000000E-03 0. -1.
        -12    1    3    3    0    0  0.43439087338E+01  0.16413882240E+02  0.43138226160E+01  0.17518394300E+02  0.00000000000E+00 0.  1.
</event>
<event>
 7    1  0.4005571E-009  0.4778727E+02  0.7816164E-02  0.1312668E+00
        -11   -1    0    0    0    0  0.00000000000E+00  0.00000000000E+00  0.45593999997E+02  0.45594000000E+02  0.51100000000E-03 0.  1.
         11   -1    0    0    0    0 -0.00000000000E+00 -0.00000000000E+00 -0.45593999997E+02  0.45594000000E+02  0.51100000000E-03 0. -1.
    9900012    2    1    2    0    0  0.83460950541E+01  0.28744226868E+01  0.42493571355E+02  0.47787271724E+02  0.20000003097E+02 0.  0.
         12    1    1    2    0    0 -0.83460950541E+01 -0.28744226868E+01 -0.42493571355E+02  0.43400728276E+02  0.00000000000E+00 0. -1.
         11    1    3    3    0    0  0.73528803659E+01 -0.37077566658E+00  0.32578887264E+01  0.80508486190E+01  0.51100000000E-03 0. -1.
        -11    1    3    3    0    0 -0.11083732836E+01 -0.83942738518E+00  0.15364801362E+02  0.15427580848E+02  0.51100000000E-03 0.  1.
        -12    1    3    3    0    0  0.21015879717E+01  0.40846257385E+01  0.23870881267E+02  0.24308842257E+02  0.00000000000E+00 0.  1.
</event>
<event>
 7    1  0.4005571E-009  0.4778726E+02  0.7816164E-02  0.1312668E+00
        -11   -1    0    0    0    0  0.00000000000E+00  0.00000000000E+00  0.45593999997E+02  0.45594000000E+02  0.51100000000E-03 0.  1.
         11   -1    0    0    0    0 -0.00000000000E+00 -0.00000000000E+00 -0.45593999997E+02  0.45594000000E+02  0.51100000000E-03 0. -1.
    9900012    2    1    2    0    0 -0.31936834434E+02  0.28467825666E+02  0.72969471587E+01  0.47787263490E+02  0.19999965556E+02 0.  0.
         12    1    1    2    0    0  0.31936834434E+02 -0.28467825666E+02 -0.72969471587E+01  0.43400736510E+02  0.00000000000E+00 0. -1.
         11    1    3    3    0    0 -0.42592858496E+01  0.32814193380E+01  0.73993503295E+01  0.91465629818E+01  0.51100000000E-03 0. -1.
        -11    1    3    3    0    0 -0.36888271311E+01  0.86230956109E+01 -0.12779602736E+01  0.94656434668E+01  0.51100000000E-03 0.  1.
        -12    1    3    3    0    0 -0.23988721453E+02  0.16563310717E+02  0.11755571028E+01  0.29175057041E+02  0.00000000000E+00 0.  1.
</event>
<event>
 7    1  0.4005571E-009  0.4778727E+02  0.7816164E-02  0.1312668E+00
        -11   -1    0    0    0    0  0.00000000000E+00  0.00000000000E+00  0.45593999997E+02  0.45594000000E+02  0.51100000000E-03 0. -1.
         11   -1    0    0    0    0 -0.00000000000E+00 -0.00000000000E+00 -0.45593999997E+02  0.45594000000E+02  0.51100000000E-03 0.  1.
    9900012    2    1    2    0    0 -0.49407057705E+01  0.20882694029E+02 -0.37724340435E+02  0.47787270229E+02  0.19999996283E+02 0.  0.
         12    1    1    2    0    0  0.49407057705E+01 -0.20882694029E+02  0.37724340435E+02  0.43400729771E+02  0.00000000000E+00 0. -1.
         11    1    3    3    0    0 -0.64210374133E+01  0.51466834415E+00 -0.12955548056E+02  0.14468615368E+02  0.51100000000E-03 0. -1.
        -11    1    3    3    0    0  0.24623582962E+01  0.22078888808E+01 -0.11334273825E+01  0.34960891838E+01  0.51100000000E-03 0.  1.
        -12    1    3    3    0    0 -0.98202665343E+00  0.18160136804E+02 -0.23635364996E+02  0.29822565677E+02  0.00000000000E+00 0.  1.
</event>
<event>
 7    1  0.4005571E-009  0.4778728E+02  0.7816164E-02  0.1312668E+00
        -11   -1    0    0    0    0  0.00000000000E+00  0.00000000000E+00  0.45593999997E+02  0.45594000000E+02  0.51100000000E-03 0.  1.
         11   -1    0    0    0    0 -0.00000000000E+00 -0.00000000000E+00 -0.45593999997E+02  0.45594000000E+02  0.51100000000E-03 0. -1.
    9900012    2    1    2    0    0  0.41542137397E+02  0.12393787149E+02 -0.20658491800E+01  0.47787275671E+02  0.20000021095E+02 0.  0.
         12    1    1    2    0    0 -0.41542137397E+02 -0.12393787149E+02  0.20658491800E+01  0.43400724329E+02  0.00000000000E+00 0. -1.
         11    1    3    3    0    0 -0.37221542485E+00 -0.98749340291E-01 -0.85141462146E+00  0.93445324841E+00  0.51100000000E-03 0. -1.
        -11    1    3    3    0    0 -0.13141696325E+01  0.43828743733E+00 -0.14072107507E+01  0.19746847998E+01  0.51100000000E-03 0.  1.
        -12    1    3    3    0    0  0.43228522455E+02  0.12054249052E+02  0.19277619213E+00  0.44878137623E+02  0.00000000000E+00 0.  1.
</event>
<event>
 7    1  0.4005571E-009  0.4778727E+02  0.7816164E-02  0.1312668E+00
        -11   -1    0    0    0    0  0.00000000000E+00  0.00000000000E+00  0.45593999997E+02  0.45594000000E+02  0.51100000000E-03 0. -1.
         11   -1    0    0    0    0 -0.00000000000E+00 -0.00000000000E+00 -0.45593999997E+02  0.45594000000E+02  0.51100000000E-03 0.  1.
    9900012    2    1    2    0    0 -0.38342318802E+02  0.11641821970E+02  0.16672064501E+02  0.47787272303E+02  0.20000005739E+02 0.  0.
         12    1    1    2    0    0  0.38342318802E+02 -0.11641821970E+02 -0.16672064501E+02  0.43400727697E+02  0.00000000000E+00 0. -1.
         11    1    3    3    0    0 -0.47977597481E+01  0.53370645283E+01  0.44647380068E+01  0.84520200018E+01  0.51100000000E-03 0. -1.
        -11    1    3    3    0    0 -0.23367943247E+02 -0.29110061905E+01  0.91901772828E+01  0.25278332370E+02  0.51100000000E-03 0.  1.
        -12    1    3    3    0    0 -0.10176615807E+02  0.92157636319E+01  0.30171492115E+01  0.14056919932E+02  0.00000000000E+00 0.  1.
</event>
<event>
 7    1  0.4005571E-009  0.4778727E+02  0.7816164E-02  0.1312668E+00
        -11   -1    0    0    0    0  0.00000000000E+00  0.00000000000E+00  0.45593999997E+02  0.45594000000E+02  0.51100000000E-03 0. -1.
         11   -1    0    0    0    0 -0.00000000000E+00 -0.00000000000E+00 -0.45593999997E+02  0.45594000000E+02  0.51100000000E-03 0.  1.
    9900012    2    1    2    0    0 -0.19554983797E+02 -0.16525343831E+02 -0.35044815289E+02  0.47787268915E+02  0.19999990293E+02 0.  0.
         12    1    1    2    0    0  0.19554983797E+02  0.16525343831E+02  0.35044815289E+02  0.43400731085E+02  0.00000000000E+00 0. -1.
         11    1    3    3    0    0 -0.10971703117E+01  0.23260619960E+01 -0.53127880059E+01  0.59025472263E+01  0.51100000000E-03 0. -1.
        -11    1    3    3    0    0 -0.74726992686E+01 -0.78298693032E+01 -0.21978374561E+02  0.24498919083E+02  0.51100000000E-03 0.  1.
        -12    1    3    3    0    0 -0.10985114217E+02 -0.11021536524E+02 -0.77536527220E+01  0.17385802606E+02  0.00000000000E+00 0.  1.
</event>
<event>
 7    1  0.4005571E-009  0.4778727E+02  0.7816164E-02  0.1312668E+00
        -11   -1    0    0    0    0  0.00000000000E+00  0.00000000000E+00  0.45593999997E+02  0.45594000000E+02  0.51100000000E-03 0. -1.
         11   -1    0    0    0    0 -0.00000000000E+00 -0.00000000000E+00 -0.45593999997E+02  0.45594000000E+02  0.51100000000E-03 0.  1.
    9900012    2    1    2    0    0 -0.43267349753E+02 -0.31983889950E+01 -0.11534151838E+01  0.47787267133E+02  0.19999982166E+02 0.  0.
         12    1    1    2    0    0  0.43267349753E+02  0.31983889950E+01  0.11534151838E+01  0.43400732867E+02  0.00000000000E+00 0. -1.
         11    1    3    3    0    0 -0.13652601028E+02  0.99242376055E+00 -0.62233817662E+01  0.15036917923E+02  0.51100000000E-03 0. -1.
        -11    1    3    3    0    0 -0.18072774321E+02  0.24478173431E+01 -0.67172472060E+00  0.18250156047E+02  0.51100000000E-03 0.  1.
         12    1    3    3    0    0 -0.11541974404E+02 -0.66386300986E+01  0.57416913031E+01  0.14500193163E+02  0.00000000000E+00 0. -1.
</event>
<event>
 7    1  0.4005571E-009  0.4778726E+02  0.7816164E-02  0.1312668E+00
        -11   -1    0    0    0    0  0.00000000000E+00  0.00000000000E+00  0.45593999997E+02  0.45594000000E+02  0.51100000000E-03 0.  1.
         11   -1    0    0    0    0 -0.00000000000E+00 -0.00000000000E+00 -0.45593999997E+02  0.45594000000E+02  0.51100000000E-03 0. -1.
    9900012    2    1    2    0    0  0.32082196551E+02  0.28343588571E+02 -0.71412698893E+01  0.47787261709E+02  0.19999957435E+02 0.  0.
         12    1    1    2    0    0 -0.32082196551E+02 -0.28343588571E+02  0.71412698893E+01  0.43400738291E+02  0.00000000000E+00 0. -1.
         11    1    3    3    0    0  0.20090197692E+02  0.16963347304E+02 -0.75905160545E+01  0.27367629223E+02  0.51100000000E-03 0. -1.
        -11    1    3    3    0    0  0.24903572727E+01  0.57130187711E+01 -0.50903315859E+01  0.80468589362E+01  0.51100000000E-03 0.  1.
        -12    1    3    3    0    0  0.95016415858E+01  0.56672224956E+01  0.55395777511E+01  0.12372773549E+02  0.00000000000E+00 0.  1.
</event>
<event>
 7    1  0.4005571E-009  0.4778727E+02  0.7816164E-02  0.1312668E+00
        -11   -1    0    0    0    0  0.00000000000E+00  0.00000000000E+00  0.45593999997E+02  0.45594000000E+02  0.51100000000E-03 0.  1.
         11   -1    0    0    0    0 -0.00000000000E+00 -0.00000000000E+00 -0.45593999997E+02  0.45594000000E+02  0.51100000000E-03 0. -1.
    9900012    2    1    2    0    0 -0.32602428819E+02  0.97192106972E+01  0.26948878375E+02  0.47787268818E+02  0.19999989850E+02 0.  0.
         12    1    1    2    0    0  0.32602428819E+02 -0.97192106972E+01 -0.26948878375E+02  0.43400731182E+02  0.00000000000E+00 0. -1.
         11    1    3    3    0    0 -0.17793732066E+01  0.56082597623E+01  0.69186728465E+01  0.90822233394E+01  0.51100000000E-03 0. -1.
        -11    1    3    3    0    0 -0.14607224542E+02  0.76947083257E+01  0.97760472069E+01  0.19187252129E+02  0.51100000000E-03 0.  1.
         12    1    3    3    0    0 -0.16215831070E+02 -0.35837573908E+01  0.10254158322E+02  0.19517793349E+02  0.00000000000E+00 0. -1.
</event>
<event>
 7    1  0.4005571E-009  0.4778727E+02  0.7816164E-02  0.1312668E+00
        -11   -1    0    0    0    0  0.00000000000E+00  0.00000000000E+00  0.45593999997E+02  0.45594000000E+02  0.51100000000E-03 0.  1.
         11   -1    0    0    0    0 -0.00000000000E+00 -0.00000000000E+00 -0.45593999997E+02  0.45594000000E+02  0.51100000000E-03 0. -1.
    9900012    2    1    2    0    0  0.70170264666E+01  0.58561087395E+01  0.42427472324E+02  0.47787273304E+02  0.20000010300E+02 0.  0.
         12    1    1    2    0    0 -0.70170264666E+01 -0.58561087395E+01 -0.42427472324E+02  0.43400726696E+02  0.00000000000E+00 0. -1.
         11    1    3    3    0    0  0.56532910784E+01  0.78254397535E+01  0.15764220704E+02  0.18485341815E+02  0.51100000000E-03 0. -1.
        -11    1    3    3    0    0  0.90624828556E+00 -0.12491099840E+01 -0.85917676873E+00  0.17662804670E+01  0.51100000000E-03 0.  1.
        -12    1    3    3    0    0  0.45748710263E+00 -0.72022102998E+00  0.27522428388E+02  0.27535651021E+02  0.00000000000E+00 0.  1.
</event>
<event>
 7    1  0.4005571E-009  0.4778727E+02  0.7816164E-02  0.1312668E+00
        -11   -1    0    0    0    0  0.00000000000E+00  0.00000000000E+00  0.45593999997E+02  0.45594000000E+02  0.51100000000E-03 0. -1.
         11   -1    0    0    0    0 -0.00000000000E+00 -0.00000000000E+00 -0.45593999997E+02  0.45594000000E+02  0.51100000000E-03 0.  1.
    9900012    2    1    2    0    0  0.21250324508E+02  0.28117620239E+02 -0.25326785675E+02  0.47787274980E+02  0.20000017946E+02 0.  0.
         12    1    1    2    0    0 -0.21250324508E+02 -0.28117620239E+02  0.25326785675E+02  0.43400725020E+02  0.00000000000E+00 0. -1.
         11    1    3    3    0    0  0.16892053577E+02  0.13659170218E+02 -0.14738987381E+02  0.26251707646E+02  0.51100000000E-03 0. -1.
        -11    1    3    3    0    0  0.64873795407E+01  0.12272031013E+02 -0.42763549050E+01  0.14525014631E+02  0.51100000000E-03 0.  1.
         12    1    3    3    0    0 -0.21291086095E+01  0.21864190082E+01 -0.63114433895E+01  0.70105527036E+01  0.00000000000E+00 0. -1.
</event>
<event>
 7    1  0.4005571E-009  0.4778727E+02  0.7816164E-02  0.1312668E+00
        -11   -1    0    0    0    0  0.00000000000E+00  0.00000000000E+00  0.45593999997E+02  0.45594000000E+02  0.51100000000E-03 0.  1.
         11   -1    0    0    0    0 -0.00000000000E+00 -0.00000000000E+00 -0.45593999997E+02  0.45594000000E+02  0.51100000000E-03 0. -1.
    9900012    2    1    2    0    0 -0.25015406835E+02 -0.23566479225E+02  0.26504215155E+02  0.47787274855E+02  0.20000017373E+02 0.  0.
         12    1    1    2    0    0  0.25015406835E+02  0.23566479225E+02 -0.26504215155E+02  0.43400725145E+02  0.00000000000E+00 0. -1.
         11    1    3    3    0    0 -0.19885076230E+02 -0.95324207185E+01  0.12756743887E+02  0.25475828078E+02  0.51100000000E-03 0. -1.
        -11    1    3    3    0    0 -0.39542560488E+01 -0.50401088026E+00  0.33580579239E+01  0.52121704834E+01  0.51100000000E-03 0.  1.
        -12    1    3    3    0    0 -0.11760745565E+01 -0.13530047626E+02  0.10389413344E+02  0.17099276293E+02  0.00000000000E+00 0.  1.
</event>
<event>
 7    1  0.4005571E-009  0.4778727E+02  0.7816164E-02  0.1312668E+00
        -11   -1    0    0    0    0  0.00000000000E+00  0.00000000000E+00  0.45593999997E+02  0.45594000000E+02  0.51100000000E-03 0.  1.
         11   -1    0    0    0    0 -0.00000000000E+00 -0.00000000000E+00 -0.45593999997E+02  0.45594000000E+02  0.51100000000E-03 0. -1.
    9900012    2    1    2    0    0 -0.35940474489E+02  0.79581794407E+01  0.22990717196E+02  0.47787269549E+02  0.19999993182E+02 0.  0.
         12    1    1    2    0    0  0.35940474489E+02 -0.79581794407E+01 -0.22990717196E+02  0.43400730451E+02  0.00000000000E+00 0. -1.
         11    1    3    3    0    0 -0.25541337834E+01  0.69990599667E+01  0.53674778139E+00  0.74698419155E+01  0.51100000000E-03 0. -1.
        -11    1    3    3    0    0 -0.90308762827E+01  0.47778203966E+00  0.48482359921E+01  0.10261110788E+02  0.51100000000E-03 0.  1.
         12    1    3    3    0    0 -0.24355464423E+02  0.48133743427E+00  0.17605733422E+02  0.30056316845E+02  0.00000000000E+00 0. -1.
</event>
<event>
 7    1  0.4005571E-009  0.4778728E+02  0.7816164E-02  0.1312668E+00
        -11   -1    0    0    0    0  0.00000000000E+00  0.00000000000E+00  0.45593999997E+02  0.45594000000E+02  0.51100000000E-03 0.  1.
         11   -1    0    0    0    0 -0.00000000000E+00 -0.00000000000E+00 -0.45593999997E+02  0.45594000000E+02  0.51100000000E-03 0. -1.
    9900012    2    1    2    0    0  0.36890083280E+02 -0.21812634542E+02 -0.68522699721E+01  0.47787275653E+02  0.20000021011E+02 0.  0.
         12    1    1    2    0    0 -0.36890083280E+02  0.21812634542E+02  0.68522699721E+01  0.43400724347E+02  0.00000000000E+00 0. -1.
         11    1    3    3    0    0  0.19695505628E+02 -0.75650584193E+01 -0.85951529323E+01  0.22782003973E+02  0.51100000000E-03 0. -1.
        -11    1    3    3    0    0  0.70723882239E+01 -0.11996845660E+02  0.37963128177E+01  0.14434506305E+02  0.51100000000E-03 0.  1.
        -12    1    3    3    0    0  0.10122189428E+02 -0.22507304623E+01 -0.20534298575E+01  0.10570765375E+02  0.00000000000E+00 0.  1.
</event>
<event>
 7    1  0.4005571E-009  0.4778727E+02  0.7816164E-02  0.1312668E+00
        -11   -1    0    0    0    0  0.00000000000E+00  0.00000000000E+00  0.45593999997E+02  0.45594000000E+02  0.51100000000E-03 0.  1.
         11   -1    0    0    0    0 -0.00000000000E+00 -0.00000000000E+00 -0.45593999997E+02  0.45594000000E+02  0.51100000000E-03 0. -1.
    9900012    2    1    2    0    0  0.19783428068E+02  0.49042277716E+01  0.38316938998E+02  0.47787270855E+02  0.19999999135E+02 0.  0.
         12    1    1    2    0    0 -0.19783428068E+02 -0.49042277716E+01 -0.38316938998E+02  0.43400729145E+02  0.00000000000E+00 0. -1.
         11    1    3    3    0    0  0.57925229644E+01  0.36898678701E+01  0.74990649239E+01  0.10168796496E+02  0.51100000000E-03 0.  1.
        -11    1    3    3    0    0  0.21990262288E+01  0.77538549368E+01  0.12497401150E+02  0.14870878202E+02  0.51100000000E-03 0. -1.
         12    1    3    3    0    0  0.11791878874E+02 -0.65394950352E+01  0.18320472925E+02  0.22747596156E+02  0.00000000000E+00 0. -1.
</event>
<event>
 7    1  0.4005571E-009  0.4778727E+02  0.7816164E-02  0.1312668E+00
        -11   -1    0    0    0    0  0.00000000000E+00  0.00000000000E+00  0.45593999997E+02  0.45594000000E+02  0.51100000000E-03 0.  1.
         11   -1    0    0    0    0 -0.00000000000E+00 -0.00000000000E+00 -0.45593999997E+02  0.45594000000E+02  0.51100000000E-03 0. -1.
    9900012    2    1    2    0    0 -0.16778892903E+02 -0.13704461711E+02  0.37606915225E+02  0.47787267395E+02  0.19999983363E+02 0.  0.
         12    1    1    2    0    0  0.16778892903E+02  0.13704461711E+02 -0.37606915225E+02  0.43400732605E+02  0.00000000000E+00 0. -1.
         11    1    3    3    0    0  0.20150577598E+01 -0.21016474705E+01  0.48956418552E+01  0.56960239905E+01  0.51100000000E-03 0. -1.
        -11    1    3    3    0    0  0.14517175429E+01 -0.44622208500E+01  0.86814848583E+01  0.98684891622E+01  0.51100000000E-03 0.  1.
        -12    1    3    3    0    0 -0.20245668205E+02 -0.71405933909E+01  0.24029788512E+02  0.32222754243E+02  0.00000000000E+00 0.  1.
</event>
<event>
 7    1  0.4005571E-009  0.4778727E+02  0.7816164E-02  0.1312668E+00
        -11   -1    0    0    0    0  0.00000000000E+00  0.00000000000E+00  0.45593999997E+02  0.45594000000E+02  0.51100000000E-03 0.  1.
         11   -1    0    0    0    0 -0.00000000000E+00 -0.00000000000E+00 -0.45593999997E+02  0.45594000000E+02  0.51100000000E-03 0. -1.
    9900012    2    1    2    0    0  0.15193774091E+02 -0.40294568413E+02  0.53963100734E+01  0.47787272159E+02  0.20000005082E+02 0.  0.
         12    1    1    2    0    0 -0.15193774091E+02  0.40294568413E+02 -0.53963100734E+01  0.43400727841E+02  0.00000000000E+00 0. -1.
         11    1    3    3    0    0  0.67716688616E+01 -0.69891505952E+01  0.12758059969E+01  0.98148564135E+01  0.51100000000E-03 0. -1.
        -11    1    3    3    0    0  0.50498440632E+01 -0.10116234843E+02 -0.55827606598E+01  0.12609771977E+02  0.51100000000E-03 0.  1.
        -12    1    3    3    0    0  0.33722611667E+01 -0.23189182975E+02  0.97032647363E+01  0.25362643769E+02  0.00000000000E+00 0.  1.
</event>
<event>
 7    1  0.4005571E-009  0.4778725E+02  0.7816164E-02  0.1312668E+00
        -11   -1    0    0    0    0  0.00000000000E+00  0.00000000000E+00  0.45593999997E+02  0.45594000000E+02  0.51100000000E-03 0.  1.
         11   -1    0    0    0    0 -0.00000000000E+00 -0.00000000000E+00 -0.45593999997E+02  0.45594000000E+02  0.51100000000E-03 0. -1.
    9900012    2    1    2    0    0  0.42382905954E+02 -0.45112143076E+01  0.81831045249E+01  0.47787251489E+02  0.19999910839E+02 0.  0.
         12    1    1    2    0    0 -0.42382905954E+02  0.45112143076E+01 -0.81831045249E+01  0.43400748511E+02  0.00000000000E+00 0. -1.
         11    1    3    3    0    0  0.30121370066E+01  0.27476064823E+01  0.36404210938E+01  0.54658006486E+01  0.51100000000E-03 0. -1.
        -11    1    3    3    0    0  0.83647480587E+01 -0.71670761226E+01  0.21499032578E+01  0.11223104495E+02  0.51100000000E-03 0.  1.
        -12    1    3    3    0    0  0.31006020889E+02 -0.91744667260E-01  0.23927801732E+01  0.31098346345E+02  0.00000000000E+00 0.  1.
</event>
<event>
 7    1  0.4005571E-009  0.4778727E+02  0.7816164E-02  0.1312668E+00
        -11   -1    0    0    0    0  0.00000000000E+00  0.00000000000E+00  0.45593999997E+02  0.45594000000E+02  0.51100000000E-03 0. -1.
         11   -1    0    0    0    0 -0.00000000000E+00 -0.00000000000E+00 -0.45593999997E+02  0.45594000000E+02  0.51100000000E-03 0.  1.
    9900012    2    1    2    0    0 -0.38919905618E+01 -0.31760210631E+02 -0.29321741313E+02  0.47787273238E+02  0.20000009999E+02 0.  0.
         12    1    1    2    0    0  0.38919905618E+01  0.31760210631E+02  0.29321741313E+02  0.43400726762E+02  0.00000000000E+00 0. -1.
         11    1    3    3    0    0  0.39615759696E+01 -0.16769418599E+02 -0.98743400540E+01  0.19859760222E+02  0.51100000000E-03 0. -1.
        -11    1    3    3    0    0 -0.15484872948E+01 -0.12860830428E+02 -0.99671200939E+01  0.16344487004E+02  0.51100000000E-03 0.  1.
        -12    1    3    3    0    0 -0.63050792366E+01 -0.21299616046E+01 -0.94802811651E+01  0.11583026012E+02  0.00000000000E+00 0.  1.
</event>
<event>
 7    1  0.4005571E-009  0.4778727E+02  0.7816164E-02  0.1312668E+00
        -11   -1    0    0    0    0  0.00000000000E+00  0.00000000000E+00  0.45593999997E+02  0.45594000000E+02  0.51100000000E-03 0. -1.
         11   -1    0    0    0    0 -0.00000000000E+00 -0.00000000000E+00 -0.45593999997E+02  0.45594000000E+02  0.51100000000E-03 0.  1.
    9900012    2    1    2    0    0 -0.37709782277E+02 -0.54805928525E+01  0.20773986290E+02  0.47787273235E+02  0.20000009986E+02 0.  0.
         12    1    1    2    0    0  0.37709782277E+02  0.54805928525E+01 -0.20773986290E+02  0.43400726765E+02  0.00000000000E+00 0. -1.
         11    1    3    3    0    0 -0.28421645350E+02 -0.11098192622E+02  0.11005950188E+02  0.32435948324E+02  0.51100000000E-03 0. -1.
        -11    1    3    3    0    0 -0.26151771719E+01  0.67891388806E+00  0.23778272336E+00  0.27123083513E+01  0.51100000000E-03 0.  1.
         12    1    3    3    0    0 -0.66729597551E+01  0.49386858812E+01  0.95302533788E+01  0.12639016560E+02  0.00000000000E+00 0. -1.
</event>
<event>
 7    1  0.4005571E-009  0.4778728E+02  0.7816164E-02  0.1312668E+00
        -11   -1    0    0    0    0  0.00000000000E+00  0.00000000000E+00  0.45593999997E+02  0.45594000000E+02  0.51100000000E-03 0.  1.
         11   -1    0    0    0    0 -0.00000000000E+00 -0.00000000000E+00 -0.45593999997E+02  0.45594000000E+02  0.51100000000E-03 0. -1.
    9900012    2    1    2    0    0  0.40897532761E+01 -0.30624534651E+02  0.30480059942E+02  0.47787282742E+02  0.20000053334E+02 0.  0.
         12    1    1    2    0    0 -0.40897532761E+01  0.30624534651E+02 -0.30480059942E+02  0.43400717258E+02  0.00000000000E+00 0. -1.
         11    1    3    3    0    0 -0.88639682751E+00 -0.74112433215E+01  0.12342231994E+02  0.14423692931E+02  0.51100000000E-03 0. -1.
        -11    1    3    3    0    0  0.51083296141E-01 -0.13667758750E+02  0.17642301183E+01  0.13781246204E+02  0.51100000000E-03 0.  1.
        -12    1    3    3    0    0  0.49250668075E+01 -0.95455325795E+01  0.16373597830E+02  0.19582343608E+02  0.00000000000E+00 0.  1.
</event>
<event>
 7    1  0.4005571E-009  0.4778727E+02  0.7816164E-02  0.1312668E+00
        -11   -1    0    0    0    0  0.00000000000E+00  0.00000000000E+00  0.45593999997E+02  0.45594000000E+02  0.51100000000E-03 0.  1.
         11   -1    0    0    0    0 -0.00000000000E+00 -0.00000000000E+00 -0.45593999997E+02  0.45594000000E+02  0.51100000000E-03 0. -1.
    9900012    2    1    2    0    0 -0.19739321913E+02 -0.32296865222E+02  0.21234292696E+02  0.47787268219E+02  0.19999987120E+02 0.  0.
         12    1    1    2    0    0  0.19739321913E+02  0.32296865222E+02 -0.21234292696E+02  0.43400731781E+02  0.00000000000E+00 0. -1.
         11    1    3    3    0    0 -0.12059412001E+02 -0.17216324850E+02  0.90438628560E+01  0.22882803910E+02  0.51100000000E-03 0. -1.
        -11    1    3    3    0    0 -0.47044382419E+01 -0.15848124604E+02  0.13709490424E+02  0.21476613340E+02  0.51100000000E-03 0.  1.
         12    1    3    3    0    0 -0.29754716700E+01  0.76758423128E+00 -0.15190605837E+01  0.34278509693E+01  0.00000000000E+00 0. -1.
</event>
<event>
 7    1  0.4005571E-009  0.4778727E+02  0.7816164E-02  0.1312668E+00
        -11   -1    0    0    0    0  0.00000000000E+00  0.00000000000E+00  0.45593999997E+02  0.45594000000E+02  0.51100000000E-03 0. -1.
         11   -1    0    0    0    0 -0.00000000000E+00 -0.00000000000E+00 -0.45593999997E+02  0.45594000000E+02  0.51100000000E-03 0.  1.
    9900012    2    1    2    0    0  0.82191381540E+01 -0.26065050938E+02 -0.33714713779E+02  0.47787273766E+02  0.20000012411E+02 0.  0.
         12    1    1    2    0    0 -0.82191381540E+01  0.26065050938E+02  0.33714713779E+02  0.43400726234E+02  0.00000000000E+00 0. -1.
         11    1    3    3    0    0  0.70917150882E+01 -0.18955457495E+02 -0.17076565325E+02  0.26480386615E+02  0.51100000000E-03 0. -1.
        -11    1    3    3    0    0  0.30731243129E+01 -0.74521482528E+01 -0.17410197821E+02  0.19185765428E+02  0.51100000000E-03 0.  1.
         12    1    3    3    0    0 -0.19457012471E+01  0.34255480936E+00  0.77204936710E+00  0.21211217235E+01  0.00000000000E+00 0. -1.
</event>
<event>
 7    1  0.4005571E-009  0.4778727E+02  0.7816164E-02  0.1312668E+00
        -11   -1    0    0    0    0  0.00000000000E+00  0.00000000000E+00  0.45593999997E+02  0.45594000000E+02  0.51100000000E-03 0.  1.
         11   -1    0    0    0    0 -0.00000000000E+00 -0.00000000000E+00 -0.45593999997E+02  0.45594000000E+02  0.51100000000E-03 0. -1.
    9900012    2    1    2    0    0 -0.20948170325E+02  0.33143086202E+02  0.18610028423E+02  0.47787272347E+02  0.20000005938E+02 0.  0.
         12    1    1    2    0    0  0.20948170325E+02 -0.33143086202E+02 -0.18610028423E+02  0.43400727653E+02  0.00000000000E+00 0. -1.
         11    1    3    3    0    0 -0.11211385404E+02  0.59639285549E+01  0.16143504057E+01  0.12801161431E+02  0.51100000000E-03 0. -1.
        -11    1    3    3    0    0 -0.79381657435E+01  0.78752814364E+01  0.66756910074E+01  0.13023032817E+02  0.51100000000E-03 0.  1.
        -12    1    3    3    0    0 -0.17986191774E+01  0.19303876210E+02  0.10319987010E+02  0.21963078099E+02  0.00000000000E+00 0.  1.
</event>
<event>
 7    1  0.4005571E-009  0.4778727E+02  0.7816164E-02  0.1312668E+00
        -11   -1    0    0    0    0  0.00000000000E+00  0.00000000000E+00  0.45593999997E+02  0.45594000000E+02  0.51100000000E-03 0.  1.
         11   -1    0    0    0    0 -0.00000000000E+00 -0.00000000000E+00 -0.45593999997E+02  0.45594000000E+02  0.51100000000E-03 0. -1.
    9900012    2    1    2    0    0  0.31679036046E+02 -0.65294796627E+00  0.29658650139E+02  0.47787271965E+02  0.20000004198E+02 0.  0.
         12    1    1    2    0    0 -0.31679036046E+02  0.65294796627E+00 -0.29658650139E+02  0.43400728035E+02  0.00000000000E+00 0. -1.
         11    1    3    3    0    0  0.81219087638E+01 -0.55324859707E+01  0.36941936217E+01  0.10498612754E+02  0.51100000000E-03 0. -1.
        -11    1    3    3    0    0  0.20267993388E+02  0.29141888680E+00  0.15951455454E+02  0.25793902619E+02  0.51100000000E-03 0.  1.
         12    1    3    3    0    0  0.32891338942E+01  0.45881191176E+01  0.10013001064E+02  0.11494756592E+02  0.00000000000E+00 0. -1.
</event>
<event>
 7    1  0.4005571E-009  0.4778727E+02  0.7816164E-02  0.1312668E+00
        -11   -1    0    0    0    0  0.00000000000E+00  0.00000000000E+00  0.45593999997E+02  0.45594000000E+02  0.51100000000E-03 0. -1.
         11   -1    0    0    0    0 -0.00000000000E+00 -0.00000000000E+00 -0.45593999997E+02  0.45594000000E+02  0.51100000000E-03 0.  1.
    9900012    2    1    2    0    0  0.26869460588E+02 -0.31596308592E+02  0.12780018540E+02  0.47787268407E+02  0.19999987974E+02 0.  0.
         12    1    1    2    0    0 -0.26869460588E+02  0.31596308592E+02 -0.12780018540E+02  0.43400731593E+02  0.00000000000E+00 0. -1.
         11    1    3    3    0    0 -0.90496324093E+00 -0.66085894913E+00  0.25174458031E+00  0.11485071236E+01  0.51100000000E-03 0. -1.
        -11    1    3    3    0    0  0.19741622284E+02 -0.30466511652E+02  0.72634577945E+01  0.37022936162E+02  0.51100000000E-03 0.  1.
        -12    1    3    3    0    0  0.80328015455E+01 -0.46893799051E+00  0.52648161656E+01  0.96158251215E+01  0.00000000000E+00 0.  1.
</event>
<event>
 7    1  0.4005571E-009  0.4778726E+02  0.7816164E-02  0.1312668E+00
        -11   -1    0    0    0    0  0.00000000000E+00  0.00000000000E+00  0.45593999997E+02  0.45594000000E+02  0.51100000000E-03 0. -1.
         11   -1    0    0    0    0 -0.00000000000E+00 -0.00000000000E+00 -0.45593999997E+02  0.45594000000E+02  0.51100000000E-03 0.  1.
    9900012    2    1    2    0    0 -0.62396305090E+01  0.15973484805E+02 -0.39869019725E+02  0.47787263375E+02  0.19999965033E+02 0.  0.
         12    1    1    2    0    0  0.62396305090E+01 -0.15973484805E+02  0.39869019725E+02  0.43400736625E+02  0.00000000000E+00 0. -1.
         11    1    3    3    0    0 -0.43887483837E+01  0.78043768463E+01 -0.17948745688E+02  0.20058087705E+02  0.51100000000E-03 0. -1.
        -11    1    3    3    0    0 -0.77826702619E+01  0.53297656979E+01 -0.17258839746E+02  0.19668347883E+02  0.51100000000E-03 0.  1.
         12    1    3    3    0    0  0.59317881366E+01  0.28393422610E+01 -0.46614342909E+01  0.80608277875E+01  0.00000000000E+00 0. -1.
</event>
<event>
 7    1  0.4005571E-009  0.4778727E+02  0.7816164E-02  0.1312668E+00
        -11   -1    0    0    0    0  0.00000000000E+00  0.00000000000E+00  0.45593999997E+02  0.45594000000E+02  0.51100000000E-03 0.  1.
         11   -1    0    0    0    0 -0.00000000000E+00 -0.00000000000E+00 -0.45593999997E+02  0.45594000000E+02  0.51100000000E-03 0. -1.
    9900012    2    1    2    0    0 -0.27581955652E+02 -0.10294043557E+02  0.31888738465E+02  0.47787271306E+02  0.20000001191E+02 0.  0.
         12    1    1    2    0    0  0.27581955652E+02  0.10294043557E+02 -0.31888738465E+02  0.43400728694E+02  0.00000000000E+00 0. -1.
         11    1    3    3    0    0 -0.44264502962E+01  0.59357936866E+00  0.13692280044E+02  0.14402233568E+02  0.51100000000E-03 0. -1.
        -11    1    3    3    0    0 -0.13834333182E+02 -0.86052865199E+00  0.12096613025E+02  0.18397209872E+02  0.51100000000E-03 0.  1.
        -12    1    3    3    0    0 -0.93211721736E+01 -0.10027094273E+02  0.60998453964E+01  0.14987827865E+02  0.00000000000E+00 0.  1.
</event>
<event>
 7    1  0.4005571E-009  0.4778727E+02  0.7816164E-02  0.1312668E+00
        -11   -1    0    0    0    0  0.00000000000E+00  0.00000000000E+00  0.45593999997E+02  0.45594000000E+02  0.51100000000E-03 0. -1.
         11   -1    0    0    0    0 -0.00000000000E+00 -0.00000000000E+00 -0.45593999997E+02  0.45594000000E+02  0.51100000000E-03 0.  1.
    9900012    2    1    2    0    0 -0.22297016646E+02  0.36893044218E+02  0.50368472373E+01  0.47787268519E+02  0.19999988485E+02 0.  0.
         12    1    1    2    0    0  0.22297016646E+02 -0.36893044218E+02 -0.50368472373E+01  0.43400731481E+02  0.00000000000E+00 0. -1.
         11    1    3    3    0    0 -0.22250867529E+02  0.29113293332E+02  0.48703537091E+01  0.36964919856E+02  0.51100000000E-03 0. -1.
        -11    1    3    3    0    0 -0.17790679007E+01  0.17138165667E+01  0.30172833762E+01  0.38995190797E+01  0.51100000000E-03 0.  1.
        -12    1    3    3    0    0  0.17329187839E+01  0.60659343194E+01 -0.28507898479E+01  0.69228295830E+01  0.00000000000E+00 0.  1.
</event>
<event>
 7    1  0.4005571E-009  0.4778728E+02  0.7816164E-02  0.1312668E+00
        -11   -1    0    0    0    0  0.00000000000E+00  0.00000000000E+00  0.45593999997E+02  0.45594000000E+02  0.51100000000E-03 0. -1.
         11   -1    0    0    0    0 -0.00000000000E+00 -0.00000000000E+00 -0.45593999997E+02  0.45594000000E+02  0.51100000000E-03 0.  1.
    9900012    2    1    2    0    0 -0.31822583581E+02  0.15579038009E+02 -0.25064700508E+02  0.47787280390E+02  0.20000042612E+02 0.  0.
         12    1    1    2    0    0  0.31822583581E+02 -0.15579038009E+02  0.25064700508E+02  0.43400719610E+02  0.00000000000E+00 0. -1.
         11    1    3    3    0    0 -0.15690133444E+02  0.71181277004E+01 -0.12352819103E+02  0.21200003998E+02  0.51100000000E-03 0.  1.
        -11    1    3    3    0    0 -0.16996213336E+02  0.71295964263E+01 -0.15026953842E+02  0.23780491059E+02  0.51100000000E-03 0. -1.
         12    1    3    3    0    0  0.86376319908E+00  0.13313138828E+01  0.23150724373E+01  0.28067853336E+01  0.00000000000E+00 0. -1.
</event>
<event>
 7    1  0.4005571E-009  0.4778727E+02  0.7816164E-02  0.1312668E+00
        -11   -1    0    0    0    0  0.00000000000E+00  0.00000000000E+00  0.45593999997E+02  0.45594000000E+02  0.51100000000E-03 0. -1.
         11   -1    0    0    0    0 -0.00000000000E+00 -0.00000000000E+00 -0.45593999997E+02  0.45594000000E+02  0.51100000000E-03 0.  1.
    9900012    2    1    2    0    0  0.31645308641E+02 -0.13236655674E+02 -0.26589257753E+02  0.47787271431E+02  0.20000001765E+02 0.  0.
         12    1    1    2    0    0 -0.31645308641E+02  0.13236655674E+02  0.26589257753E+02  0.43400728569E+02  0.00000000000E+00 0. -1.
         11    1    3    3    0    0  0.15832841266E+01 -0.24223996117E+01 -0.41522887026E+01  0.50612557963E+01  0.51100000000E-03 0. -1.
        -11    1    3    3    0    0  0.25425022566E+02 -0.15053422623E+02 -0.21086447957E+02  0.36299801554E+02  0.51100000000E-03 0.  1.
         12    1    3    3    0    0  0.46370019484E+01  0.42391665605E+01 -0.13505210939E+01  0.64262140816E+01  0.00000000000E+00 0. -1.
</event>
<event>
 7    1  0.4005571E-009  0.4778727E+02  0.7816164E-02  0.1312668E+00
        -11   -1    0    0    0    0  0.00000000000E+00  0.00000000000E+00  0.45593999997E+02  0.45594000000E+02  0.51100000000E-03 0.  1.
         11   -1    0    0    0    0 -0.00000000000E+00 -0.00000000000E+00 -0.45593999997E+02  0.45594000000E+02  0.51100000000E-03 0. -1.
    9900012    2    1    2    0    0  0.66822038755E+01  0.21889193572E+02  0.36875935646E+02  0.47787271047E+02  0.20000000012E+02 0.  0.
         12    1    1    2    0    0 -0.66822038755E+01 -0.21889193572E+02 -0.36875935646E+02  0.43400728953E+02  0.00000000000E+00 0. -1.
         11    1    3    3    0    0  0.78033663104E+01  0.60338383701E+01  0.16923897537E+02  0.19588722250E+02  0.51100000000E-03 0. -1.
        -11    1    3    3    0    0 -0.19574502242E+01 -0.66167707571E+00  0.66834036113E+01  0.69955208545E+01  0.51100000000E-03 0.  1.
         12    1    3    3    0    0  0.83628778927E+00  0.16517032277E+02  0.13268634498E+02  0.21203027943E+02  0.00000000000E+00 0. -1.
</event>
<event>
 7    1  0.4005571E-009  0.4778727E+02  0.7816164E-02  0.1312668E+00
        -11   -1    0    0    0    0  0.00000000000E+00  0.00000000000E+00  0.45593999997E+02  0.45594000000E+02  0.51100000000E-03 0.  1.
         11   -1    0    0    0    0 -0.00000000000E+00 -0.00000000000E+00 -0.45593999997E+02  0.45594000000E+02  0.51100000000E-03 0. -1.
    9900012    2    1    2    0    0  0.28789110398E+02  0.19626077481E+02  0.25877170605E+02  0.47787265521E+02  0.19999974816E+02 0.  0.
         12    1    1    2    0    0 -0.28789110398E+02 -0.19626077481E+02 -0.25877170605E+02  0.43400734479E+02  0.00000000000E+00 0. -1.
         11    1    3    3    0    0  0.28827666056E+01  0.91808798459E+01  0.60318813256E+01  0.11357045859E+02  0.51100000000E-03 0. -1.
        -11    1    3    3    0    0  0.97375183090E+01  0.38172710872E+01  0.15018052440E+02  0.18301167195E+02  0.51100000000E-03 0.  1.
         12    1    3    3    0    0  0.16168825483E+02  0.66279265481E+01  0.48272368401E+01  0.18129052467E+02  0.00000000000E+00 0. -1.
</event>
<event>
 7    1  0.4005571E-009  0.4778727E+02  0.7816164E-02  0.1312668E+00
        -11   -1    0    0    0    0  0.00000000000E+00  0.00000000000E+00  0.45593999997E+02  0.45594000000E+02  0.51100000000E-03 0.  1.
         11   -1    0    0    0    0 -0.00000000000E+00 -0.00000000000E+00 -0.45593999997E+02  0.45594000000E+02  0.51100000000E-03 0. -1.
    9900012    2    1    2    0    0  0.27838182497E+02 -0.14730395640E+02  0.29860919259E+02  0.47787268907E+02  0.19999990255E+02 0.  0.
         12    1    1    2    0    0 -0.27838182497E+02  0.14730395640E+02 -0.29860919259E+02  0.43400731093E+02  0.00000000000E+00 0. -1.
         11    1    3    3    0    0  0.14919750157E+01 -0.59104783851E-01  0.44724940583E+01  0.47151549482E+01  0.51100000000E-03 0. -1.
        -11    1    3    3    0    0  0.26476199460E+02 -0.11369605784E+02  0.15653278011E+02  0.32791495639E+02  0.51100000000E-03 0.  1.
         12    1    3    3    0    0 -0.12999197868E+00 -0.33016850719E+01  0.97351471896E+01  0.10280618320E+02  0.00000000000E+00 0. -1.
</event>
<event>
 7    1  0.4005571E-009  0.4778727E+02  0.7816164E-02  0.1312668E+00
        -11   -1    0    0    0    0  0.00000000000E+00  0.00000000000E+00  0.45593999997E+02  0.45594000000E+02  0.51100000000E-03 0.  1.
         11   -1    0    0    0    0 -0.00000000000E+00 -0.00000000000E+00 -0.45593999997E+02  0.45594000000E+02  0.51100000000E-03 0. -1.
    9900012    2    1    2    0    0 -0.36719232218E+02 -0.26386042210E+01  0.22986057275E+02  0.47787273325E+02  0.20000010396E+02 0.  0.
         12    1    1    2    0    0  0.36719232218E+02  0.26386042210E+01 -0.22986057275E+02  0.43400726675E+02  0.00000000000E+00 0. -1.
         11    1    3    3    0    0 -0.62334205193E+01 -0.23837116791E+01  0.13999834795E+02  0.15509125936E+02  0.51100000000E-03 0. -1.
        -11    1    3    3    0    0 -0.29718148840E+01  0.16911488039E+01  0.98756641139E+00  0.35590666838E+01  0.51100000000E-03 0.  1.
        -12    1    3    3    0    0 -0.27513996815E+02 -0.19460413458E+01  0.79986560685E+01  0.28719080705E+02  0.00000000000E+00 0.  1.
</event>
<event>
 7    1  0.4005571E-009  0.4778727E+02  0.7816164E-02  0.1312668E+00
        -11   -1    0    0    0    0  0.00000000000E+00  0.00000000000E+00  0.45593999997E+02  0.45594000000E+02  0.51100000000E-03 0.  1.
         11   -1    0    0    0    0 -0.00000000000E+00 -0.00000000000E+00 -0.45593999997E+02  0.45594000000E+02  0.51100000000E-03 0. -1.
    9900012    2    1    2    0    0 -0.32013698955E+02 -0.15393137383E+02  0.24935871319E+02  0.47787271000E+02  0.19999999798E+02 0.  0.
         12    1    1    2    0    0  0.32013698955E+02  0.15393137383E+02 -0.24935871319E+02  0.43400729000E+02  0.00000000000E+00 0. -1.
         11    1    3    3    0    0 -0.11747055575E+02 -0.16011082371E+01  0.23373959218E+01  0.12083885229E+02  0.51100000000E-03 0. -1.
        -11    1    3    3    0    0 -0.20429924011E+02 -0.12203857688E+02  0.15436222619E+02  0.28365346932E+02  0.51100000000E-03 0.  1.
        -12    1    3    3    0    0  0.16328063101E+00 -0.15881714585E+01  0.71622527785E+01  0.73380388395E+01  0.00000000000E+00 0.  1.
</event>
<event>
 7    1  0.4005571E-009  0.4778727E+02  0.7816164E-02  0.1312668E+00
        -11   -1    0    0    0    0  0.00000000000E+00  0.00000000000E+00  0.45593999997E+02  0.45594000000E+02  0.51100000000E-03 0.  1.
         11   -1    0    0    0    0 -0.00000000000E+00 -0.00000000000E+00 -0.45593999997E+02  0.45594000000E+02  0.51100000000E-03 0. -1.
    9900012    2    1    2    0    0 -0.20405913625E+02 -0.25148816827E+02  0.28892201979E+02  0.47787266897E+02  0.19999981091E+02 0.  0.
         12    1    1    2    0    0  0.20405913625E+02  0.25148816827E+02 -0.28892201979E+02  0.43400733103E+02  0.00000000000E+00 0. -1.
         11    1    3    3    0    0 -0.67301533005E+01 -0.97531213643E+01  0.15538880442E+02  0.19541625967E+02  0.51100000000E-03 0.  1.
        -11    1    3    3    0    0 -0.22956290728E+01  0.22107420433E+01  0.44398338298E+01  0.54652921166E+01  0.51100000000E-03 0. -1.
        -12    1    3    3    0    0 -0.11380131252E+02 -0.17606437506E+02  0.89134877069E+01  0.22780348813E+02  0.00000000000E+00 0.  1.
</event>
<event>
 7    1  0.4005571E-009  0.4778727E+02  0.7816164E-02  0.1312668E+00
        -11   -1    0    0    0    0  0.00000000000E+00  0.00000000000E+00  0.45593999997E+02  0.45594000000E+02  0.51100000000E-03 0.  1.
         11   -1    0    0    0    0 -0.00000000000E+00 -0.00000000000E+00 -0.45593999997E+02  0.45594000000E+02  0.51100000000E-03 0. -1.
    9900012    2    1    2    0    0 -0.27649192379E+02  0.20929060569E+02  0.26098273376E+02  0.47787270873E+02  0.19999999220E+02 0.  0.
         12    1    1    2    0    0  0.27649192379E+02 -0.20929060569E+02 -0.26098273376E+02  0.43400729127E+02  0.00000000000E+00 0. -1.
         11    1    3    3    0    0 -0.65540258286E+01  0.22497233909E+01  0.77548665656E+01  0.10399733920E+02  0.51100000000E-03 0. -1.
        -11    1    3    3    0    0 -0.21485683000E+02  0.12023513678E+02  0.96801217933E+01  0.26455702851E+02  0.51100000000E-03 0.  1.
         12    1    3    3    0    0  0.39051644921E+00  0.66558235007E+01  0.86632850168E+01  0.10931834103E+02  0.00000000000E+00 0. -1.
</event>
<event>
 7    1  0.4005571E-009  0.4778727E+02  0.7816164E-02  0.1312668E+00
        -11   -1    0    0    0    0  0.00000000000E+00  0.00000000000E+00  0.45593999997E+02  0.45594000000E+02  0.51100000000E-03 0.  1.
         11   -1    0    0    0    0 -0.00000000000E+00 -0.00000000000E+00 -0.45593999997E+02  0.45594000000E+02  0.51100000000E-03 0. -1.
    9900012    2    1    2    0    0  0.35103681604E+02  0.24185732009E+02  0.81489679073E+01  0.47787265296E+02  0.19999973789E+02 0.  0.
         12    1    1    2    0    0 -0.35103681604E+02 -0.24185732009E+02 -0.81489679073E+01  0.43400734704E+02  0.00000000000E+00 0. -1.
         11    1    3    3    0    0  0.29582651289E+00  0.17388221701E+01 -0.11514436955E+01  0.21063804761E+01  0.51100000000E-03 0. -1.
        -11    1    3    3    0    0 -0.29942159313E+00  0.34373244757E+01  0.41959631076E+01  0.54323990560E+01  0.51100000000E-03 0.  1.
         12    1    3    3    0    0  0.35107276684E+02  0.19009585363E+02  0.51044484952E+01  0.40248485764E+02  0.00000000000E+00 0. -1.
</event>
<event>
 7    1  0.4005571E-009  0.4778728E+02  0.7816164E-02  0.1312668E+00
        -11   -1    0    0    0    0  0.00000000000E+00  0.00000000000E+00  0.45593999997E+02  0.45594000000E+02  0.51100000000E-03 0. -1.
         11   -1    0    0    0    0 -0.00000000000E+00 -0.00000000000E+00 -0.45593999997E+02  0.45594000000E+02  0.51100000000E-03 0.  1.
    9900012    2    1    2    0    0 -0.21146783134E+01 -0.19122933884E+02 -0.38903261096E+02  0.47787283548E+02  0.20000057007E+02 0.  0.
         12    1    1    2    0    0  0.21146783134E+01  0.19122933884E+02  0.38903261096E+02  0.43400716452E+02  0.00000000000E+00 0. -1.
         11    1    3    3    0    0 -0.34537768574E+01 -0.15357805514E+02 -0.30970599294E+02  0.34741456298E+02  0.51100000000E-03 0.  1.
        -11    1    3    3    0    0 -0.16042958786E+01 -0.50102463085E+01 -0.92192099596E+00  0.53409991501E+01  0.51100000000E-03 0. -1.
         12    1    3    3    0    0  0.29433944226E+01  0.12451179381E+01 -0.70107408052E+01  0.77048280996E+01  0.00000000000E+00 0. -1.
</event>
<event>
 7    1  0.4005571E-009  0.4778727E+02  0.7816164E-02  0.1312668E+00
        -11   -1    0    0    0    0  0.00000000000E+00  0.00000000000E+00  0.45593999997E+02  0.45594000000E+02  0.51100000000E-03 0.  1.
         11   -1    0    0    0    0 -0.00000000000E+00 -0.00000000000E+00 -0.45593999997E+02  0.45594000000E+02  0.51100000000E-03 0. -1.
    9900012    2    1    2    0    0 -0.90239406702E+01 -0.22579238124E+02  0.35949541026E+02  0.47787274206E+02  0.20000014416E+02 0.  0.
         12    1    1    2    0    0  0.90239406702E+01  0.22579238124E+02 -0.35949541026E+02  0.43400725794E+02  0.00000000000E+00 0. -1.
         11    1    3    3    0    0 -0.83317353344E+01 -0.36309509568E+01  0.58453837920E+01  0.10806022879E+02  0.51100000000E-03 0. -1.
        -11    1    3    3    0    0 -0.51996792902E+01 -0.12419713771E+02  0.20467534729E+02  0.24499100658E+02  0.51100000000E-03 0.  1.
        -12    1    3    3    0    0  0.45074739545E+01 -0.65285733959E+01  0.96366225044E+01  0.12482150669E+02  0.00000000000E+00 0.  1.
</event>
<event>
 7    1  0.4005571E-009  0.4778728E+02  0.7816164E-02  0.1312668E+00
        -11   -1    0    0    0    0  0.00000000000E+00  0.00000000000E+00  0.45593999997E+02  0.45594000000E+02  0.51100000000E-03 0.  1.
         11   -1    0    0    0    0 -0.00000000000E+00 -0.00000000000E+00 -0.45593999997E+02  0.45594000000E+02  0.51100000000E-03 0. -1.
    9900012    2    1    2    0    0  0.34338241327E+01  0.51417505325E+01  0.42958042137E+02  0.47787284211E+02  0.20000060032E+02 0.  0.
         12    1    1    2    0    0 -0.34338241327E+01 -0.51417505325E+01 -0.42958042137E+02  0.43400715789E+02  0.00000000000E+00 0. -1.
         11    1    3    3    0    0 -0.48427672560E+01  0.51267048987E+01  0.11366823965E+02  0.13376852586E+02  0.51100000000E-03 0. -1.
        -11    1    3    3    0    0  0.61158915536E+00 -0.43393489948E+01  0.67152670028E+01  0.80186533890E+01  0.51100000000E-03 0.  1.
        -12    1    3    3    0    0  0.76650022334E+01  0.43543946287E+01  0.24875951170E+02  0.26391778236E+02  0.00000000000E+00 0.  1.
</event>
<event>
 7    1  0.4005571E-009  0.4778727E+02  0.7816164E-02  0.1312668E+00
        -11   -1    0    0    0    0  0.00000000000E+00  0.00000000000E+00  0.45593999997E+02  0.45594000000E+02  0.51100000000E-03 0.  1.
         11   -1    0    0    0    0 -0.00000000000E+00 -0.00000000000E+00 -0.45593999997E+02  0.45594000000E+02  0.51100000000E-03 0. -1.
    9900012    2    1    2    0    0  0.56016404577E+01 -0.52261619736E+01  0.42719221105E+02  0.47787274239E+02  0.20000014566E+02 0.  0.
         12    1    1    2    0    0 -0.56016404577E+01  0.52261619736E+01 -0.42719221105E+02  0.43400725761E+02  0.00000000000E+00 0. -1.
         11    1    3    3    0    0  0.23019244729E+01 -0.69278648826E+01  0.11625020695E+02  0.13727172853E+02  0.51100000000E-03 0. -1.
        -11    1    3    3    0    0  0.75207435424E+01 -0.10325682987E+01  0.25165776789E+02  0.26285815612E+02  0.51100000000E-03 0.  1.
         12    1    3    3    0    0 -0.42210275576E+01  0.27342712078E+01  0.59284236202E+01  0.77742857743E+01  0.00000000000E+00 0. -1.
</event>
<event>
 7    1  0.4005571E-009  0.4778727E+02  0.7816164E-02  0.1312668E+00
        -11   -1    0    0    0    0  0.00000000000E+00  0.00000000000E+00  0.45593999997E+02  0.45594000000E+02  0.51100000000E-03 0. -1.
         11   -1    0    0    0    0 -0.00000000000E+00 -0.00000000000E+00 -0.45593999997E+02  0.45594000000E+02  0.51100000000E-03 0.  1.
    9900012    2    1    2    0    0  0.31368321791E+02  0.13636024364E+02 -0.26715357055E+02  0.47787273336E+02  0.20000010446E+02 0.  0.
         12    1    1    2    0    0 -0.31368321791E+02 -0.13636024364E+02  0.26715357055E+02  0.43400726664E+02  0.00000000000E+00 0. -1.
         11    1    3    3    0    0  0.40100113407E+01  0.72874141545E+01 -0.11968471248E+02  0.14575009444E+02  0.51100000000E-03 0. -1.
        -11    1    3    3    0    0 -0.83385147492E+00 -0.67110430029E-01 -0.55622734420E+00  0.10045900714E+01  0.51100000000E-03 0.  1.
        -12    1    3    3    0    0  0.28192161925E+02  0.64157206397E+01 -0.14190658463E+02  0.32207673821E+02  0.00000000000E+00 0.  1.
</event>
<event>
 7    1  0.4005571E-009  0.4778727E+02  0.7816164E-02  0.1312668E+00
        -11   -1    0    0    0    0  0.00000000000E+00  0.00000000000E+00  0.45593999997E+02  0.45594000000E+02  0.51100000000E-03 0.  1.
         11   -1    0    0    0    0 -0.00000000000E+00 -0.00000000000E+00 -0.45593999997E+02  0.45594000000E+02  0.51100000000E-03 0. -1.
    9900012    2    1    2    0    0 -0.36607553910E+02  0.15363666197E+02  0.17534768381E+02  0.47787270231E+02  0.19999996291E+02 0.  0.
         12    1    1    2    0    0  0.36607553910E+02 -0.15363666197E+02 -0.17534768381E+02  0.43400729769E+02  0.00000000000E+00 0. -1.
         11    1    3    3    0    0  0.37716576691E+00 -0.34106585667E+00 -0.73166801636E+00  0.89102092096E+00  0.51100000000E-03 0. -1.
        -11    1    3    3    0    0 -0.44965380060E+01 -0.23278422576E+01  0.58099806465E+01  0.77067229734E+01  0.51100000000E-03 0.  1.
         12    1    3    3    0    0 -0.32488181671E+02  0.18032574312E+02  0.12456455751E+02  0.39189526336E+02  0.00000000000E+00 0. -1.
</event>
<event>
 7    1  0.4005571E-009  0.4778727E+02  0.7816164E-02  0.1312668E+00
        -11   -1    0    0    0    0  0.00000000000E+00  0.00000000000E+00  0.45593999997E+02  0.45594000000E+02  0.51100000000E-03 0.  1.
         11   -1    0    0    0    0 -0.00000000000E+00 -0.00000000000E+00 -0.45593999997E+02  0.45594000000E+02  0.51100000000E-03 0. -1.
    9900012    2    1    2    0    0  0.11278120027E+02  0.34260708911E+02  0.24137755781E+02  0.47787269354E+02  0.19999992295E+02 0.  0.
         12    1    1    2    0    0 -0.11278120027E+02 -0.34260708911E+02 -0.24137755781E+02  0.43400730646E+02  0.00000000000E+00 0. -1.
         11    1    3    3    0    0  0.25476457762E+01  0.46669699265E+00  0.13433319098E+01  0.29176781805E+01  0.51100000000E-03 0. -1.
        -11    1    3    3    0    0  0.22561239542E+00  0.14553671970E+01 -0.25275403237E+01  0.29253128004E+01  0.51100000000E-03 0.  1.
        -12    1    3    3    0    0  0.85048618554E+01  0.32338644721E+02  0.25321964195E+02  0.41944278374E+02  0.00000000000E+00 0.  1.
</event>
<event>
 7    1  0.4005571E-009  0.4778727E+02  0.7816164E-02  0.1312668E+00
        -11   -1    0    0    0    0  0.00000000000E+00  0.00000000000E+00  0.45593999997E+02  0.45594000000E+02  0.51100000000E-03 0.  1.
         11   -1    0    0    0    0 -0.00000000000E+00 -0.00000000000E+00 -0.45593999997E+02  0.45594000000E+02  0.51100000000E-03 0. -1.
    9900012    2    1    2    0    0 -0.56528350313E+00 -0.42878816899E+02  0.66866303297E+01  0.47787268333E+02  0.19999987636E+02 0.  0.
         12    1    1    2    0    0  0.56528350313E+00  0.42878816899E+02 -0.66866303297E+01  0.43400731667E+02  0.00000000000E+00 0. -1.
         11    1    3    3    0    0  0.33475378198E+00 -0.28556794848E+01  0.11090298929E+01  0.30817061798E+01  0.51100000000E-03 0. -1.
        -11    1    3    3    0    0 -0.80980783677E+01 -0.10668225357E+02 -0.20088315585E+01  0.13543460046E+02  0.51100000000E-03 0.  1.
        -12    1    3    3    0    0  0.71980410826E+01 -0.29354912057E+02  0.75864319954E+01  0.31162102107E+02  0.00000000000E+00 0.  1.
</event>
<event>
 7    1  0.4005571E-009  0.4778727E+02  0.7816164E-02  0.1312668E+00
        -11   -1    0    0    0    0  0.00000000000E+00  0.00000000000E+00  0.45593999997E+02  0.45594000000E+02  0.51100000000E-03 0.  1.
         11   -1    0    0    0    0 -0.00000000000E+00 -0.00000000000E+00 -0.45593999997E+02  0.45594000000E+02  0.51100000000E-03 0. -1.
    9900012    2    1    2    0    0  0.35113832187E+02  0.25264218272E+02  0.35158748207E+01  0.47787270611E+02  0.19999998024E+02 0.  0.
         12    1    1    2    0    0 -0.35113832187E+02 -0.25264218272E+02 -0.35158748207E+01  0.43400729389E+02  0.00000000000E+00 0. -1.
         11    1    3    3    0    0  0.65039510824E+00 -0.75904744010E+00 -0.10149323883E+01  0.14245191564E+01  0.51100000000E-03 0. -1.
        -11    1    3    3    0    0  0.87327114763E+01 -0.10308691332E+01  0.12660902732E+01  0.88840264373E+01  0.51100000000E-03 0.  1.
        -12    1    3    3    0    0  0.25730725602E+02  0.27054134845E+02  0.32647169358E+01  0.37478725017E+02  0.00000000000E+00 0.  1.
</event>
<event>
 7    1  0.4005571E-009  0.4778727E+02  0.7816164E-02  0.1312668E+00
        -11   -1    0    0    0    0  0.00000000000E+00  0.00000000000E+00  0.45593999997E+02  0.45594000000E+02  0.51100000000E-03 0.  1.
         11   -1    0    0    0    0 -0.00000000000E+00 -0.00000000000E+00 -0.45593999997E+02  0.45594000000E+02  0.51100000000E-03 0. -1.
    9900012    2    1    2    0    0  0.26405433395E+02 -0.84835215359E+00  0.34433364872E+02  0.47787271543E+02  0.20000002273E+02 0.  0.
         12    1    1    2    0    0 -0.26405433395E+02  0.84835215359E+00 -0.34433364872E+02  0.43400728457E+02  0.00000000000E+00 0. -1.
         11    1    3    3    0    0  0.13020474946E+01  0.23642109592E+01 -0.15063023201E+01  0.30909170287E+01  0.51100000000E-03 0. -1.
        -11    1    3    3    0    0  0.95942681159E+01 -0.24542576530E+01  0.79959476705E+01  0.12728257568E+02  0.51100000000E-03 0.  1.
        -12    1    3    3    0    0  0.15509117785E+02 -0.75830545981E+00  0.27943719522E+02  0.31968096946E+02  0.00000000000E+00 0.  1.
</event>
<event>
 7    1  0.4005571E-009  0.4778727E+02  0.7816164E-02  0.1312668E+00
        -11   -1    0    0    0    0  0.00000000000E+00  0.00000000000E+00  0.45593999997E+02  0.45594000000E+02  0.51100000000E-03 0.  1.
         11   -1    0    0    0    0 -0.00000000000E+00 -0.00000000000E+00 -0.45593999997E+02  0.45594000000E+02  0.51100000000E-03 0. -1.
    9900012    2    1    2    0    0  0.27810272788E+02  0.13945735678E+02  0.30261007285E+02  0.47787269844E+02  0.19999994529E+02 0.  0.
         12    1    1    2    0    0 -0.27810272788E+02 -0.13945735678E+02 -0.30261007285E+02  0.43400730156E+02  0.00000000000E+00 0. -1.
         11    1    3    3    0    0  0.53508021990E+01  0.57122312378E+00 -0.13004146840E-01  0.53812219243E+01  0.51100000000E-03 0. -1.
        -11    1    3    3    0    0  0.22492978032E+02  0.99546099938E+01  0.20398476145E+02  0.31955064547E+02  0.51100000000E-03 0.  1.
        -12    1    3    3    0    0 -0.33507443473E-01  0.34199025605E+01  0.98755352865E+01  0.10450983373E+02  0.00000000000E+00 0.  1.
</event>
<event>
 7    1  0.4005571E-009  0.4778727E+02  0.7816164E-02  0.1312668E+00
        -11   -1    0    0    0    0  0.00000000000E+00  0.00000000000E+00  0.45593999997E+02  0.45594000000E+02  0.51100000000E-03 0.  1.
         11   -1    0    0    0    0 -0.00000000000E+00 -0.00000000000E+00 -0.45593999997E+02  0.45594000000E+02  0.51100000000E-03 0. -1.
    9900012    2    1    2    0    0 -0.40111195583E+02  0.14627085515E+02  0.77951221048E+01  0.47787267628E+02  0.19999984423E+02 0.  0.
         12    1    1    2    0    0  0.40111195583E+02 -0.14627085515E+02 -0.77951221048E+01  0.43400732372E+02  0.00000000000E+00 0. -1.
         11    1    3    3    0    0 -0.30598982174E+01  0.41565446062E+00  0.97543844780E+00  0.32383987027E+01  0.51100000000E-03 0. -1.
        -11    1    3    3    0    0 -0.33994353391E+02  0.18328358628E+02  0.76025010280E+01  0.39361692223E+02  0.51100000000E-03 0.  1.
         12    1    3    3    0    0 -0.30569439748E+01 -0.41169275733E+01 -0.78281737094E+00  0.51871767027E+01  0.00000000000E+00 0. -1.
</event>
<event>
 7    1  0.4005571E-009  0.4778727E+02  0.7816164E-02  0.1312668E+00
        -11   -1    0    0    0    0  0.00000000000E+00  0.00000000000E+00  0.45593999997E+02  0.45594000000E+02  0.51100000000E-03 0. -1.
         11   -1    0    0    0    0 -0.00000000000E+00 -0.00000000000E+00 -0.45593999997E+02  0.45594000000E+02  0.51100000000E-03 0.  1.
    9900012    2    1    2    0    0 -0.42549140005E+02  0.83573953927E+01 -0.18296784217E+01  0.47787273093E+02  0.20000009342E+02 0.  0.
         12    1    1    2    0    0  0.42549140005E+02 -0.83573953927E+01  0.18296784217E+01  0.43400726907E+02  0.00000000000E+00 0. -1.
         11    1    3    3    0    0 -0.34744019471E+01 -0.33380985861E+01 -0.20053506310E+01  0.52187932010E+01  0.51100000000E-03 0. -1.
        -11    1    3    3    0    0 -0.13914018290E+02  0.16452826652E+01  0.53269270238E+01  0.14989430003E+02  0.51100000000E-03 0.  1.
        -12    1    3    3    0    0 -0.25160719767E+02  0.10050211314E+02 -0.51512548145E+01  0.27579049890E+02  0.00000000000E+00 0.  1.
</event>
<event>
 7    1  0.4005571E-009  0.4778727E+02  0.7816164E-02  0.1312668E+00
        -11   -1    0    0    0    0  0.00000000000E+00  0.00000000000E+00  0.45593999997E+02  0.45594000000E+02  0.51100000000E-03 0. -1.
         11   -1    0    0    0    0 -0.00000000000E+00 -0.00000000000E+00 -0.45593999997E+02  0.45594000000E+02  0.51100000000E-03 0.  1.
    9900012    2    1    2    0    0  0.50973092424E+01  0.34905121030E+02  0.25283854382E+02  0.47787270420E+02  0.19999997155E+02 0.  0.
         12    1    1    2    0    0 -0.50973092424E+01 -0.34905121030E+02 -0.25283854382E+02  0.43400729580E+02  0.00000000000E+00 0. -1.
         11    1    3    3    0    0  0.52520699577E+01  0.81442124047E+01  0.83424074498E+01  0.12787032371E+02  0.51100000000E-03 0. -1.
        -11    1    3    3    0    0 -0.15502390963E+01  0.12465179368E+02  0.16358347653E+02  0.20624729722E+02  0.51100000000E-03 0.  1.
        -12    1    3    3    0    0  0.13954783810E+01  0.14295729257E+02  0.58309928005E+00  0.14375508328E+02  0.00000000000E+00 0.  1.
</event>
<event>
 7    1  0.4005571E-009  0.4778727E+02  0.7816164E-02  0.1312668E+00
        -11   -1    0    0    0    0  0.00000000000E+00  0.00000000000E+00  0.45593999997E+02  0.45594000000E+02  0.51100000000E-03 0.  1.
         11   -1    0    0    0    0 -0.00000000000E+00 -0.00000000000E+00 -0.45593999997E+02  0.45594000000E+02  0.51100000000E-03 0. -1.
    9900012    2    1    2    0    0  0.37007131060E+02 -0.65223478611E+01  0.21715302396E+02  0.47787272713E+02  0.20000007606E+02 0.  0.
         12    1    1    2    0    0 -0.37007131060E+02  0.65223478611E+01 -0.21715302396E+02  0.43400727287E+02  0.00000000000E+00 0. -1.
         11    1    3    3    0    0  0.42417066739E+01  0.33276076279E+01 -0.16415523785E+01  0.56355782760E+01  0.51100000000E-03 0. -1.
        -11    1    3    3    0    0  0.11548914252E+02 -0.11314037815E+01  0.44582464800E+01  0.12431148654E+02  0.51100000000E-03 0.  1.
        -12    1    3    3    0    0  0.21216510134E+02 -0.87185517074E+01  0.18898608294E+02  0.29720545783E+02  0.00000000000E+00 0.  1.
</event>
<event>
 7    1  0.4005571E-009  0.4778727E+02  0.7816164E-02  0.1312668E+00
        -11   -1    0    0    0    0  0.00000000000E+00  0.00000000000E+00  0.45593999997E+02  0.45594000000E+02  0.51100000000E-03 0.  1.
         11   -1    0    0    0    0 -0.00000000000E+00 -0.00000000000E+00 -0.45593999997E+02  0.45594000000E+02  0.51100000000E-03 0. -1.
    9900012    2    1    2    0    0  0.26518602645E+02  0.13692510378E+02  0.31510356953E+02  0.47787265881E+02  0.19999976460E+02 0.  0.
         12    1    1    2    0    0 -0.26518602645E+02 -0.13692510378E+02 -0.31510356953E+02  0.43400734119E+02  0.00000000000E+00 0. -1.
         11    1    3    3    0    0  0.10091014939E+02  0.10339812088E+00  0.87904495512E+01  0.13383246140E+02  0.51100000000E-03 0. -1.
        -11    1    3    3    0    0  0.23698351978E+01 -0.31527958633E+01  0.28978287072E+01  0.48942468366E+01  0.51100000000E-03 0.  1.
        -12    1    3    3    0    0  0.14057752508E+02  0.16741908120E+02  0.19822078695E+02  0.29509772904E+02  0.00000000000E+00 0.  1.
</event>
<event>
 7    1  0.4005571E-009  0.4778727E+02  0.7816164E-02  0.1312668E+00
        -11   -1    0    0    0    0  0.00000000000E+00  0.00000000000E+00  0.45593999997E+02  0.45594000000E+02  0.51100000000E-03 0.  1.
         11   -1    0    0    0    0 -0.00000000000E+00 -0.00000000000E+00 -0.45593999997E+02  0.45594000000E+02  0.51100000000E-03 0. -1.
    9900012    2    1    2    0    0  0.23450906867E+02  0.35567652942E+02  0.82837565359E+01  0.47787267391E+02  0.19999983340E+02 0.  0.
         12    1    1    2    0    0 -0.23450906867E+02 -0.35567652942E+02 -0.82837565359E+01  0.43400732609E+02  0.00000000000E+00 0. -1.
         11    1    3    3    0    0  0.90746291536E+01  0.99046745127E+01 -0.15547898183E+01  0.13522900692E+02  0.51100000000E-03 0. -1.
        -11    1    3    3    0    0  0.72936239674E+01  0.23381188767E+02  0.40237148665E+01  0.24820701448E+02  0.51100000000E-03 0.  1.
        -12    1    3    3    0    0  0.70826537462E+01  0.22817896618E+01  0.58148314877E+01  0.94436652514E+01  0.00000000000E+00 0.  1.
</event>
<event>
 7    1  0.4005571E-009  0.4778727E+02  0.7816164E-02  0.1312668E+00
        -11   -1    0    0    0    0  0.00000000000E+00  0.00000000000E+00  0.45593999997E+02  0.45594000000E+02  0.51100000000E-03 0.  1.
         11   -1    0    0    0    0 -0.00000000000E+00 -0.00000000000E+00 -0.45593999997E+02  0.45594000000E+02  0.51100000000E-03 0. -1.
    9900012    2    1    2    0    0 -0.29667829747E+02  0.29758516256E+02  0.10856961198E+02  0.47787273991E+02  0.20000013435E+02 0.  0.
         12    1    1    2    0    0  0.29667829747E+02 -0.29758516256E+02 -0.10856961198E+02  0.43400726009E+02  0.00000000000E+00 0. -1.
         11    1    3    3    0    0 -0.43027148484E+01  0.10119044909E+02  0.51516585445E+01  0.12142817258E+02  0.51100000000E-03 0. -1.
        -11    1    3    3    0    0 -0.23263184665E+02  0.21612887734E+02  0.69480384630E+01  0.32504890643E+02  0.51100000000E-03 0.  1.
         12    1    3    3    0    0 -0.21019302338E+01 -0.19734163873E+01 -0.12427358092E+01  0.31395660905E+01  0.00000000000E+00 0. -1.
</event>
<event>
 7    1  0.4005571E-009  0.4778727E+02  0.7816164E-02  0.1312668E+00
        -11   -1    0    0    0    0  0.00000000000E+00  0.00000000000E+00  0.45593999997E+02  0.45594000000E+02  0.51100000000E-03 0.  1.
         11   -1    0    0    0    0 -0.00000000000E+00 -0.00000000000E+00 -0.45593999997E+02  0.45594000000E+02  0.51100000000E-03 0. -1.
    9900012    2    1    2    0    0  0.19693307191E+02 -0.15423395969E+01  0.38644769537E+02  0.47787269913E+02  0.19999994842E+02 0.  0.
         12    1    1    2    0    0 -0.19693307191E+02  0.15423395969E+01 -0.38644769537E+02  0.43400730087E+02  0.00000000000E+00 0. -1.
         11    1    3    3    0    0  0.36125119596E+01  0.13126357254E+01  0.76624227376E+01  0.85723962622E+01  0.51100000000E-03 0.  1.
        -11    1    3    3    0    0 -0.36336964380E+01  0.11841671746E+01  0.62984651519E+01  0.73672698628E+01  0.51100000000E-03 0. -1.
        -12    1    3    3    0    0  0.19714491669E+02 -0.40391424969E+01  0.24683881647E+02  0.31847603788E+02  0.00000000000E+00 0.  1.
</event>
<event>
 7    1  0.4005571E-009  0.4778726E+02  0.7816164E-02  0.1312668E+00
        -11   -1    0    0    0    0  0.00000000000E+00  0.00000000000E+00  0.45593999997E+02  0.45594000000E+02  0.51100000000E-03 0.  1.
         11   -1    0    0    0    0 -0.00000000000E+00 -0.00000000000E+00 -0.45593999997E+02  0.45594000000E+02  0.51100000000E-03 0. -1.
    9900012    2    1    2    0    0  0.22274372944E+02 -0.12167219344E+02  0.35205619130E+02  0.47787256516E+02  0.19999933759E+02 0.  0.
         12    1    1    2    0    0 -0.22274372944E+02  0.12167219344E+02 -0.35205619130E+02  0.43400743484E+02  0.00000000000E+00 0. -1.
         11    1    3    3    0    0 -0.26645076393E+01 -0.23539260402E+01  0.27607269278E+01  0.45013533735E+01  0.51100000000E-03 0. -1.
        -11    1    3    3    0    0  0.69115568907E+01 -0.51063334212E+01  0.45023758223E+01  0.97013219701E+01  0.51100000000E-03 0.  1.
         12    1    3    3    0    0  0.18027323692E+02 -0.47069598825E+01  0.27942516380E+02  0.33584581172E+02  0.00000000000E+00 0. -1.
</event>
<event>
 7    1  0.4005571E-009  0.4778728E+02  0.7816164E-02  0.1312668E+00
        -11   -1    0    0    0    0  0.00000000000E+00  0.00000000000E+00  0.45593999997E+02  0.45594000000E+02  0.51100000000E-03 0.  1.
         11   -1    0    0    0    0 -0.00000000000E+00 -0.00000000000E+00 -0.45593999997E+02  0.45594000000E+02  0.51100000000E-03 0. -1.
    9900012    2    1    2    0    0 -0.72569121962E+00  0.32412561413E+02 -0.28853447718E+02  0.47787283298E+02  0.20000055867E+02 0.  0.
         12    1    1    2    0    0  0.72569121962E+00 -0.32412561413E+02  0.28853447718E+02  0.43400716702E+02  0.00000000000E+00 0. -1.
         11    1    3    3    0    0 -0.35930864970E+01  0.10749040735E+02 -0.65553946886E+01  0.13092950282E+02  0.51100000000E-03 0. -1.
        -11    1    3    3    0    0 -0.34338428132E-01  0.62096540339E+01  0.12933728374E+01  0.63430115802E+01  0.51100000000E-03 0.  1.
         12    1    3    3    0    0  0.29017337055E+01  0.15453866644E+02 -0.23591425866E+02  0.28351321436E+02  0.00000000000E+00 0. -1.
</event>
<event>
 7    1  0.4005571E-009  0.4778727E+02  0.7816164E-02  0.1312668E+00
        -11   -1    0    0    0    0  0.00000000000E+00  0.00000000000E+00  0.45593999997E+02  0.45594000000E+02  0.51100000000E-03 0.  1.
         11   -1    0    0    0    0 -0.00000000000E+00 -0.00000000000E+00 -0.45593999997E+02  0.45594000000E+02  0.51100000000E-03 0. -1.
    9900012    2    1    2    0    0  0.33052521631E+02 -0.18858148195E+02  0.20869217009E+02  0.47787272378E+02  0.20000006081E+02 0.  0.
         12    1    1    2    0    0 -0.33052521631E+02  0.18858148195E+02 -0.20869217009E+02  0.43400727622E+02  0.00000000000E+00 0. -1.
         11    1    3    3    0    0  0.65423230783E+01 -0.57033726019E+01  0.50207405699E+01  0.10026878200E+02  0.51100000000E-03 0.  1.
        -11    1    3    3    0    0  0.22875713845E+02 -0.17341496939E+02  0.12760873426E+02  0.31414418518E+02  0.51100000000E-03 0. -1.
         12    1    3    3    0    0  0.36344847072E+01  0.41867213452E+01  0.30876030139E+01  0.63459756603E+01  0.00000000000E+00 0. -1.
</event>
<event>
 7    1  0.5762143E-009  0.4778727E+02  0.7816164E-02  0.1312668E+00
        -11   -1    0    0    0    0  0.00000000000E+00  0.00000000000E+00  0.45593999997E+02  0.45594000000E+02  0.51100000000E-03 0. -1.
         11   -1    0    0    0    0 -0.00000000000E+00 -0.00000000000E+00 -0.45593999997E+02  0.45594000000E+02  0.51100000000E-03 0.  1.
    9900012    2    1    2    0    0 -0.15953717339E+02  0.25517354592E+02 -0.31272460157E+02  0.47787271358E+02  0.20000001431E+02 0.  0.
         12    1    1    2    0    0  0.15953717339E+02 -0.25517354592E+02  0.31272460157E+02  0.43400728642E+02  0.00000000000E+00 0. -1.
         11    1    3    3    0    0  0.87285951918E+00 -0.12564084003E+01 -0.25151206741E+01  0.29438542890E+01  0.51100000000E-03 0. -1.
        -11    1    3    3    0    0 -0.55589568230E+01  0.30385780891E+01 -0.65040394169E+00  0.63685150005E+01  0.51100000000E-03 0.  1.
        -12    1    3    3    0    0 -0.11267620035E+02  0.23735184904E+02 -0.28106935541E+02  0.38474902069E+02  0.00000000000E+00 0.  1.
</event>
<event>
 7    1  0.4005571E-009  0.4778728E+02  0.7816164E-02  0.1312668E+00
        -11   -1    0    0    0    0  0.00000000000E+00  0.00000000000E+00  0.45593999997E+02  0.45594000000E+02  0.51100000000E-03 0.  1.
         11   -1    0    0    0    0 -0.00000000000E+00 -0.00000000000E+00 -0.45593999997E+02  0.45594000000E+02  0.51100000000E-03 0. -1.
    9900012    2    1    2    0    0  0.14709045077E+02  0.26419695271E+02  0.31133041785E+02  0.47787278854E+02  0.20000035605E+02 0.  0.
         12    1    1    2    0    0 -0.14709045077E+02 -0.26419695271E+02 -0.31133041785E+02  0.43400721146E+02  0.00000000000E+00 0. -1.
         11    1    3    3    0    0  0.55435243097E+01  0.68013770803E+00  0.12663844517E+01  0.57268646671E+01  0.51100000000E-03 0. -1.
        -11    1    3    3    0    0  0.10243190600E+02  0.17978831252E+02  0.16090308762E+02  0.26211817243E+02  0.51100000000E-03 0.  1.
         12    1    3    3    0    0 -0.10776698330E+01  0.77607263107E+01  0.13776348571E+02  0.15848596944E+02  0.00000000000E+00 0. -1.
</event>
<event>
 7    1  0.4005571E-009  0.4778727E+02  0.7816164E-02  0.1312668E+00
        -11   -1    0    0    0    0  0.00000000000E+00  0.00000000000E+00  0.45593999997E+02  0.45594000000E+02  0.51100000000E-03 0. -1.
         11   -1    0    0    0    0 -0.00000000000E+00 -0.00000000000E+00 -0.45593999997E+02  0.45594000000E+02  0.51100000000E-03 0.  1.
    9900012    2    1    2    0    0  0.39224921139E+02 -0.15782098719E+02 -0.97956251445E+01  0.47787270163E+02  0.19999995983E+02 0.  0.
         12    1    1    2    0    0 -0.39224921139E+02  0.15782098719E+02  0.97956251445E+01  0.43400729837E+02  0.00000000000E+00 0. -1.
         11    1    3    3    0    0  0.52425974435E+01 -0.35610894883E+01 -0.50508406484E+01  0.81041457178E+01  0.51100000000E-03 0. -1.
        -11    1    3    3    0    0  0.34975255912E+02 -0.11142056334E+02 -0.66234989567E+01  0.37299928742E+02  0.51100000000E-03 0.  1.
        -12    1    3    3    0    0 -0.99293221566E+00 -0.10789528972E+01  0.18787144606E+01  0.23831957041E+01  0.00000000000E+00 0.  1.
</event>
<event>
 7    1  0.4005571E-009  0.4778727E+02  0.7816164E-02  0.1312668E+00
        -11   -1    0    0    0    0  0.00000000000E+00  0.00000000000E+00  0.45593999997E+02  0.45594000000E+02  0.51100000000E-03 0.  1.
         11   -1    0    0    0    0 -0.00000000000E+00 -0.00000000000E+00 -0.45593999997E+02  0.45594000000E+02  0.51100000000E-03 0. -1.
    9900012    2    1    2    0    0 -0.12041518947E+02 -0.27045426880E+01  0.41609020631E+02  0.47787270426E+02  0.19999997180E+02 0.  0.
         12    1    1    2    0    0  0.12041518947E+02  0.27045426880E+01 -0.41609020631E+02  0.43400729574E+02  0.00000000000E+00 0. -1.
         11    1    3    3    0    0 -0.49868223458E+01 -0.44279359213E+01  0.60387058530E+01  0.89967206399E+01  0.51100000000E-03 0. -1.
        -11    1    3    3    0    0  0.17577876649E+01 -0.19618063808E+01  0.83120152633E+00  0.27621364900E+01  0.51100000000E-03 0.  1.
        -12    1    3    3    0    0 -0.88124842661E+01  0.36851996141E+01  0.34739113251E+02  0.36028413296E+02  0.00000000000E+00 0.  1.
</event>
<event>
 7    1  0.4005571E-009  0.4778727E+02  0.7816164E-02  0.1312668E+00
        -11   -1    0    0    0    0  0.00000000000E+00  0.00000000000E+00  0.45593999997E+02  0.45594000000E+02  0.51100000000E-03 0.  1.
         11   -1    0    0    0    0 -0.00000000000E+00 -0.00000000000E+00 -0.45593999997E+02  0.45594000000E+02  0.51100000000E-03 0. -1.
    9900012    2    1    2    0    0 -0.15385109936E+02 -0.10119418635E+02  0.39300376033E+02  0.47787265011E+02  0.19999972491E+02 0.  0.
         12    1    1    2    0    0  0.15385109936E+02  0.10119418635E+02 -0.39300376033E+02  0.43400734989E+02  0.00000000000E+00 0. -1.
         11    1    3    3    0    0 -0.77870731454E+01 -0.23873317749E+01  0.11099142409E+02  0.13766946780E+02  0.51100000000E-03 0.  1.
        -11    1    3    3    0    0  0.24114491959E+00 -0.31861364357E+01 -0.10769185022E+01  0.33718496379E+01  0.51100000000E-03 0. -1.
        -12    1    3    3    0    0 -0.78391817105E+01 -0.45459504243E+01  0.29278152127E+02  0.30648468593E+02  0.00000000000E+00 0.  1.
</event>
<event>
 7    1  0.4005571E-009  0.4778723E+02  0.7816164E-02  0.1312668E+00
        -11   -1    0    0    0    0  0.00000000000E+00  0.00000000000E+00  0.45593999997E+02  0.45594000000E+02  0.51100000000E-03 0.  1.
         11   -1    0    0    0    0 -0.00000000000E+00 -0.00000000000E+00 -0.45593999997E+02  0.45594000000E+02  0.51100000000E-03 0. -1.
    9900012    2    1    2    0    0  0.93968484167E+01  0.12719410492E+02  0.40417106098E+02  0.47787232395E+02  0.19999823780E+02 0.  0.
         12    1    1    2    0    0 -0.93968484167E+01 -0.12719410492E+02 -0.40417106098E+02  0.43400767605E+02  0.00000000000E+00 0. -1.
         11    1    3    3    0    0  0.10735058229E+01 -0.12740564199E+01 -0.54609904536E+00  0.17532424080E+01  0.51100000000E-03 0. -1.
        -11    1    3    3    0    0  0.32838847849E+01  0.69862216472E+01  0.53560513405E+01  0.93956627444E+01  0.51100000000E-03 0.  1.
        -12    1    3    3    0    0  0.50394578089E+01  0.70072452644E+01  0.35607153802E+02  0.36638327242E+02  0.00000000000E+00 0.  1.
</event>
<event>
 7    1  0.4005571E-009  0.4778727E+02  0.7816164E-02  0.1312668E+00
        -11   -1    0    0    0    0  0.00000000000E+00  0.00000000000E+00  0.45593999997E+02  0.45594000000E+02  0.51100000000E-03 0.  1.
         11   -1    0    0    0    0 -0.00000000000E+00 -0.00000000000E+00 -0.45593999997E+02  0.45594000000E+02  0.51100000000E-03 0. -1.
    9900012    2    1    2    0    0 -0.20367040660E+02  0.34298957270E+02  0.17099360853E+02  0.47787274699E+02  0.20000016664E+02 0.  0.
         12    1    1    2    0    0  0.20367040660E+02 -0.34298957270E+02 -0.17099360853E+02  0.43400725301E+02  0.00000000000E+00 0. -1.
         11    1    3    3    0    0 -0.13719388189E+02  0.16800835715E+02  0.21504380059E+01  0.21797111664E+02  0.51100000000E-03 0. -1.
        -11    1    3    3    0    0 -0.92453434933E+01  0.12363113802E+02  0.99409004847E+01  0.18361494000E+02  0.51100000000E-03 0.  1.
        -12    1    3    3    0    0  0.25976910226E+01  0.51350077524E+01  0.50080223628E+01  0.76286690355E+01  0.00000000000E+00 0.  1.
</event>
<event>
 7    1  0.4005571E-009  0.4778728E+02  0.7816164E-02  0.1312668E+00
        -11   -1    0    0    0    0  0.00000000000E+00  0.00000000000E+00  0.45593999997E+02  0.45594000000E+02  0.51100000000E-03 0. -1.
         11   -1    0    0    0    0 -0.00000000000E+00 -0.00000000000E+00 -0.45593999997E+02  0.45594000000E+02  0.51100000000E-03 0.  1.
    9900012    2    1    2    0    0 -0.18749406686E+02  0.29902435293E+02 -0.25257206865E+02  0.47787281272E+02  0.20000046630E+02 0.  0.
         12    1    1    2    0    0  0.18749406686E+02 -0.29902435293E+02  0.25257206865E+02  0.43400718728E+02  0.00000000000E+00 0. -1.
         11    1    3    3    0    0 -0.28764821974E+01 -0.28026126527E+00 -0.49007641320E+01  0.56894802529E+01  0.51100000000E-03 0. -1.
        -11    1    3    3    0    0  0.21301540315E+01  0.11438410890E+01 -0.27489811808E+01  0.36609870839E+01  0.51100000000E-03 0.  1.
        -12    1    3    3    0    0 -0.18003078520E+02  0.29038855469E+02 -0.17607461552E+02  0.38436813935E+02  0.00000000000E+00 0.  1.
</event>
<event>
 7    1  0.4005571E-009  0.4778727E+02  0.7816164E-02  0.1312668E+00
        -11   -1    0    0    0    0  0.00000000000E+00  0.00000000000E+00  0.45593999997E+02  0.45594000000E+02  0.51100000000E-03 0.  1.
         11   -1    0    0    0    0 -0.00000000000E+00 -0.00000000000E+00 -0.45593999997E+02  0.45594000000E+02  0.51100000000E-03 0. -1.
    9900012    2    1    2    0    0  0.94809211187E+01 -0.37346931689E+02  0.19973541280E+02  0.47787268173E+02  0.19999986910E+02 0.  0.
         12    1    1    2    0    0 -0.94809211187E+01  0.37346931689E+02 -0.19973541280E+02  0.43400731827E+02  0.00000000000E+00 0. -1.
         11    1    3    3    0    0 -0.16061603865E+01 -0.56430062271E+00  0.92413762329E+00  0.19370640123E+01  0.51100000000E-03 0. -1.
        -11    1    3    3    0    0  0.35490148443E+01 -0.30851556191E+02  0.99007009510E+01  0.32595059524E+02  0.51100000000E-03 0.  1.
        -12    1    3    3    0    0  0.75380666608E+01 -0.59310748745E+01  0.91487027059E+01  0.13255144637E+02  0.00000000000E+00 0.  1.
</event>
<event>
 7    1  0.4005571E-009  0.4778727E+02  0.7816164E-02  0.1312668E+00
        -11   -1    0    0    0    0  0.00000000000E+00  0.00000000000E+00  0.45593999997E+02  0.45594000000E+02  0.51100000000E-03 0.  1.
         11   -1    0    0    0    0 -0.00000000000E+00 -0.00000000000E+00 -0.45593999997E+02  0.45594000000E+02  0.51100000000E-03 0. -1.
    9900012    2    1    2    0    0 -0.37480824346E+02 -0.10707422221E+02  0.19083047307E+02  0.47787265227E+02  0.19999973477E+02 0.  0.
         12    1    1    2    0    0  0.37480824346E+02  0.10707422221E+02 -0.19083047307E+02  0.43400734773E+02  0.00000000000E+00 0. -1.
         11    1    3    3    0    0 -0.18641896354E+02 -0.87467905858E+00  0.15162018246E+02  0.24045210764E+02  0.51100000000E-03 0. -1.
        -11    1    3    3    0    0 -0.26974644041E-02 -0.20141033103E+01 -0.16463085187E+01  0.26013364682E+01  0.51100000000E-03 0.  1.
        -12    1    3    3    0    0 -0.18836230527E+02 -0.78186398517E+01  0.55673375801E+01  0.21140717995E+02  0.00000000000E+00 0.  1.
</event>
<event>
 7    1  0.4005571E-009  0.4778727E+02  0.7816164E-02  0.1312668E+00
        -11   -1    0    0    0    0  0.00000000000E+00  0.00000000000E+00  0.45593999997E+02  0.45594000000E+02  0.51100000000E-03 0.  1.
         11   -1    0    0    0    0 -0.00000000000E+00 -0.00000000000E+00 -0.45593999997E+02  0.45594000000E+02  0.51100000000E-03 0. -1.
    9900012    2    1    2    0    0 -0.27312503011E+02  0.73707784756E+01  0.32913856752E+02  0.47787272329E+02  0.20000005856E+02 0.  0.
         12    1    1    2    0    0  0.27312503011E+02 -0.73707784756E+01 -0.32913856752E+02  0.43400727671E+02  0.00000000000E+00 0. -1.
         11    1    3    3    0    0 -0.77261672685E+01 -0.44038951245E+01  0.27236265764E+01  0.93008652779E+01  0.51100000000E-03 0. -1.
        -11    1    3    3    0    0 -0.45431785016E+01 -0.18512765311E+00  0.44388169331E+01  0.63543559211E+01  0.51100000000E-03 0.  1.
        -12    1    3    3    0    0 -0.15043157241E+02  0.11959801253E+02  0.25751413243E+02  0.32132051130E+02  0.00000000000E+00 0.  1.
</event>
<event>
 7    1  0.4005571E-009  0.4778729E+02  0.7816164E-02  0.1312668E+00
        -11   -1    0    0    0    0  0.00000000000E+00  0.00000000000E+00  0.45593999997E+02  0.45594000000E+02  0.51100000000E-03 0.  1.
         11   -1    0    0    0    0 -0.00000000000E+00 -0.00000000000E+00 -0.45593999997E+02  0.45594000000E+02  0.51100000000E-03 0. -1.
    9900012    2    1    2    0    0  0.21162094719E+02 -0.37572822417E+02 -0.49061302434E+01  0.47787293194E+02  0.20000100988E+02 0.  0.
         12    1    1    2    0    0 -0.21162094719E+02  0.37572822417E+02  0.49061302434E+01  0.43400706806E+02  0.00000000000E+00 0. -1.
         11    1    3    3    0    0  0.11592561386E+02 -0.26974419212E+02 -0.51583879948E+01  0.29809658473E+02  0.51100000000E-03 0.  1.
        -11    1    3    3    0    0  0.68302508619E+01 -0.66041420655E+01 -0.50803077061E+01  0.10773882583E+02  0.51100000000E-03 0. -1.
         12    1    3    3    0    0  0.27392824710E+01 -0.39942611400E+01  0.53325654574E+01  0.72037521382E+01  0.00000000000E+00 0. -1.
</event>
<event>
 7    1  0.4005571E-009  0.4778727E+02  0.7816164E-02  0.1312668E+00
        -11   -1    0    0    0    0  0.00000000000E+00  0.00000000000E+00  0.45593999997E+02  0.45594000000E+02  0.51100000000E-03 0.  1.
         11   -1    0    0    0    0 -0.00000000000E+00 -0.00000000000E+00 -0.45593999997E+02  0.45594000000E+02  0.51100000000E-03 0. -1.
    9900012    2    1    2    0    0 -0.34399218114E+02  0.17806385493E+02  0.19576769423E+02  0.47787268759E+02  0.19999989580E+02 0.  0.
         12    1    1    2    0    0  0.34399218114E+02 -0.17806385493E+02 -0.19576769423E+02  0.43400731241E+02  0.00000000000E+00 0. -1.
         11    1    3    3    0    0 -0.63394835719E+01  0.85444112437E+01  0.11543742206E+01  0.10701803379E+02  0.51100000000E-03 0. -1.
        -11    1    3    3    0    0 -0.52171967810E+01 -0.14154248189E+01 -0.68465087524E+00  0.54489739173E+01  0.51100000000E-03 0.  1.
         12    1    3    3    0    0 -0.22842537761E+02  0.10677399069E+02  0.19107046078E+02  0.31636491463E+02  0.00000000000E+00 0. -1.
</event>
<event>
 7    1  0.4005571E-009  0.4778727E+02  0.7816164E-02  0.1312668E+00
        -11   -1    0    0    0    0  0.00000000000E+00  0.00000000000E+00  0.45593999997E+02  0.45594000000E+02  0.51100000000E-03 0. -1.
         11   -1    0    0    0    0 -0.00000000000E+00 -0.00000000000E+00 -0.45593999997E+02  0.45594000000E+02  0.51100000000E-03 0.  1.
    9900012    2    1    2    0    0  0.35091820230E+00 -0.25870531834E+02 -0.34845599914E+02  0.47787269657E+02  0.19999993672E+02 0.  0.
         12    1    1    2    0    0 -0.35091820230E+00  0.25870531834E+02  0.34845599914E+02  0.43400730343E+02  0.00000000000E+00 0. -1.
         11    1    3    3    0    0 -0.40083346590E+00 -0.42209467527E+01 -0.27187926813E+01  0.50367541990E+01  0.51100000000E-03 0. -1.
        -11    1    3    3    0    0  0.63187299234E+01 -0.20493066571E+02 -0.19853745447E+02  0.29224361993E+02  0.51100000000E-03 0.  1.
         12    1    3    3    0    0 -0.55669782552E+01 -0.11565185102E+01 -0.12273061785E+02  0.13526153465E+02  0.00000000000E+00 0. -1.
</event>
<event>
 7    1  0.4005571E-009  0.4778727E+02  0.7816164E-02  0.1312668E+00
        -11   -1    0    0    0    0  0.00000000000E+00  0.00000000000E+00  0.45593999997E+02  0.45594000000E+02  0.51100000000E-03 0.  1.
         11   -1    0    0    0    0 -0.00000000000E+00 -0.00000000000E+00 -0.45593999997E+02  0.45594000000E+02  0.51100000000E-03 0. -1.
    9900012    2    1    2    0    0  0.42858874921E+02 -0.48881232806E+01 -0.47797875486E+01  0.47787271001E+02  0.19999999800E+02 0.  0.
         12    1    1    2    0    0 -0.42858874921E+02  0.48881232806E+01  0.47797875486E+01  0.43400728999E+02  0.00000000000E+00 0. -1.
         11    1    3    3    0    0  0.16611779692E+01 -0.80425045385E+00 -0.49961395860E+01  0.53261376308E+01  0.51100000000E-03 0. -1.
        -11    1    3    3    0    0  0.28354303217E+02 -0.54199856135E+01 -0.33593689896E+01  0.29062486391E+02  0.51100000000E-03 0.  1.
        -12    1    3    3    0    0  0.12843393734E+02  0.13361127867E+01  0.35757210270E+01  0.13398646978E+02  0.00000000000E+00 0.  1.
</event>
<event>
 7    1  0.4005571E-009  0.4778727E+02  0.7816164E-02  0.1312668E+00
        -11   -1    0    0    0    0  0.00000000000E+00  0.00000000000E+00  0.45593999997E+02  0.45594000000E+02  0.51100000000E-03 0.  1.
         11   -1    0    0    0    0 -0.00000000000E+00 -0.00000000000E+00 -0.45593999997E+02  0.45594000000E+02  0.51100000000E-03 0. -1.
    9900012    2    1    2    0    0 -0.34762583353E+01 -0.37788185151E+02  0.21061625496E+02  0.47787269851E+02  0.19999994556E+02 0.  0.
         12    1    1    2    0    0  0.34762583353E+01  0.37788185151E+02 -0.21061625496E+02  0.43400730149E+02  0.00000000000E+00 0. -1.
         11    1    3    3    0    0  0.10686185631E+01 -0.15727562307E+02  0.14839020804E+02  0.21649357968E+02  0.51100000000E-03 0. -1.
        -11    1    3    3    0    0  0.18728989597E+01 -0.79203212489E+01  0.67896775780E+01  0.10599007551E+02  0.51100000000E-03 0.  1.
         12    1    3    3    0    0 -0.64177758580E+01 -0.14140301595E+02 -0.56707288606E+00  0.15538904331E+02  0.00000000000E+00 0. -1.
</event>
<event>
 7    1  0.4005571E-009  0.4778727E+02  0.7816164E-02  0.1312668E+00
        -11   -1    0    0    0    0  0.00000000000E+00  0.00000000000E+00  0.45593999997E+02  0.45594000000E+02  0.51100000000E-03 0.  1.
         11   -1    0    0    0    0 -0.00000000000E+00 -0.00000000000E+00 -0.45593999997E+02  0.45594000000E+02  0.51100000000E-03 0. -1.
    9900012    2    1    2    0    0  0.34558869791E+02  0.25830573355E+01  0.26127296896E+02  0.47787270634E+02  0.19999998127E+02 0.  0.
         12    1    1    2    0    0 -0.34558869791E+02 -0.25830573355E+01 -0.26127296896E+02  0.43400729366E+02  0.00000000000E+00 0. -1.
         11    1    3    3    0    0  0.19722215215E+02  0.71277002844E+01  0.19855178428E+02  0.28879023443E+02  0.51100000000E-03 0. -1.
        -11    1    3    3    0    0  0.17637766533E+01 -0.27015950459E+01  0.45738809357E+01  0.55973128329E+01  0.51100000000E-03 0.  1.
        -12    1    3    3    0    0  0.13072877923E+02 -0.18430479029E+01  0.16982375319E+01  0.13310934358E+02  0.00000000000E+00 0.  1.
</event>
<event>
 7    1  0.4005571E-009  0.4778727E+02  0.7816164E-02  0.1312668E+00
        -11   -1    0    0    0    0  0.00000000000E+00  0.00000000000E+00  0.45593999997E+02  0.45594000000E+02  0.51100000000E-03 0.  1.
         11   -1    0    0    0    0 -0.00000000000E+00 -0.00000000000E+00 -0.45593999997E+02  0.45594000000E+02  0.51100000000E-03 0. -1.
    9900012    2    1    2    0    0  0.19927264843E+02  0.12353153561E+02  0.36522966437E+02  0.47787270002E+02  0.19999995245E+02 0.  0.
         12    1    1    2    0    0 -0.19927264843E+02 -0.12353153561E+02 -0.36522966437E+02  0.43400729998E+02  0.00000000000E+00 0. -1.
         11    1    3    3    0    0  0.52190100942E+01  0.90122008779E+01  0.80889455302E+01  0.13186692955E+02  0.51100000000E-03 0. -1.
        -11    1    3    3    0    0  0.27522045960E+01  0.25520296925E+01  0.89887568754E-02  0.37533407450E+01  0.51100000000E-03 0.  1.
        -12    1    3    3    0    0  0.11956050153E+02  0.78892299092E+00  0.28425032150E+02  0.30847236302E+02  0.00000000000E+00 0.  1.
</event>
<event>
 7    1  0.4005571E-009  0.4778727E+02  0.7816164E-02  0.1312668E+00
        -11   -1    0    0    0    0  0.00000000000E+00  0.00000000000E+00  0.45593999997E+02  0.45594000000E+02  0.51100000000E-03 0.  1.
         11   -1    0    0    0    0 -0.00000000000E+00 -0.00000000000E+00 -0.45593999997E+02  0.45594000000E+02  0.51100000000E-03 0. -1.
    9900012    2    1    2    0    0  0.14664771513E+02  0.33509784602E+02  0.23359409597E+02  0.47787271845E+02  0.20000003651E+02 0.  0.
         12    1    1    2    0    0 -0.14664771513E+02 -0.33509784602E+02 -0.23359409597E+02  0.43400728155E+02  0.00000000000E+00 0. -1.
         11    1    3    3    0    0  0.73217441313E+01  0.28215977077E+02  0.24733992168E+02  0.38229826946E+02  0.51100000000E-03 0.  1.
        -11    1    3    3    0    0  0.12559170104E+01  0.11254254872E+01 -0.13813019975E+01  0.21798865874E+01  0.51100000000E-03 0. -1.
        -12    1    3    3    0    0  0.60871103716E+01  0.41683820383E+01  0.67194270907E-02  0.73775583118E+01  0.00000000000E+00 0.  1.
</event>
<event>
 7    1  0.4005571E-009  0.4778727E+02  0.7816164E-02  0.1312668E+00
        -11   -1    0    0    0    0  0.00000000000E+00  0.00000000000E+00  0.45593999997E+02  0.45594000000E+02  0.51100000000E-03 0.  1.
         11   -1    0    0    0    0 -0.00000000000E+00 -0.00000000000E+00 -0.45593999997E+02  0.45594000000E+02  0.51100000000E-03 0. -1.
    9900012    2    1    2    0    0  0.24156349399E+02 -0.19031963752E+02  0.30624796222E+02  0.47787274151E+02  0.20000014166E+02 0.  0.
         12    1    1    2    0    0 -0.24156349399E+02  0.19031963752E+02 -0.30624796222E+02  0.43400725849E+02  0.00000000000E+00 0. -1.
         11    1    3    3    0    0  0.24151942306E+01 -0.72430191262E+00  0.11482508458E+02  0.11756095320E+02  0.51100000000E-03 0. -1.
        -11    1    3    3    0    0  0.55871407595E+01 -0.23162502061E+01  0.96705437965E+01  0.11406163880E+02  0.51100000000E-03 0.  1.
         12    1    3    3    0    0  0.16154014409E+02 -0.15991411633E+02  0.94717439676E+01  0.24625014951E+02  0.00000000000E+00 0. -1.
</event>
<event>
 7    1  0.4005571E-009  0.4778727E+02  0.7816164E-02  0.1312668E+00
        -11   -1    0    0    0    0  0.00000000000E+00  0.00000000000E+00  0.45593999997E+02  0.45594000000E+02  0.51100000000E-03 0.  1.
         11   -1    0    0    0    0 -0.00000000000E+00 -0.00000000000E+00 -0.45593999997E+02  0.45594000000E+02  0.51100000000E-03 0. -1.
    9900012    2    1    2    0    0  0.33703538728E+01  0.41368159661E+02  0.12686185854E+02  0.47787271544E+02  0.20000002278E+02 0.  0.
         12    1    1    2    0    0 -0.33703538728E+01 -0.41368159661E+02 -0.12686185854E+02  0.43400728456E+02  0.00000000000E+00 0. -1.
         11    1    3    3    0    0  0.28038316391E+01  0.13048944918E+02  0.47195859897E+01  0.14156656650E+02  0.51100000000E-03 0. -1.
        -11    1    3    3    0    0  0.70075231279E+00  0.29812210578E+02  0.96817194273E+01  0.31352745409E+02  0.51100000000E-03 0.  1.
         12    1    3    3    0    0 -0.13423007908E+00 -0.14929958348E+01 -0.17151195628E+01  0.22778694852E+01  0.00000000000E+00 0. -1.
</event>
<event>
 7    1  0.4005571E-009  0.4778727E+02  0.7816164E-02  0.1312668E+00
        -11   -1    0    0    0    0  0.00000000000E+00  0.00000000000E+00  0.45593999997E+02  0.45594000000E+02  0.51100000000E-03 0.  1.
         11   -1    0    0    0    0 -0.00000000000E+00 -0.00000000000E+00 -0.45593999997E+02  0.45594000000E+02  0.51100000000E-03 0. -1.
    9900012    2    1    2    0    0 -0.26112005798E+02 -0.29361859627E+02  0.18430077610E+02  0.47787269496E+02  0.19999992942E+02 0.  0.
         12    1    1    2    0    0  0.26112005798E+02  0.29361859627E+02 -0.18430077610E+02  0.43400730504E+02  0.00000000000E+00 0. -1.
         11    1    3    3    0    0 -0.98458447106E+01 -0.43166971842E+01  0.81817731525E+00  0.10781648623E+02  0.51100000000E-03 0. -1.
        -11    1    3    3    0    0 -0.50695574472E+01 -0.99364044300E+01 -0.12460293650E+00  0.11155629604E+02  0.51100000000E-03 0.  1.
        -12    1    3    3    0    0 -0.11196603640E+02 -0.15108758012E+02  0.17736503232E+02  0.25849991270E+02  0.00000000000E+00 0.  1.
</event>
<event>
 7    1  0.4005571E-009  0.4778726E+02  0.7816164E-02  0.1312668E+00
        -11   -1    0    0    0    0  0.00000000000E+00  0.00000000000E+00  0.45593999997E+02  0.45594000000E+02  0.51100000000E-03 0.  1.
         11   -1    0    0    0    0 -0.00000000000E+00 -0.00000000000E+00 -0.45593999997E+02  0.45594000000E+02  0.51100000000E-03 0. -1.
    9900012    2    1    2    0    0 -0.34330554604E+02 -0.26551991144E+02  0.17157399294E+00  0.47787255182E+02  0.19999927675E+02 0.  0.
         12    1    1    2    0    0  0.34330554604E+02  0.26551991144E+02 -0.17157399294E+00  0.43400744818E+02  0.00000000000E+00 0. -1.
         11    1    3    3    0    0 -0.10085225490E+02 -0.17784109375E+02  0.38841225173E+01  0.20810399502E+02  0.51100000000E-03 0. -1.
        -11    1    3    3    0    0 -0.11821231737E+02 -0.77767236275E+01 -0.77097312925E+00  0.14170862712E+02  0.51100000000E-03 0.  1.
         12    1    3    3    0    0 -0.12424097377E+02 -0.99115814209E+00 -0.29415753951E+01  0.12805992968E+02  0.00000000000E+00 0. -1.
</event>
<event>
 7    1  0.4485547E-009  0.4778727E+02  0.7816164E-02  0.1312668E+00
        -11   -1    0    0    0    0  0.00000000000E+00  0.00000000000E+00  0.45593999997E+02  0.45594000000E+02  0.51100000000E-03 0. -1.
         11   -1    0    0    0    0 -0.00000000000E+00 -0.00000000000E+00 -0.45593999997E+02  0.45594000000E+02  0.51100000000E-03 0.  1.
    9900012    2    1    2    0    0  0.40182604523E+02 -0.16393177484E+02 -0.49534824075E+00  0.47787270235E+02  0.19999996310E+02 0.  0.
         12    1    1    2    0    0 -0.40182604523E+02  0.16393177484E+02  0.49534824075E+00  0.43400729765E+02  0.00000000000E+00 0. -1.
         11    1    3    3    0    0  0.11870986656E+00 -0.32117803233E+00 -0.26401264029E+01  0.26622387280E+01  0.51100000000E-03 0. -1.
        -11    1    3    3    0    0  0.18179351792E+02 -0.69818945984E+01 -0.54815972633E+01  0.20230758577E+02  0.51100000000E-03 0.  1.
        -12    1    3    3    0    0  0.21884542864E+02 -0.90901048530E+01  0.76263754255E+01  0.24894272930E+02  0.00000000000E+00 0.  1.
</event>
<event>
 7    1  0.4005571E-009  0.4778727E+02  0.7816164E-02  0.1312668E+00
        -11   -1    0    0    0    0  0.00000000000E+00  0.00000000000E+00  0.45593999997E+02  0.45594000000E+02  0.51100000000E-03 0.  1.
         11   -1    0    0    0    0 -0.00000000000E+00 -0.00000000000E+00 -0.45593999997E+02  0.45594000000E+02  0.51100000000E-03 0. -1.
    9900012    2    1    2    0    0  0.19487798084E+01 -0.29388804367E+02  0.31876691313E+02  0.47787274039E+02  0.20000013654E+02 0.  0.
         12    1    1    2    0    0 -0.19487798084E+01  0.29388804367E+02 -0.31876691313E+02  0.43400725961E+02  0.00000000000E+00 0. -1.
         11    1    3    3    0    0 -0.40889830476E+01 -0.55363841070E+01  0.36831611375E+01  0.78062159572E+01  0.51100000000E-03 0. -1.
        -11    1    3    3    0    0 -0.14774737592E+01 -0.15260492020E+02  0.22494517973E+02  0.27222580416E+02  0.51100000000E-03 0.  1.
         12    1    3    3    0    0  0.75152366152E+01 -0.85919282400E+01  0.56990122018E+01  0.12758477666E+02  0.00000000000E+00 0. -1.
</event>
<event>
 7    1  0.4005571E-009  0.4778727E+02  0.7816164E-02  0.1312668E+00
        -11   -1    0    0    0    0  0.00000000000E+00  0.00000000000E+00  0.45593999997E+02  0.45594000000E+02  0.51100000000E-03 0.  1.
         11   -1    0    0    0    0 -0.00000000000E+00 -0.00000000000E+00 -0.45593999997E+02  0.45594000000E+02  0.51100000000E-03 0. -1.
    9900012    2    1    2    0    0 -0.15955478034E+01  0.40525070294E+02  0.15453028191E+02  0.47787272179E+02  0.20000005172E+02 0.  0.
         12    1    1    2    0    0  0.15955478034E+01 -0.40525070294E+02 -0.15453028191E+02  0.43400727821E+02  0.00000000000E+00 0. -1.
         11    1    3    3    0    0 -0.11395833820E+01  0.25240568134E+01 -0.19997397051E+01  0.34159145526E+01  0.51100000000E-03 0. -1.
        -11    1    3    3    0    0  0.15803436598E+01 -0.20873463239E+00  0.31338402696E+01  0.35159652055E+01  0.51100000000E-03 0.  1.
         12    1    3    3    0    0 -0.20363080813E+01  0.38209748113E+02  0.14318927627E+02  0.40855392421E+02  0.00000000000E+00 0. -1.
</event>
<event>
 7    1  0.4005571E-009  0.4778727E+02  0.7816164E-02  0.1312668E+00
        -11   -1    0    0    0    0  0.00000000000E+00  0.00000000000E+00  0.45593999997E+02  0.45594000000E+02  0.51100000000E-03 0. -1.
         11   -1    0    0    0    0 -0.00000000000E+00 -0.00000000000E+00 -0.45593999997E+02  0.45594000000E+02  0.51100000000E-03 0.  1.
    9900012    2    1    2    0    0 -0.36533309413E+02 -0.19070519308E+02 -0.13610876187E+02  0.47787270123E+02  0.19999995797E+02 0.  0.
         12    1    1    2    0    0  0.36533309413E+02  0.19070519308E+02  0.13610876187E+02  0.43400729877E+02  0.00000000000E+00 0. -1.
         11    1    3    3    0    0 -0.71025314562E+01 -0.45638851108E+00  0.26511482856E+01  0.75949213988E+01  0.51100000000E-03 0. -1.
        -11    1    3    3    0    0  0.40405896423E+00 -0.25112646489E+01 -0.26081369684E+01  0.36430883176E+01  0.51100000000E-03 0.  1.
         12    1    3    3    0    0 -0.29834836921E+02 -0.16102866148E+02 -0.13653887504E+02  0.36549260406E+02  0.00000000000E+00 0. -1.
</event>
<event>
 7    1  0.4005571E-009  0.4778727E+02  0.7816164E-02  0.1312668E+00
        -11   -1    0    0    0    0  0.00000000000E+00  0.00000000000E+00  0.45593999997E+02  0.45594000000E+02  0.51100000000E-03 0.  1.
         11   -1    0    0    0    0 -0.00000000000E+00 -0.00000000000E+00 -0.45593999997E+02  0.45594000000E+02  0.51100000000E-03 0. -1.
    9900012    2    1    2    0    0 -0.16929513168E+02 -0.27984459432E+02  0.28528669084E+02  0.47787270219E+02  0.19999996237E+02 0.  0.
         12    1    1    2    0    0  0.16929513168E+02  0.27984459432E+02 -0.28528669084E+02  0.43400729781E+02  0.00000000000E+00 0. -1.
         11    1    3    3    0    0 -0.12878206869E+02 -0.15946562886E+02  0.11401105419E+02  0.23454771052E+02  0.51100000000E-03 0. -1.
        -11    1    3    3    0    0 -0.72036191153E+01 -0.12140694461E+02  0.13634487437E+02  0.19626202849E+02  0.51100000000E-03 0.  1.
        -12    1    3    3    0    0  0.31523128160E+01  0.10279791510E+00  0.34930762275E+01  0.47062963180E+01  0.00000000000E+00 0.  1.
</event>
<event>
 7    1  0.4005571E-009  0.4778728E+02  0.7816164E-02  0.1312668E+00
        -11   -1    0    0    0    0  0.00000000000E+00  0.00000000000E+00  0.45593999997E+02  0.45594000000E+02  0.51100000000E-03 0. -1.
         11   -1    0    0    0    0 -0.00000000000E+00 -0.00000000000E+00 -0.45593999997E+02  0.45594000000E+02  0.51100000000E-03 0.  1.
    9900012    2    1    2    0    0  0.15758111389E+02  0.39862395690E+02 -0.68039330766E+01  0.47787283762E+02  0.20000057983E+02 0.  0.
         12    1    1    2    0    0 -0.15758111389E+02 -0.39862395690E+02  0.68039330766E+01  0.43400716238E+02  0.00000000000E+00 0. -1.
         11    1    3    3    0    0  0.13571520184E+01 -0.48978372152E+00 -0.22736473176E+01  0.26928093288E+01  0.51100000000E-03 0. -1.
        -11    1    3    3    0    0  0.64327449926E+00  0.14301990836E+02 -0.61690259896E+01  0.15589022608E+02  0.51100000000E-03 0.  1.
         12    1    3    3    0    0  0.13757684871E+02  0.26050188576E+02  0.16387402306E+01  0.29505451825E+02  0.00000000000E+00 0. -1.
</event>
<event>
 7    1  0.4005571E-009  0.4778727E+02  0.7816164E-02  0.1312668E+00
        -11   -1    0    0    0    0  0.00000000000E+00  0.00000000000E+00  0.45593999997E+02  0.45594000000E+02  0.51100000000E-03 0.  1.
         11   -1    0    0    0    0 -0.00000000000E+00 -0.00000000000E+00 -0.45593999997E+02  0.45594000000E+02  0.51100000000E-03 0. -1.
    9900012    2    1    2    0    0 -0.58860072306E+01 -0.37904395871E+02  0.20303575107E+02  0.47787268789E+02  0.19999989719E+02 0.  0.
         12    1    1    2    0    0  0.58860072306E+01  0.37904395871E+02 -0.20303575107E+02  0.43400731211E+02  0.00000000000E+00 0. -1.
         11    1    3    3    0    0  0.19910930955E+01 -0.94138625644E+01  0.74981571563E+01  0.12198672924E+02  0.51100000000E-03 0. -1.
        -11    1    3    3    0    0 -0.69427798367E+01 -0.29921658454E+02  0.13729893454E+02  0.33645472370E+02  0.51100000000E-03 0.  1.
         12    1    3    3    0    0 -0.93432048942E+00  0.14311251474E+01 -0.92447550258E+00  0.19431234957E+01  0.00000000000E+00 0. -1.
</event>
<event>
 7    1  0.4005571E-009  0.4778727E+02  0.7816164E-02  0.1312668E+00
        -11   -1    0    0    0    0  0.00000000000E+00  0.00000000000E+00  0.45593999997E+02  0.45594000000E+02  0.51100000000E-03 0. -1.
         11   -1    0    0    0    0 -0.00000000000E+00 -0.00000000000E+00 -0.45593999997E+02  0.45594000000E+02  0.51100000000E-03 0.  1.
    9900012    2    1    2    0    0  0.33178485126E+02 -0.27153456916E+02 -0.67454571450E+01  0.47787270860E+02  0.19999999161E+02 0.  0.
         12    1    1    2    0    0 -0.33178485126E+02  0.27153456916E+02  0.67454571450E+01  0.43400729140E+02  0.00000000000E+00 0. -1.
         11    1    3    3    0    0  0.79802376208E+01 -0.10475322782E+02  0.26820448858E+01  0.13439119945E+02  0.51100000000E-03 0. -1.
        -11    1    3    3    0    0  0.17516381511E+02 -0.16915928231E+02 -0.34131687147E+01  0.24589062001E+02  0.51100000000E-03 0.  1.
         12    1    3    3    0    0  0.76818659940E+01  0.23779409751E+00 -0.60143333162E+01  0.97590889135E+01  0.00000000000E+00 0. -1.
</event>
<event>
 7    1  0.4005571E-009  0.4778726E+02  0.7816164E-02  0.1312668E+00
        -11   -1    0    0    0    0  0.00000000000E+00  0.00000000000E+00  0.45593999997E+02  0.45594000000E+02  0.51100000000E-03 0. -1.
         11   -1    0    0    0    0 -0.00000000000E+00 -0.00000000000E+00 -0.45593999997E+02  0.45594000000E+02  0.51100000000E-03 0.  1.
    9900012    2    1    2    0    0 -0.91630768322E+01 -0.35887434353E+02 -0.22621978955E+02  0.47787264369E+02  0.19999969566E+02 0.  0.
         12    1    1    2    0    0  0.91630768322E+01  0.35887434353E+02  0.22621978955E+02  0.43400735631E+02  0.00000000000E+00 0. -1.
         11    1    3    3    0    0 -0.73395719235E+01 -0.65893757825E+01 -0.10040227134E+00  0.98640392386E+01  0.51100000000E-03 0. -1.
        -11    1    3    3    0    0 -0.49506279173E+01 -0.14703077272E+02 -0.10184024040E+02  0.18558112618E+02  0.51100000000E-03 0.  1.
        -12    1    3    3    0    0  0.31271230085E+01 -0.14594981299E+02 -0.12337552643E+02  0.19365112513E+02  0.00000000000E+00 0.  1.
</event>
<event>
 7    1  0.4005571E-009  0.4778727E+02  0.7816164E-02  0.1312668E+00
        -11   -1    0    0    0    0  0.00000000000E+00  0.00000000000E+00  0.45593999997E+02  0.45594000000E+02  0.51100000000E-03 0. -1.
         11   -1    0    0    0    0 -0.00000000000E+00 -0.00000000000E+00 -0.45593999997E+02  0.45594000000E+02  0.51100000000E-03 0.  1.
    9900012    2    1    2    0    0 -0.15168633279E+02  0.33204934526E+02 -0.23472711286E+02  0.47787270887E+02  0.19999999282E+02 0.  0.
         12    1    1    2    0    0  0.15168633279E+02 -0.33204934526E+02  0.23472711286E+02  0.43400729113E+02  0.00000000000E+00 0. -1.
         11    1    3    3    0    0  0.21759916740E+01  0.10127778669E+02 -0.12742649401E+02  0.16421996059E+02  0.51100000000E-03 0. -1.
        -11    1    3    3    0    0 -0.25986363337E+01  0.74668186718E+01 -0.17988051170E+01  0.81081435596E+01  0.51100000000E-03 0.  1.
        -12    1    3    3    0    0 -0.14745988619E+02  0.15610337185E+02 -0.89312567683E+01  0.23257131269E+02  0.00000000000E+00 0.  1.
</event>
<event>
 7    1  0.4005571E-009  0.4778728E+02  0.7816164E-02  0.1312668E+00
        -11   -1    0    0    0    0  0.00000000000E+00  0.00000000000E+00  0.45593999997E+02  0.45594000000E+02  0.51100000000E-03 0.  1.
         11   -1    0    0    0    0 -0.00000000000E+00 -0.00000000000E+00 -0.45593999997E+02  0.45594000000E+02  0.51100000000E-03 0. -1.
    9900012    2    1    2    0    0  0.13477934830E+02 -0.12870437465E+02  0.39195907880E+02  0.47787284772E+02  0.20000062588E+02 0.  0.
         12    1    1    2    0    0 -0.13477934830E+02  0.12870437465E+02 -0.39195907880E+02  0.43400715228E+02  0.00000000000E+00 0. -1.
         11    1    3    3    0    0 -0.23751160276E+01 -0.98277430418E+00 -0.13290924225E+00  0.25738466554E+01  0.51100000000E-03 0. -1.
        -11    1    3    3    0    0  0.70071860625E+01 -0.53982648838E+01  0.28328638547E+02  0.29677494545E+02  0.51100000000E-03 0.  1.
        -12    1    3    3    0    0  0.88458647954E+01 -0.64893982769E+01  0.11000178574E+02  0.15535943571E+02  0.00000000000E+00 0.  1.
</event>
<event>
 7    1  0.4005571E-009  0.4778727E+02  0.7816164E-02  0.1312668E+00
        -11   -1    0    0    0    0  0.00000000000E+00  0.00000000000E+00  0.45593999997E+02  0.45594000000E+02  0.51100000000E-03 0. -1.
         11   -1    0    0    0    0 -0.00000000000E+00 -0.00000000000E+00 -0.45593999997E+02  0.45594000000E+02  0.51100000000E-03 0.  1.
    9900012    2    1    2    0    0 -0.18184557276E+02  0.34013636099E+02 -0.19900191265E+02  0.47787272168E+02  0.20000005122E+02 0.  0.
         12    1    1    2    0    0  0.18184557276E+02 -0.34013636099E+02  0.19900191265E+02  0.43400727832E+02  0.00000000000E+00 0. -1.
         11    1    3    3    0    0 -0.52237853499E+01  0.46758602707E+01 -0.55549359403E+00  0.70327929052E+01  0.51100000000E-03 0. -1.
        -11    1    3    3    0    0 -0.16236446534E+02  0.25775915248E+02 -0.19000420637E+02  0.35903147321E+02  0.51100000000E-03 0.  1.
         12    1    3    3    0    0  0.32756746078E+01  0.35618605805E+01 -0.34427703356E+00  0.48513319415E+01  0.00000000000E+00 0. -1.
</event>
<event>
 7    1  0.4005571E-009  0.4778727E+02  0.7816164E-02  0.1312668E+00
        -11   -1    0    0    0    0  0.00000000000E+00  0.00000000000E+00  0.45593999997E+02  0.45594000000E+02  0.51100000000E-03 0. -1.
         11   -1    0    0    0    0 -0.00000000000E+00 -0.00000000000E+00 -0.45593999997E+02  0.45594000000E+02  0.51100000000E-03 0.  1.
    9900012    2    1    2    0    0  0.17526836207E+01  0.43249431120E+02  0.31683022450E+01  0.47787270384E+02  0.19999996989E+02 0.  0.
         12    1    1    2    0    0 -0.17526836207E+01 -0.43249431120E+02 -0.31683022450E+01  0.43400729616E+02  0.00000000000E+00 0. -1.
         11    1    3    3    0    0 -0.11156445353E+01  0.13562576974E+02  0.14324266908E+01  0.13683566910E+02  0.51100000000E-03 0. -1.
        -11    1    3    3    0    0 -0.39890101072E+00  0.18886634236E+02 -0.66693896381E+01  0.20033592618E+02  0.51100000000E-03 0.  1.
         12    1    3    3    0    0  0.32672291667E+01  0.10800219910E+02  0.84052651923E+01  0.14070110856E+02  0.00000000000E+00 0. -1.
</event>
<event>
 7    1  0.4005571E-009  0.4778726E+02  0.7816164E-02  0.1312668E+00
        -11   -1    0    0    0    0  0.00000000000E+00  0.00000000000E+00  0.45593999997E+02  0.45594000000E+02  0.51100000000E-03 0.  1.
         11   -1    0    0    0    0 -0.00000000000E+00 -0.00000000000E+00 -0.45593999997E+02  0.45594000000E+02  0.51100000000E-03 0. -1.
    9900012    2    1    2    0    0  0.30258885630E+02  0.24448434380E+02  0.19243134002E+02  0.47787259114E+02  0.19999945604E+02 0.  0.
         12    1    1    2    0    0 -0.30258885630E+02 -0.24448434380E+02 -0.19243134002E+02  0.43400740886E+02  0.00000000000E+00 0. -1.
         11    1    3    3    0    0  0.15245211556E+01  0.13254750138E+01  0.47684311533E+01  0.51787049241E+01  0.51100000000E-03 0. -1.
        -11    1    3    3    0    0  0.14362876694E+02  0.42677539933E+01  0.11132172754E+02  0.18666312479E+02  0.51100000000E-03 0.  1.
         12    1    3    3    0    0  0.14371487780E+02  0.18855205373E+02  0.33425300945E+01  0.23942241710E+02  0.00000000000E+00 0. -1.
</event>
<event>
 7    1  0.4005571E-009  0.4778727E+02  0.7816164E-02  0.1312668E+00
        -11   -1    0    0    0    0  0.00000000000E+00  0.00000000000E+00  0.45593999997E+02  0.45594000000E+02  0.51100000000E-03 0. -1.
         11   -1    0    0    0    0 -0.00000000000E+00 -0.00000000000E+00 -0.45593999997E+02  0.45594000000E+02  0.51100000000E-03 0.  1.
    9900012    2    1    2    0    0 -0.10047733055E+02  0.27356521176E+02 -0.32160338434E+02  0.47787267765E+02  0.19999985046E+02 0.  0.
         12    1    1    2    0    0  0.10047733055E+02 -0.27356521176E+02  0.32160338434E+02  0.43400732235E+02  0.00000000000E+00 0. -1.
         11    1    3    3    0    0 -0.10493251314E+01 -0.13124880940E+01 -0.60246265090E+00  0.17851245713E+01  0.51100000000E-03 0. -1.
        -11    1    3    3    0    0  0.12883765317E+00 -0.21077101776E+00  0.12948796954E+01  0.13182326235E+01  0.51100000000E-03 0.  1.
        -12    1    3    3    0    0 -0.91272455766E+01  0.28879780288E+02 -0.32852755478E+02  0.44683910570E+02  0.00000000000E+00 0.  1.
</event>
<event>
 7    1  0.4005571E-009  0.4778727E+02  0.7816164E-02  0.1312668E+00
        -11   -1    0    0    0    0  0.00000000000E+00  0.00000000000E+00  0.45593999997E+02  0.45594000000E+02  0.51100000000E-03 0.  1.
         11   -1    0    0    0    0 -0.00000000000E+00 -0.00000000000E+00 -0.45593999997E+02  0.45594000000E+02  0.51100000000E-03 0. -1.
    9900012    2    1    2    0    0 -0.49776980562E+01  0.33105173918E+02  0.27620520452E+02  0.47787272263E+02  0.20000005556E+02 0.  0.
         12    1    1    2    0    0  0.49776980562E+01 -0.33105173918E+02 -0.27620520452E+02  0.43400727737E+02  0.00000000000E+00 0. -1.
         11    1    3    3    0    0 -0.71698295578E+00  0.95102651706E+01  0.13848142948E+02  0.16814585084E+02  0.51100000000E-03 0. -1.
        -11    1    3    3    0    0  0.24588096294E+01  0.19520985913E+02  0.11513627323E+02  0.22796452579E+02  0.51100000000E-03 0.  1.
        -12    1    3    3    0    0 -0.67195247298E+01  0.40739228348E+01  0.22587501802E+01  0.81762346000E+01  0.00000000000E+00 0.  1.
</event>
<event>
 7    1  0.4005571E-009  0.4778727E+02  0.7816164E-02  0.1312668E+00
        -11   -1    0    0    0    0  0.00000000000E+00  0.00000000000E+00  0.45593999997E+02  0.45594000000E+02  0.51100000000E-03 0. -1.
         11   -1    0    0    0    0 -0.00000000000E+00 -0.00000000000E+00 -0.45593999997E+02  0.45594000000E+02  0.51100000000E-03 0.  1.
    9900012    2    1    2    0    0  0.29967028171E+02 -0.28673716582E+02  0.12783540674E+02  0.47787265995E+02  0.19999976978E+02 0.  0.
         12    1    1    2    0    0 -0.29967028171E+02  0.28673716582E+02 -0.12783540674E+02  0.43400734005E+02  0.00000000000E+00 0. -1.
         11    1    3    3    0    0  0.16063910306E+02 -0.92015149106E+01  0.55044845792E+01  0.19313633571E+02  0.51100000000E-03 0. -1.
        -11    1    3    3    0    0  0.14926527733E+02 -0.16585224162E+02  0.99299181506E+01  0.24422820587E+02  0.51100000000E-03 0.  1.
        -12    1    3    3    0    0 -0.10234098686E+01 -0.28869775093E+01 -0.26508620563E+01  0.40508118371E+01  0.00000000000E+00 0.  1.
</event>
<event>
 7    1  0.4005571E-009  0.4778727E+02  0.7816164E-02  0.1312668E+00
        -11   -1    0    0    0    0  0.00000000000E+00  0.00000000000E+00  0.45593999997E+02  0.45594000000E+02  0.51100000000E-03 0. -1.
         11   -1    0    0    0    0 -0.00000000000E+00 -0.00000000000E+00 -0.45593999997E+02  0.45594000000E+02  0.51100000000E-03 0.  1.
    9900012    2    1    2    0    0 -0.47478434859E+01 -0.42789367236E+02 -0.54910272639E+01  0.47787270206E+02  0.19999996179E+02 0.  0.
         12    1    1    2    0    0  0.47478434859E+01  0.42789367236E+02  0.54910272639E+01  0.43400729794E+02  0.00000000000E+00 0. -1.
         11    1    3    3    0    0 -0.62729444456E+00 -0.26308315757E+01  0.27572168545E+01  0.38622555772E+01  0.51100000000E-03 0. -1.
        -11    1    3    3    0    0  0.21644916907E+01 -0.13121804002E+01 -0.34545426800E+01  0.42826051733E+01  0.51100000000E-03 0.  1.
        -12    1    3    3    0    0 -0.62850407320E+01 -0.38846355260E+02 -0.47937014384E+01  0.39642409456E+02  0.00000000000E+00 0.  1.
</event>
<event>
 7    1  0.4005571E-009  0.4778728E+02  0.7816164E-02  0.1312668E+00
        -11   -1    0    0    0    0  0.00000000000E+00  0.00000000000E+00  0.45593999997E+02  0.45594000000E+02  0.51100000000E-03 0.  1.
         11   -1    0    0    0    0 -0.00000000000E+00 -0.00000000000E+00 -0.45593999997E+02  0.45594000000E+02  0.51100000000E-03 0. -1.
    9900012    2    1    2    0    0  0.18832370724E+02  0.35901549968E+02  0.15493335024E+02  0.47787275266E+02  0.20000019249E+02 0.  0.
         12    1    1    2    0    0 -0.18832370724E+02 -0.35901549968E+02 -0.15493335024E+02  0.43400724734E+02  0.00000000000E+00 0. -1.
         11    1    3    3    0    0 -0.19965740316E+01  0.36752376621E+01  0.71836012867E-01  0.41831615329E+01  0.51100000000E-03 0. -1.
        -11    1    3    3    0    0  0.51119703826E+01  0.70219251904E+01  0.10281902251E+02  0.13459464653E+02  0.51100000000E-03 0.  1.
        -12    1    3    3    0    0  0.15716974374E+02  0.25204387116E+02  0.51395967606E+01  0.30144649081E+02  0.00000000000E+00 0.  1.
</event>
<event>
 7    1  0.4005571E-009  0.4778727E+02  0.7816164E-02  0.1312668E+00
        -11   -1    0    0    0    0  0.00000000000E+00  0.00000000000E+00  0.45593999997E+02  0.45594000000E+02  0.51100000000E-03 0.  1.
         11   -1    0    0    0    0 -0.00000000000E+00 -0.00000000000E+00 -0.45593999997E+02  0.45594000000E+02  0.51100000000E-03 0. -1.
    9900012    2    1    2    0    0 -0.27457244124E+02  0.19424310485E+02  0.27430260170E+02  0.47787271139E+02  0.20000000429E+02 0.  0.
         12    1    1    2    0    0  0.27457244124E+02 -0.19424310485E+02 -0.27430260170E+02  0.43400728861E+02  0.00000000000E+00 0. -1.
         11    1    3    3    0    0 -0.77728020829E+01  0.44344077819E+01  0.20197920617E+00  0.89510457745E+01  0.51100000000E-03 0. -1.
        -11    1    3    3    0    0 -0.18217107582E+02  0.10152297055E+02  0.15253104099E+02  0.25837750078E+02  0.51100000000E-03 0.  1.
        -12    1    3    3    0    0 -0.14673344583E+01  0.48376056482E+01  0.11975176865E+02  0.12998475286E+02  0.00000000000E+00 0.  1.
</event>
<event>
 7    1  0.4005571E-009  0.4778725E+02  0.7816164E-02  0.1312668E+00
        -11   -1    0    0    0    0  0.00000000000E+00  0.00000000000E+00  0.45593999997E+02  0.45594000000E+02  0.51100000000E-03 0. -1.
         11   -1    0    0    0    0 -0.00000000000E+00 -0.00000000000E+00 -0.45593999997E+02  0.45594000000E+02  0.51100000000E-03 0.  1.
    9900012    2    1    2    0    0  0.10922297157E+02  0.41979264610E+02  0.14386366285E+01  0.47787252221E+02  0.19999914177E+02 0.  0.
         12    1    1    2    0    0 -0.10922297157E+02 -0.41979264610E+02 -0.14386366285E+01  0.43400747779E+02  0.00000000000E+00 0. -1.
         11    1    3    3    0    0  0.34993937789E+01  0.10847125602E+02  0.84207503323E+01  0.14170918357E+02  0.51100000000E-03 0. -1.
        -11    1    3    3    0    0  0.10267697800E+01  0.95416562301E+00 -0.18860876697E+01  0.23498968437E+01  0.51100000000E-03 0.  1.
        -12    1    3    3    0    0  0.63961335980E+01  0.30177973385E+02 -0.50960260342E+01  0.31266437021E+02  0.00000000000E+00 0.  1.
</event>
<event>
 7    1  0.4005571E-009  0.4778727E+02  0.7816164E-02  0.1312668E+00
        -11   -1    0    0    0    0  0.00000000000E+00  0.00000000000E+00  0.45593999997E+02  0.45594000000E+02  0.51100000000E-03 0.  1.
         11   -1    0    0    0    0 -0.00000000000E+00 -0.00000000000E+00 -0.45593999997E+02  0.45594000000E+02  0.51100000000E-03 0. -1.
    9900012    2    1    2    0    0 -0.81544430018E+01 -0.28640782657E+02  0.31572677605E+02  0.47787270248E+02  0.19999996370E+02 0.  0.
         12    1    1    2    0    0  0.81544430018E+01  0.28640782657E+02 -0.31572677605E+02  0.43400729752E+02  0.00000000000E+00 0. -1.
         11    1    3    3    0    0 -0.36194450709E+01 -0.64876571842E+00  0.85718767945E+00  0.37757185485E+01  0.51100000000E-03 0. -1.
        -11    1    3    3    0    0  0.18881957694E+01 -0.46243824463E+01  0.13190369223E+02  0.14104468681E+02  0.51100000000E-03 0.  1.
         12    1    3    3    0    0 -0.64231937003E+01 -0.23367634492E+02  0.17525120702E+02  0.29907083019E+02  0.00000000000E+00 0. -1.
</event>
<event>
 7    1  0.4005571E-009  0.4778727E+02  0.7816164E-02  0.1312668E+00
        -11   -1    0    0    0    0  0.00000000000E+00  0.00000000000E+00  0.45593999997E+02  0.45594000000E+02  0.51100000000E-03 0. -1.
         11   -1    0    0    0    0 -0.00000000000E+00 -0.00000000000E+00 -0.45593999997E+02  0.45594000000E+02  0.51100000000E-03 0.  1.
    9900012    2    1    2    0    0  0.38642303119E+02  0.97999484883E+01 -0.17156817605E+02  0.47787274533E+02  0.20000015907E+02 0.  0.
         12    1    1    2    0    0 -0.38642303119E+02 -0.97999484883E+01  0.17156817605E+02  0.43400725467E+02  0.00000000000E+00 0. -1.
         11    1    3    3    0    0  0.58189513533E+01 -0.19304515366E+01  0.66371641382E-01  0.61311698267E+01  0.51100000000E-03 0. -1.
        -11    1    3    3    0    0  0.17964865915E+02 -0.51799093860E+00 -0.12307237125E+02  0.21782396743E+02  0.51100000000E-03 0.  1.
        -12    1    3    3    0    0  0.14858485851E+02  0.12248390963E+02 -0.49159521211E+01  0.19873707964E+02  0.00000000000E+00 0.  1.
</event>
<event>
 7    1  0.4005571E-009  0.4778728E+02  0.7816164E-02  0.1312668E+00
        -11   -1    0    0    0    0  0.00000000000E+00  0.00000000000E+00  0.45593999997E+02  0.45594000000E+02  0.51100000000E-03 0.  1.
         11   -1    0    0    0    0 -0.00000000000E+00 -0.00000000000E+00 -0.45593999997E+02  0.45594000000E+02  0.51100000000E-03 0. -1.
    9900012    2    1    2    0    0 -0.96571958472E+01  0.41413622017E+02 -0.86760145247E+01  0.47787277100E+02  0.20000027611E+02 0.  0.
         12    1    1    2    0    0  0.96571958472E+01 -0.41413622017E+02  0.86760145247E+01  0.43400722900E+02  0.00000000000E+00 0. -1.
         11    1    3    3    0    0 -0.55060650231E+01  0.94460293281E+01  0.31616207300E+00  0.10938198244E+02  0.51100000000E-03 0. -1.
        -11    1    3    3    0    0 -0.92308690824E+01  0.18037785593E+02 -0.17222716490E+01  0.20335606040E+02  0.51100000000E-03 0.  1.
         12    1    3    3    0    0  0.50797382583E+01  0.13929807095E+02 -0.72699049487E+01  0.16513472816E+02  0.00000000000E+00 0. -1.
</event>
<event>
 7    1  0.4005571E-009  0.4778727E+02  0.7816164E-02  0.1312668E+00
        -11   -1    0    0    0    0  0.00000000000E+00  0.00000000000E+00  0.45593999997E+02  0.45594000000E+02  0.51100000000E-03 0.  1.
         11   -1    0    0    0    0 -0.00000000000E+00 -0.00000000000E+00 -0.45593999997E+02  0.45594000000E+02  0.51100000000E-03 0. -1.
    9900012    2    1    2    0    0  0.26890497002E+02 -0.31416039376E+02  0.13174101675E+02  0.47787270582E+02  0.19999997891E+02 0.  0.
         12    1    1    2    0    0 -0.26890497002E+02  0.31416039376E+02 -0.13174101675E+02  0.43400729418E+02  0.00000000000E+00 0. -1.
         11    1    3    3    0    0  0.11628294619E+02 -0.52830602857E+01  0.36652764280E+01  0.13287671477E+02  0.51100000000E-03 0. -1.
        -11    1    3    3    0    0  0.13464832295E+02 -0.18271934151E+02  0.91622279922E+00  0.22715737955E+02  0.51100000000E-03 0.  1.
        -12    1    3    3    0    0  0.17973700874E+01 -0.78610449388E+01  0.85926024481E+01  0.11783861150E+02  0.00000000000E+00 0.  1.
</event>
<event>
 7    1  0.4005571E-009  0.4778727E+02  0.7816164E-02  0.1312668E+00
        -11   -1    0    0    0    0  0.00000000000E+00  0.00000000000E+00  0.45593999997E+02  0.45594000000E+02  0.51100000000E-03 0.  1.
         11   -1    0    0    0    0 -0.00000000000E+00 -0.00000000000E+00 -0.45593999997E+02  0.45594000000E+02  0.51100000000E-03 0. -1.
    9900012    2    1    2    0    0  0.24885502761E+02 -0.33296993419E+02  0.12475794448E+02  0.47787268836E+02  0.19999989932E+02 0.  0.
         12    1    1    2    0    0 -0.24885502761E+02  0.33296993419E+02 -0.12475794448E+02  0.43400731164E+02  0.00000000000E+00 0. -1.
         11    1    3    3    0    0  0.14383646714E+02 -0.31114203208E+02  0.49437742570E+01  0.34632698974E+02  0.51100000000E-03 0.  1.
        -11    1    3    3    0    0  0.25534607049E+01 -0.63855375570E+00  0.12921438441E+01  0.29321576433E+01  0.51100000000E-03 0. -1.
         12    1    3    3    0    0  0.79483953418E+01 -0.15442364555E+01  0.62398763471E+01  0.10222412219E+02  0.00000000000E+00 0. -1.
</event>
<event>
 7    1  0.4005571E-009  0.4778727E+02  0.7816164E-02  0.1312668E+00
        -11   -1    0    0    0    0  0.00000000000E+00  0.00000000000E+00  0.45593999997E+02  0.45594000000E+02  0.51100000000E-03 0.  1.
         11   -1    0    0    0    0 -0.00000000000E+00 -0.00000000000E+00 -0.45593999997E+02  0.45594000000E+02  0.51100000000E-03 0. -1.
    9900012    2    1    2    0    0 -0.32373968003E+02  0.85767460955E+01  0.27604147077E+02  0.47787270585E+02  0.19999997907E+02 0.  0.
         12    1    1    2    0    0  0.32373968003E+02 -0.85767460955E+01 -0.27604147077E+02  0.43400729415E+02  0.00000000000E+00 0. -1.
         11    1    3    3    0    0  0.11142736480E+01 -0.14613564265E+01  0.47730612961E+01  0.51146146253E+01  0.51100000000E-03 0. -1.
        -11    1    3    3    0    0  0.25256904797E+00  0.28335282000E+00  0.15721637046E+01  0.16173369840E+01  0.51100000000E-03 0.  1.
        -12    1    3    3    0    0 -0.33740810699E+02  0.97547497020E+01  0.21258922076E+02  0.41055318976E+02  0.00000000000E+00 0.  1.
</event>
<event>
 7    1  0.4005571E-009  0.4778727E+02  0.7816164E-02  0.1312668E+00
        -11   -1    0    0    0    0  0.00000000000E+00  0.00000000000E+00  0.45593999997E+02  0.45594000000E+02  0.51100000000E-03 0.  1.
         11   -1    0    0    0    0 -0.00000000000E+00 -0.00000000000E+00 -0.45593999997E+02  0.45594000000E+02  0.51100000000E-03 0. -1.
    9900012    2    1    2    0    0 -0.42856055751E+02 -0.68359357039E+01 -0.50180242143E+00  0.47787270316E+02  0.19999996678E+02 0.  0.
         12    1    1    2    0    0  0.42856055751E+02  0.68359357039E+01  0.50180242143E+00  0.43400729684E+02  0.00000000000E+00 0. -1.
         11    1    3    3    0    0 -0.15317065644E+01 -0.17469725132E+00  0.25265248572E+01  0.29597250285E+01  0.51100000000E-03 0. -1.
        -11    1    3    3    0    0 -0.84452056426E+01  0.21636241471E+01  0.47205071768E+01  0.99139273783E+01  0.51100000000E-03 0.  1.
        -12    1    3    3    0    0 -0.32879143544E+02 -0.88248625996E+01 -0.77488344555E+01  0.34913617909E+02  0.00000000000E+00 0.  1.
</event>
<event>
 7    1  0.4005571E-009  0.4778727E+02  0.7816164E-02  0.1312668E+00
        -11   -1    0    0    0    0  0.00000000000E+00  0.00000000000E+00  0.45593999997E+02  0.45594000000E+02  0.51100000000E-03 0. -1.
         11   -1    0    0    0    0 -0.00000000000E+00 -0.00000000000E+00 -0.45593999997E+02  0.45594000000E+02  0.51100000000E-03 0.  1.
    9900012    2    1    2    0    0  0.33619365230E+02 -0.20595330080E+02  0.18143705183E+02  0.47787269852E+02  0.19999994565E+02 0.  0.
         12    1    1    2    0    0 -0.33619365230E+02  0.20595330080E+02 -0.18143705183E+02  0.43400730148E+02  0.00000000000E+00 0. -1.
         11    1    3    3    0    0 -0.17319963371E+01 -0.80721621848E+00 -0.46268551374E-01  0.19114262673E+01  0.51100000000E-03 0. -1.
        -11    1    3    3    0    0  0.35745853189E+01 -0.68308272377E+01  0.22061162052E+01  0.80190279913E+01  0.51100000000E-03 0.  1.
        -12    1    3    3    0    0  0.31776776249E+02 -0.12957286623E+02  0.15983857529E+02  0.37856815594E+02  0.00000000000E+00 0.  1.
</event>
<event>
 7    1  0.4005571E-009  0.4778726E+02  0.7816164E-02  0.1312668E+00
        -11   -1    0    0    0    0  0.00000000000E+00  0.00000000000E+00  0.45593999997E+02  0.45594000000E+02  0.51100000000E-03 0.  1.
         11   -1    0    0    0    0 -0.00000000000E+00 -0.00000000000E+00 -0.45593999997E+02  0.45594000000E+02  0.51100000000E-03 0. -1.
    9900012    2    1    2    0    0 -0.21223927288E+02  0.32875556150E+02  0.18771447385E+02  0.47787256704E+02  0.19999934616E+02 0.  0.
         12    1    1    2    0    0  0.21223927288E+02 -0.32875556150E+02 -0.18771447385E+02  0.43400743296E+02  0.00000000000E+00 0. -1.
         11    1    3    3    0    0 -0.64865586128E+01  0.99735938483E+01  0.62334080657E+01  0.13431433031E+02  0.51100000000E-03 0. -1.
        -11    1    3    3    0    0 -0.16191338936E+02  0.24007148134E+02  0.89144699601E+01  0.30298026223E+02  0.51100000000E-03 0.  1.
         12    1    3    3    0    0  0.14539702612E+01 -0.11051858324E+01  0.36235693588E+01  0.40577974497E+01  0.00000000000E+00 0. -1.
</event>
<event>
 7    1  0.4005571E-009  0.4778727E+02  0.7816164E-02  0.1312668E+00
        -11   -1    0    0    0    0  0.00000000000E+00  0.00000000000E+00  0.45593999997E+02  0.45594000000E+02  0.51100000000E-03 0. -1.
         11   -1    0    0    0    0 -0.00000000000E+00 -0.00000000000E+00 -0.45593999997E+02  0.45594000000E+02  0.51100000000E-03 0.  1.
    9900012    2    1    2    0    0  0.27669872935E+02 -0.32743333832E+02 -0.67731344221E+01  0.47787272719E+02  0.20000007634E+02 0.  0.
         12    1    1    2    0    0 -0.27669872935E+02  0.32743333832E+02  0.67731344221E+01  0.43400727281E+02  0.00000000000E+00 0. -1.
         11    1    3    3    0    0 -0.20542737443E+00 -0.11513589533E+02 -0.12660512525E+01  0.11584810330E+02  0.51100000000E-03 0. -1.
        -11    1    3    3    0    0 -0.37672928037E+00 -0.79349005215E+00 -0.38746693600E+00  0.96004286423E+00  0.51100000000E-03 0.  1.
        -12    1    3    3    0    0  0.28252029590E+02 -0.20436254246E+02 -0.51196162336E+01  0.35242419524E+02  0.00000000000E+00 0.  1.
</event>
<event>
 7    1  0.4005571E-009  0.4778727E+02  0.7816164E-02  0.1312668E+00
        -11   -1    0    0    0    0  0.00000000000E+00  0.00000000000E+00  0.45593999997E+02  0.45594000000E+02  0.51100000000E-03 0.  1.
         11   -1    0    0    0    0 -0.00000000000E+00 -0.00000000000E+00 -0.45593999997E+02  0.45594000000E+02  0.51100000000E-03 0. -1.
    9900012    2    1    2    0    0 -0.38876577930E+02 -0.17747692631E+02 -0.75666567073E+01  0.47787271907E+02  0.20000003931E+02 0.  0.
         12    1    1    2    0    0  0.38876577930E+02  0.17747692631E+02  0.75666567073E+01  0.43400728093E+02  0.00000000000E+00 0. -1.
         11    1    3    3    0    0 -0.41362265480E+01 -0.54056734254E+01 -0.45825679740E+01  0.82054618844E+01  0.51100000000E-03 0. -1.
        -11    1    3    3    0    0 -0.76622911148E+01 -0.90761143293E+01 -0.32192054554E+01  0.12306495865E+02  0.51100000000E-03 0.  1.
         12    1    3    3    0    0 -0.27078060267E+02 -0.32659048766E+01  0.23511672214E+00  0.27275314157E+02  0.00000000000E+00 0. -1.
</event>
<event>
 7    1  0.4005571E-009  0.4778729E+02  0.7816164E-02  0.1312668E+00
        -11   -1    0    0    0    0  0.00000000000E+00  0.00000000000E+00  0.45593999997E+02  0.45594000000E+02  0.51100000000E-03 0.  1.
         11   -1    0    0    0    0 -0.00000000000E+00 -0.00000000000E+00 -0.45593999997E+02  0.45594000000E+02  0.51100000000E-03 0. -1.
    9900012    2    1    2    0    0  0.29658023249E+02 -0.21223074083E+02  0.23528808592E+02  0.47787285140E+02  0.20000064269E+02 0.  0.
         12    1    1    2    0    0 -0.29658023249E+02  0.21223074083E+02 -0.23528808592E+02  0.43400714860E+02  0.00000000000E+00 0. -1.
         11    1    3    3    0    0  0.49924284438E+01 -0.32600674947E+01  0.54141721020E+01  0.80539208866E+01  0.51100000000E-03 0. -1.
        -11    1    3    3    0    0  0.24073723712E+02 -0.12529809991E+02  0.20254319138E+02  0.33864107190E+02  0.51100000000E-03 0.  1.
         12    1    3    3    0    0  0.59187109355E+00 -0.54331965971E+01 -0.21396826474E+01  0.58692570642E+01  0.00000000000E+00 0. -1.
</event>
<event>
 7    1  0.4005571E-009  0.4778727E+02  0.7816164E-02  0.1312668E+00
        -11   -1    0    0    0    0  0.00000000000E+00  0.00000000000E+00  0.45593999997E+02  0.45594000000E+02  0.51100000000E-03 0.  1.
         11   -1    0    0    0    0 -0.00000000000E+00 -0.00000000000E+00 -0.45593999997E+02  0.45594000000E+02  0.51100000000E-03 0. -1.
    9900012    2    1    2    0    0  0.17032276821E+02 -0.36507158428E+02  0.16147832076E+02  0.47787267852E+02  0.19999985446E+02 0.  0.
         12    1    1    2    0    0 -0.17032276821E+02  0.36507158428E+02 -0.16147832076E+02  0.43400732148E+02  0.00000000000E+00 0. -1.
         11    1    3    3    0    0  0.20791899041E+01  0.65253318696E+00 -0.10035913807E+01  0.23991719692E+01  0.51100000000E-03 0. -1.
        -11    1    3    3    0    0  0.21112066743E+01 -0.10009524231E+02  0.10433576214E+02  0.14611888373E+02  0.51100000000E-03 0.  1.
         12    1    3    3    0    0  0.12841880242E+02 -0.27150167384E+02  0.67178472431E+01  0.30776207510E+02  0.00000000000E+00 0. -1.
</event>
<event>
 7    1  0.4005571E-009  0.4778727E+02  0.7816164E-02  0.1312668E+00
        -11   -1    0    0    0    0  0.00000000000E+00  0.00000000000E+00  0.45593999997E+02  0.45594000000E+02  0.51100000000E-03 0. -1.
         11   -1    0    0    0    0 -0.00000000000E+00 -0.00000000000E+00 -0.45593999997E+02  0.45594000000E+02  0.51100000000E-03 0.  1.
    9900012    2    1    2    0    0 -0.24897079891E+02 -0.15089197064E+02 -0.32188113688E+02  0.47787272842E+02  0.20000008194E+02 0.  0.
         12    1    1    2    0    0  0.24897079891E+02  0.15089197064E+02  0.32188113688E+02  0.43400727158E+02  0.00000000000E+00 0. -1.
         11    1    3    3    0    0 -0.23554329894E+01 -0.70601347447E+01 -0.82966102148E+01  0.11145730505E+02  0.51100000000E-03 0. -1.
        -11    1    3    3    0    0  0.19724550725E+01 -0.31587378148E+00 -0.25314483240E+01  0.32246838817E+01  0.51100000000E-03 0.  1.
         12    1    3    3    0    0 -0.24514101974E+02 -0.77131885374E+01 -0.21360055149E+02  0.33416858454E+02  0.00000000000E+00 0. -1.
</event>
<event>
 7    1  0.4005571E-009  0.4778727E+02  0.7816164E-02  0.1312668E+00
        -11   -1    0    0    0    0  0.00000000000E+00  0.00000000000E+00  0.45593999997E+02  0.45594000000E+02  0.51100000000E-03 0. -1.
         11   -1    0    0    0    0 -0.00000000000E+00 -0.00000000000E+00 -0.45593999997E+02  0.45594000000E+02  0.51100000000E-03 0.  1.
    9900012    2    1    2    0    0  0.71460873759E+01  0.15478924571E+02 -0.39911901009E+02  0.47787268291E+02  0.19999987447E+02 0.  0.
         12    1    1    2    0    0 -0.71460873759E+01 -0.15478924571E+02  0.39911901009E+02  0.43400731709E+02  0.00000000000E+00 0. -1.
         11    1    3    3    0    0  0.35220865174E+01  0.22619656333E+01 -0.16901177879E+02  0.17411817709E+02  0.51100000000E-03 0. -1.
        -11    1    3    3    0    0  0.26193304586E+01 -0.25879041126E+01 -0.24502645524E+01  0.44228877880E+01  0.51100000000E-03 0.  1.
         12    1    3    3    0    0  0.10046703998E+01  0.15804863051E+02 -0.20560458578E+02  0.25952562795E+02  0.00000000000E+00 0. -1.
</event>
<event>
 7    1  0.4005571E-009  0.4778723E+02  0.7816164E-02  0.1312668E+00
        -11   -1    0    0    0    0  0.00000000000E+00  0.00000000000E+00  0.45593999997E+02  0.45594000000E+02  0.51100000000E-03 0.  1.
         11   -1    0    0    0    0 -0.00000000000E+00 -0.00000000000E+00 -0.45593999997E+02  0.45594000000E+02  0.51100000000E-03 0. -1.
    9900012    2    1    2    0    0  0.30276495850E+02 -0.14662936782E+02 -0.27421872008E+02  0.47787228343E+02  0.19999805304E+02 0.  0.
         12    1    1    2    0    0 -0.30276495850E+02  0.14662936782E+02  0.27421872008E+02  0.43400771657E+02  0.00000000000E+00 0. -1.
         11    1    3    3    0    0 -0.11382355583E+01  0.12690808807E+00 -0.34665472934E+01  0.36508404851E+01  0.51100000000E-03 0. -1.
        -11    1    3    3    0    0 -0.12203156650E+00 -0.34606328652E+01 -0.13603365822E+01  0.37204015118E+01  0.51100000000E-03 0.  1.
        -12    1    3    3    0    0  0.31536762975E+02 -0.11329212005E+02 -0.22594988133E+02  0.40415986346E+02  0.00000000000E+00 0.  1.
</event>
<event>
 7    1  0.4005571E-009  0.4778727E+02  0.7816164E-02  0.1312668E+00
        -11   -1    0    0    0    0  0.00000000000E+00  0.00000000000E+00  0.45593999997E+02  0.45594000000E+02  0.51100000000E-03 0.  1.
         11   -1    0    0    0    0 -0.00000000000E+00 -0.00000000000E+00 -0.45593999997E+02  0.45594000000E+02  0.51100000000E-03 0. -1.
    9900012    2    1    2    0    0 -0.31748986150E+02  0.82264685628E+01  0.28424466930E+02  0.47787271587E+02  0.20000002472E+02 0.  0.
         12    1    1    2    0    0  0.31748986150E+02 -0.82264685628E+01 -0.28424466930E+02  0.43400728413E+02  0.00000000000E+00 0. -1.
         11    1    3    3    0    0 -0.34487125180E+01  0.50869857805E+01  0.63966585932E+00  0.61790140828E+01  0.51100000000E-03 0. -1.
        -11    1    3    3    0    0 -0.16574661864E+02  0.78423629711E+01  0.16674606203E+02  0.24784361302E+02  0.51100000000E-03 0.  1.
        -12    1    3    3    0    0 -0.11725611768E+02 -0.47028801888E+01  0.11110194868E+02  0.16823896201E+02  0.00000000000E+00 0.  1.
</event>
<event>
 7    1  0.4005571E-009  0.4778727E+02  0.7816164E-02  0.1312668E+00
        -11   -1    0    0    0    0  0.00000000000E+00  0.00000000000E+00  0.45593999997E+02  0.45594000000E+02  0.51100000000E-03 0.  1.
         11   -1    0    0    0    0 -0.00000000000E+00 -0.00000000000E+00 -0.45593999997E+02  0.45594000000E+02  0.51100000000E-03 0. -1.
    9900012    2    1    2    0    0  0.35294785035E+01 -0.25476006963E+01  0.43181895637E+02  0.47787267303E+02  0.19999982943E+02 0.  0.
         12    1    1    2    0    0 -0.35294785035E+01  0.25476006963E+01 -0.43181895637E+02  0.43400732697E+02  0.00000000000E+00 0. -1.
         11    1    3    3    0    0  0.28568421346E+01 -0.30885688449E+01  0.10022252964E+00  0.42084259894E+01  0.51100000000E-03 0. -1.
        -11    1    3    3    0    0  0.32541721446E+01 -0.43528149932E+00  0.14642741905E+02  0.15006298580E+02  0.51100000000E-03 0.  1.
         12    1    3    3    0    0 -0.25815357757E+01  0.97624964795E+00  0.28438931202E+02  0.28572542734E+02  0.00000000000E+00 0. -1.
</event>
<event>
 7    1  0.4005571E-009  0.4778727E+02  0.7816164E-02  0.1312668E+00
        -11   -1    0    0    0    0  0.00000000000E+00  0.00000000000E+00  0.45593999997E+02  0.45594000000E+02  0.51100000000E-03 0.  1.
         11   -1    0    0    0    0 -0.00000000000E+00 -0.00000000000E+00 -0.45593999997E+02  0.45594000000E+02  0.51100000000E-03 0. -1.
    9900012    2    1    2    0    0 -0.94628731273E+01  0.19042789217E+02  0.37834498029E+02  0.47787273853E+02  0.20000012807E+02 0.  0.
         12    1    1    2    0    0  0.94628731273E+01 -0.19042789217E+02 -0.37834498029E+02  0.43400726147E+02  0.00000000000E+00 0. -1.
         11    1    3    3    0    0 -0.24064024773E+00  0.11689837931E+01  0.25711474791E-01  0.11937722473E+01  0.51100000000E-03 0. -1.
        -11    1    3    3    0    0 -0.50250118732E+01 -0.18142900553E+01  0.16212127895E+02  0.17069724188E+02  0.51100000000E-03 0.  1.
         12    1    3    3    0    0 -0.41972210064E+01  0.19688095479E+02  0.21596658659E+02  0.29523777418E+02  0.00000000000E+00 0. -1.
</event>
<event>
 7    1  0.4005571E-009  0.4778726E+02  0.7816164E-02  0.1312668E+00
        -11   -1    0    0    0    0  0.00000000000E+00  0.00000000000E+00  0.45593999997E+02  0.45594000000E+02  0.51100000000E-03 0. -1.
         11   -1    0    0    0    0 -0.00000000000E+00 -0.00000000000E+00 -0.45593999997E+02  0.45594000000E+02  0.51100000000E-03 0.  1.
    9900012    2    1    2    0    0 -0.23563546203E+02 -0.32288730651E+02 -0.16906259397E+02  0.47787257569E+02  0.19999938561E+02 0.  0.
         12    1    1    2    0    0  0.23563546203E+02  0.32288730651E+02  0.16906259397E+02  0.43400742431E+02  0.00000000000E+00 0. -1.
         11    1    3    3    0    0 -0.14101571357E+02 -0.17263750911E+02 -0.57941968717E+01  0.23031806875E+02  0.51100000000E-03 0. -1.
        -11    1    3    3    0    0 -0.11220406717E+02 -0.13985469991E+02 -0.54561178398E+01  0.18741934797E+02  0.51100000000E-03 0.  1.
         12    1    3    3    0    0  0.17584318716E+01 -0.10395097487E+01 -0.56559446859E+01  0.60135158980E+01  0.00000000000E+00 0. -1.
</event>
<event>
 7    1  0.4005571E-009  0.4778727E+02  0.7816164E-02  0.1312668E+00
        -11   -1    0    0    0    0  0.00000000000E+00  0.00000000000E+00  0.45593999997E+02  0.45594000000E+02  0.51100000000E-03 0. -1.
         11   -1    0    0    0    0 -0.00000000000E+00 -0.00000000000E+00 -0.45593999997E+02  0.45594000000E+02  0.51100000000E-03 0.  1.
    9900012    2    1    2    0    0  0.14722648643E+02  0.10300089433E+02 -0.39506645283E+02  0.47787271356E+02  0.20000001418E+02 0.  0.
         12    1    1    2    0    0 -0.14722648643E+02 -0.10300089433E+02  0.39506645283E+02  0.43400728644E+02  0.00000000000E+00 0. -1.
         11    1    3    3    0    0  0.43729755659E+01 -0.25336532832E+01 -0.56387574376E+01  0.75721793402E+01  0.51100000000E-03 0. -1.
        -11    1    3    3    0    0  0.51571617970E+01 -0.19755516542E+01 -0.54907668540E+01  0.77876596641E+01  0.51100000000E-03 0.  1.
        -12    1    3    3    0    0  0.51925112797E+01  0.14809294371E+02 -0.28377120991E+02  0.32427432351E+02  0.00000000000E+00 0.  1.
</event>
<event>
 7    1  0.4005571E-009  0.4778727E+02  0.7816164E-02  0.1312668E+00
        -11   -1    0    0    0    0  0.00000000000E+00  0.00000000000E+00  0.45593999997E+02  0.45594000000E+02  0.51100000000E-03 0.  1.
         11   -1    0    0    0    0 -0.00000000000E+00 -0.00000000000E+00 -0.45593999997E+02  0.45594000000E+02  0.51100000000E-03 0. -1.
    9900012    2    1    2    0    0 -0.87956902025E+01  0.41644762746E+02 -0.84836823311E+01  0.47787270787E+02  0.19999998828E+02 0.  0.
         12    1    1    2    0    0  0.87956902025E+01 -0.41644762746E+02  0.84836823311E+01  0.43400729213E+02  0.00000000000E+00 0. -1.
         11    1    3    3    0    0  0.15205887790E+01  0.29026918039E+01  0.17765716977E+01  0.37274679343E+01  0.51100000000E-03 0. -1.
        -11    1    3    3    0    0 -0.18146935962E+00  0.26513936305E+02 -0.32987282383E+01  0.26718969998E+02  0.51100000000E-03 0.  1.
        -12    1    3    3    0    0 -0.10134809622E+02  0.12228134637E+02 -0.69615257905E+01  0.17340832855E+02  0.00000000000E+00 0.  1.
</event>
<event>
 7    1  0.4005571E-009  0.4778727E+02  0.7816164E-02  0.1312668E+00
        -11   -1    0    0    0    0  0.00000000000E+00  0.00000000000E+00  0.45593999997E+02  0.45594000000E+02  0.51100000000E-03 0.  1.
         11   -1    0    0    0    0 -0.00000000000E+00 -0.00000000000E+00 -0.45593999997E+02  0.45594000000E+02  0.51100000000E-03 0. -1.
    9900012    2    1    2    0    0 -0.21520377594E+01 -0.28699639415E+02  0.32485733505E+02  0.47787269010E+02  0.19999990726E+02 0.  0.
         12    1    1    2    0    0  0.21520377594E+01  0.28699639415E+02 -0.32485733505E+02  0.43400730990E+02  0.00000000000E+00 0. -1.
         11    1    3    3    0    0 -0.45286329989E+00 -0.57073931194E+01  0.43505010337E+00  0.57418368351E+01  0.51100000000E-03 0. -1.
        -11    1    3    3    0    0 -0.39470942065E+01 -0.19695193640E+02  0.16511668520E+02  0.26002219189E+02  0.51100000000E-03 0.  1.
         12    1    3    3    0    0  0.22479197470E+01 -0.32970526549E+01  0.15539014883E+02  0.16043212986E+02  0.00000000000E+00 0. -1.
</event>
<event>
 7    1  0.4005571E-009  0.4778726E+02  0.7816164E-02  0.1312668E+00
        -11   -1    0    0    0    0  0.00000000000E+00  0.00000000000E+00  0.45593999997E+02  0.45594000000E+02  0.51100000000E-03 0.  1.
         11   -1    0    0    0    0 -0.00000000000E+00 -0.00000000000E+00 -0.45593999997E+02  0.45594000000E+02  0.51100000000E-03 0. -1.
    9900012    2    1    2    0    0 -0.55207760104E+01 -0.86100534842E+01  0.42178337643E+02  0.47787260893E+02  0.19999953715E+02 0.  0.
         12    1    1    2    0    0  0.55207760104E+01  0.86100534842E+01 -0.42178337643E+02  0.43400739107E+02  0.00000000000E+00 0. -1.
         11    1    3    3    0    0  0.16255506193E+01 -0.13060665855E+01  0.82572964631E+01  0.85165233448E+01  0.51100000000E-03 0. -1.
        -11    1    3    3    0    0 -0.62676215050E+01 -0.12618179031E+02  0.21181386554E+02  0.25439195309E+02  0.51100000000E-03 0.  1.
         12    1    3    3    0    0 -0.87870512476E+00  0.53141921323E+01  0.12739654626E+02  0.13831542239E+02  0.00000000000E+00 0. -1.
</event>
<event>
 7    1  0.4005571E-009  0.4778727E+02  0.7816164E-02  0.1312668E+00
        -11   -1    0    0    0    0  0.00000000000E+00  0.00000000000E+00  0.45593999997E+02  0.45594000000E+02  0.51100000000E-03 0.  1.
         11   -1    0    0    0    0 -0.00000000000E+00 -0.00000000000E+00 -0.45593999997E+02  0.45594000000E+02  0.51100000000E-03 0. -1.
    9900012    2    1    2    0    0 -0.10479801600E+02  0.36125052316E+02 -0.21651281944E+02  0.47787266639E+02  0.19999979916E+02 0.  0.
         12    1    1    2    0    0  0.10479801600E+02 -0.36125052316E+02  0.21651281944E+02  0.43400733361E+02  0.00000000000E+00 0. -1.
         11    1    3    3    0    0 -0.52210854670E+01  0.13302629480E+01 -0.37996523278E+01  0.65929273496E+01  0.51100000000E-03 0. -1.
        -11    1    3    3    0    0  0.10677089093E+01  0.84566863133E+00  0.11461365576E+01  0.17801087098E+01  0.51100000000E-03 0.  1.
         12    1    3    3    0    0 -0.63264250422E+01  0.33949120737E+02 -0.18997766174E+02  0.39414230580E+02  0.00000000000E+00 0. -1.
</event>
<event>
 7    1  0.4005571E-009  0.4778727E+02  0.7816164E-02  0.1312668E+00
        -11   -1    0    0    0    0  0.00000000000E+00  0.00000000000E+00  0.45593999997E+02  0.45594000000E+02  0.51100000000E-03 0.  1.
         11   -1    0    0    0    0 -0.00000000000E+00 -0.00000000000E+00 -0.45593999997E+02  0.45594000000E+02  0.51100000000E-03 0. -1.
    9900012    2    1    2    0    0  0.16425500287E+02  0.73335664619E+00  0.40165764657E+02  0.47787268185E+02  0.19999986962E+02 0.  0.
         12    1    1    2    0    0 -0.16425500287E+02 -0.73335664619E+00 -0.40165764657E+02  0.43400731815E+02  0.00000000000E+00 0. -1.
         11    1    3    3    0    0  0.40913137162E+01 -0.50484918533E+01  0.11823492161E+02  0.13491519005E+02  0.51100000000E-03 0. -1.
        -11    1    3    3    0    0  0.14484869431E+01 -0.16321768990E+00 -0.14307217405E+01  0.20424787388E+01  0.51100000000E-03 0.  1.
        -12    1    3    3    0    0  0.10885699627E+02  0.59450661894E+01  0.29772994236E+02  0.32253270442E+02  0.00000000000E+00 0.  1.
</event>
<event>
 7    1  0.4005571E-009  0.4778728E+02  0.7816164E-02  0.1312668E+00
        -11   -1    0    0    0    0  0.00000000000E+00  0.00000000000E+00  0.45593999997E+02  0.45594000000E+02  0.51100000000E-03 0.  1.
         11   -1    0    0    0    0 -0.00000000000E+00 -0.00000000000E+00 -0.45593999997E+02  0.45594000000E+02  0.51100000000E-03 0. -1.
    9900012    2    1    2    0    0  0.42076427757E+02 -0.10626615428E+02  0.52155716964E+00  0.47787277079E+02  0.20000027512E+02 0.  0.
         12    1    1    2    0    0 -0.42076427757E+02  0.10626615428E+02 -0.52155716964E+00  0.43400722921E+02  0.00000000000E+00 0. -1.
         11    1    3    3    0    0  0.19822246514E+01 -0.10002206140E+01 -0.35395927012E+01  0.41783217441E+01  0.51100000000E-03 0. -1.
        -11    1    3    3    0    0  0.28060404887E+02 -0.12523277538E+02  0.52538452298E+01  0.31174054800E+02  0.51100000000E-03 0.  1.
        -12    1    3    3    0    0  0.12033798219E+02  0.28968827244E+01 -0.11926953590E+01  0.12434900534E+02  0.00000000000E+00 0.  1.
</event>
<event>
 7    1  0.4005571E-009  0.4778728E+02  0.7816164E-02  0.1312668E+00
        -11   -1    0    0    0    0  0.00000000000E+00  0.00000000000E+00  0.45593999997E+02  0.45594000000E+02  0.51100000000E-03 0.  1.
         11   -1    0    0    0    0 -0.00000000000E+00 -0.00000000000E+00 -0.45593999997E+02  0.45594000000E+02  0.51100000000E-03 0. -1.
    9900012    2    1    2    0    0  0.13227668079E+02  0.39243811435E+02  0.12983641803E+02  0.47787275430E+02  0.20000019995E+02 0.  0.
         12    1    1    2    0    0 -0.13227668079E+02 -0.39243811435E+02 -0.12983641803E+02  0.43400724570E+02  0.00000000000E+00 0. -1.
         11    1    3    3    0    0 -0.40264111259E+01  0.96870660984E+01  0.17739198731E+01  0.10639456195E+02  0.51100000000E-03 0. -1.
        -11    1    3    3    0    0 -0.46735515676E+00  0.50833404836E+01  0.26028944588E+01  0.57300812507E+01  0.51100000000E-03 0.  1.
        -12    1    3    3    0    0  0.17721434361E+02  0.24473404853E+02  0.86068274713E+01  0.31417737984E+02  0.00000000000E+00 0.  1.
</event>
<event>
 7    1  0.4005571E-009  0.4778727E+02  0.7816164E-02  0.1312668E+00
        -11   -1    0    0    0    0  0.00000000000E+00  0.00000000000E+00  0.45593999997E+02  0.45594000000E+02  0.51100000000E-03 0.  1.
         11   -1    0    0    0    0 -0.00000000000E+00 -0.00000000000E+00 -0.45593999997E+02  0.45594000000E+02  0.51100000000E-03 0. -1.
    9900012    2    1    2    0    0  0.63146242763E+01  0.88121266705E+01  0.42024933407E+02  0.47787273231E+02  0.20000009971E+02 0.  0.
         12    1    1    2    0    0 -0.63146242763E+01 -0.88121266705E+01 -0.42024933407E+02  0.43400726769E+02  0.00000000000E+00 0. -1.
         11    1    3    3    0    0  0.19410512580E+01 -0.64990772612E+00  0.82197190929E+01  0.84707639718E+01  0.51100000000E-03 0. -1.
        -11    1    3    3    0    0  0.38277558801E+00 -0.47564175945E+01  0.12620073970E+02  0.13492082595E+02  0.51100000000E-03 0.  1.
         12    1    3    3    0    0  0.39907974303E+01  0.14218451991E+02  0.21185140344E+02  0.25824426665E+02  0.00000000000E+00 0. -1.
</event>
<event>
 7    1  0.4005571E-009  0.4778727E+02  0.7816164E-02  0.1312668E+00
        -11   -1    0    0    0    0  0.00000000000E+00  0.00000000000E+00  0.45593999997E+02  0.45594000000E+02  0.51100000000E-03 0. -1.
         11   -1    0    0    0    0 -0.00000000000E+00 -0.00000000000E+00 -0.45593999997E+02  0.45594000000E+02  0.51100000000E-03 0.  1.
    9900012    2    1    2    0    0 -0.39229220751E+02  0.18278898004E+02  0.32516548657E+01  0.47787272675E+02  0.20000007432E+02 0.  0.
         12    1    1    2    0    0  0.39229220751E+02 -0.18278898004E+02 -0.32516548657E+01  0.43400727325E+02  0.00000000000E+00 0. -1.
         11    1    3    3    0    0 -0.19212227243E+02  0.32858923969E+01  0.57811058317E+01  0.20330468499E+02  0.51100000000E-03 0. -1.
        -11    1    3    3    0    0 -0.35254338139E+01 -0.16652995160E+01 -0.31649207249E+00  0.39117864905E+01  0.51100000000E-03 0.  1.
        -12    1    3    3    0    0 -0.16491559695E+02  0.16658305123E+02 -0.22129588936E+01  0.23545017685E+02  0.00000000000E+00 0.  1.
</event>
<event>
 7    1  0.4005571E-009  0.4778727E+02  0.7816164E-02  0.1312668E+00
        -11   -1    0    0    0    0  0.00000000000E+00  0.00000000000E+00  0.45593999997E+02  0.45594000000E+02  0.51100000000E-03 0. -1.
         11   -1    0    0    0    0 -0.00000000000E+00 -0.00000000000E+00 -0.45593999997E+02  0.45594000000E+02  0.51100000000E-03 0.  1.
    9900012    2    1    2    0    0  0.13218114925E+02  0.23703758272E+02 -0.33867930033E+02  0.47787269555E+02  0.19999993210E+02 0.  0.
         12    1    1    2    0    0 -0.13218114925E+02 -0.23703758272E+02  0.33867930033E+02  0.43400730445E+02  0.00000000000E+00 0. -1.
         11    1    3    3    0    0 -0.15631547549E+01 -0.11146669413E+00  0.92816666916E+00  0.18213652129E+01  0.51100000000E-03 0. -1.
        -11    1    3    3    0    0  0.37311130147E+01 -0.51374917575E-01 -0.45353688626E+01  0.58731094568E+01  0.51100000000E-03 0.  1.
        -12    1    3    3    0    0  0.11050156665E+02  0.23866599884E+02 -0.30260727840E+02  0.40092794886E+02  0.00000000000E+00 0.  1.
</event>
<event>
 7    1  0.4005571E-009  0.4778727E+02  0.7816164E-02  0.1312668E+00
        -11   -1    0    0    0    0  0.00000000000E+00  0.00000000000E+00  0.45593999997E+02  0.45594000000E+02  0.51100000000E-03 0.  1.
         11   -1    0    0    0    0 -0.00000000000E+00 -0.00000000000E+00 -0.45593999997E+02  0.45594000000E+02  0.51100000000E-03 0. -1.
    9900012    2    1    2    0    0  0.18900173334E+01  0.52153860274E+01  0.43044751140E+02  0.47787273997E+02  0.20000013461E+02 0.  0.
         12    1    1    2    0    0 -0.18900173334E+01 -0.52153860274E+01 -0.43044751140E+02  0.43400726003E+02  0.00000000000E+00 0. -1.
         11    1    3    3    0    0 -0.17514471548E+01  0.10865220199E+01  0.40274036733E+01  0.45241659834E+01  0.51100000000E-03 0. -1.
        -11    1    3    3    0    0  0.35980993457E+01  0.10340066570E+02  0.32342540646E+02  0.34145325174E+02  0.51100000000E-03 0.  1.
         12    1    3    3    0    0  0.43365142475E-01 -0.62112025627E+01  0.66748068207E+01  0.91177828393E+01  0.00000000000E+00 0. -1.
</event>
<event>
 7    1  0.4005571E-009  0.4778727E+02  0.7816164E-02  0.1312668E+00
        -11   -1    0    0    0    0  0.00000000000E+00  0.00000000000E+00  0.45593999997E+02  0.45594000000E+02  0.51100000000E-03 0.  1.
         11   -1    0    0    0    0 -0.00000000000E+00 -0.00000000000E+00 -0.45593999997E+02  0.45594000000E+02  0.51100000000E-03 0. -1.
    9900012    2    1    2    0    0  0.27428745390E+02 -0.32378390699E+02  0.91064314697E+01  0.47787270144E+02  0.19999995893E+02 0.  0.
         12    1    1    2    0    0 -0.27428745390E+02  0.32378390699E+02 -0.91064314697E+01  0.43400729856E+02  0.00000000000E+00 0. -1.
         11    1    3    3    0    0  0.85616299375E+01 -0.20203361261E+02  0.36038832028E+01  0.22236575452E+02  0.51100000000E-03 0. -1.
        -11    1    3    3    0    0  0.74328785553E+01 -0.76116023560E+01 -0.24199906309E+01  0.10910569598E+02  0.51100000000E-03 0.  1.
        -12    1    3    3    0    0  0.11434236897E+02 -0.45634270819E+01  0.79225388978E+01  0.14640125093E+02  0.00000000000E+00 0.  1.
</event>
<event>
 7    1  0.4005571E-009  0.4778727E+02  0.7816164E-02  0.1312668E+00
        -11   -1    0    0    0    0  0.00000000000E+00  0.00000000000E+00  0.45593999997E+02  0.45594000000E+02  0.51100000000E-03 0.  1.
         11   -1    0    0    0    0 -0.00000000000E+00 -0.00000000000E+00 -0.45593999997E+02  0.45594000000E+02  0.51100000000E-03 0. -1.
    9900012    2    1    2    0    0  0.12226002076E+02  0.14364268753E+01  0.41618323468E+02  0.47787270775E+02  0.19999998772E+02 0.  0.
         12    1    1    2    0    0 -0.12226002076E+02 -0.14364268753E+01 -0.41618323468E+02  0.43400729225E+02  0.00000000000E+00 0. -1.
         11    1    3    3    0    0  0.85255436843E+01  0.18362473640E+01  0.18273329888E+02  0.20247747652E+02  0.51100000000E-03 0.  1.
        -11    1    3    3    0    0  0.88926361863E+00  0.48571665314E+01  0.20209076820E+02  0.20803596869E+02  0.51100000000E-03 0. -1.
         12    1    3    3    0    0  0.28111947732E+01 -0.52569870201E+01  0.31359167599E+01  0.67359262546E+01  0.00000000000E+00 0. -1.
</event>
<event>
 7    1  0.4005571E-009  0.4778727E+02  0.7816164E-02  0.1312668E+00
        -11   -1    0    0    0    0  0.00000000000E+00  0.00000000000E+00  0.45593999997E+02  0.45594000000E+02  0.51100000000E-03 0. -1.
         11   -1    0    0    0    0 -0.00000000000E+00 -0.00000000000E+00 -0.45593999997E+02  0.45594000000E+02  0.51100000000E-03 0.  1.
    9900012    2    1    2    0    0  0.12236333717E+02  0.28184215897E+02 -0.30652004621E+02  0.47787271021E+02  0.19999999894E+02 0.  0.
         12    1    1    2    0    0 -0.12236333717E+02 -0.28184215897E+02  0.30652004621E+02  0.43400728979E+02  0.00000000000E+00 0. -1.
         11    1    3    3    0    0  0.10583322760E+01  0.14391624254E+01  0.25544334774E+01  0.31171118595E+01  0.51100000000E-03 0. -1.
        -11    1    3    3    0    0  0.32729809164E+01  0.26879673146E+01 -0.73251474727E+01  0.84614040278E+01  0.51100000000E-03 0.  1.
        -12    1    3    3    0    0  0.79050205246E+01  0.24057086157E+02 -0.25881290626E+02  0.36208755134E+02  0.00000000000E+00 0.  1.
</event>
<event>
 7    1  0.4005571E-009  0.4778727E+02  0.7816164E-02  0.1312668E+00
        -11   -1    0    0    0    0  0.00000000000E+00  0.00000000000E+00  0.45593999997E+02  0.45594000000E+02  0.51100000000E-03 0. -1.
         11   -1    0    0    0    0 -0.00000000000E+00 -0.00000000000E+00 -0.45593999997E+02  0.45594000000E+02  0.51100000000E-03 0.  1.
    9900012    2    1    2    0    0  0.28143959644E+02 -0.16828646280E+02 -0.28431282309E+02  0.47787267129E+02  0.19999982148E+02 0.  0.
         12    1    1    2    0    0 -0.28143959644E+02  0.16828646280E+02  0.28431282309E+02  0.43400732871E+02  0.00000000000E+00 0. -1.
         11    1    3    3    0    0  0.16919740455E+02 -0.72449965848E+01 -0.22076053356E+02  0.28742298526E+02  0.51100000000E-03 0. -1.
        -11    1    3    3    0    0  0.80054071220E+01 -0.10196300510E+02 -0.81465341506E+01  0.15310686013E+02  0.51100000000E-03 0.  1.
         12    1    3    3    0    0  0.32188120672E+01  0.61265081484E+00  0.17913051976E+01  0.37342825892E+01  0.00000000000E+00 0. -1.
</event>
<event>
 7    1  0.4918489E-009  0.4778727E+02  0.7816164E-02  0.1312668E+00
        -11   -1    0    0    0    0  0.00000000000E+00  0.00000000000E+00  0.45593999997E+02  0.45594000000E+02  0.51100000000E-03 0.  1.
         11   -1    0    0    0    0 -0.00000000000E+00 -0.00000000000E+00 -0.45593999997E+02  0.45594000000E+02  0.51100000000E-03 0. -1.
    9900012    2    1    2    0    0  0.22207621655E+02 -0.35647342642E+02  0.10941276263E+02  0.47787273931E+02  0.20000013161E+02 0.  0.
         12    1    1    2    0    0 -0.22207621655E+02  0.35647342642E+02 -0.10941276263E+02  0.43400726069E+02  0.00000000000E+00 0. -1.
         11    1    3    3    0    0 -0.10039710006E+01  0.96020592967E+00 -0.54464896040E+00  0.14921782563E+01  0.51100000000E-03 0. -1.
        -11    1    3    3    0    0  0.73553942326E+01 -0.16442076549E+02 -0.41291497515E+00  0.18017053161E+02  0.51100000000E-03 0.  1.
        -12    1    3    3    0    0  0.15856198423E+02 -0.20165472023E+02  0.11898840198E+02  0.28278042514E+02  0.00000000000E+00 0.  1.
</event>
<event>
 7    1  0.4005571E-009  0.4778727E+02  0.7816164E-02  0.1312668E+00
        -11   -1    0    0    0    0  0.00000000000E+00  0.00000000000E+00  0.45593999997E+02  0.45594000000E+02  0.51100000000E-03 0. -1.
         11   -1    0    0    0    0 -0.00000000000E+00 -0.00000000000E+00 -0.45593999997E+02  0.45594000000E+02  0.51100000000E-03 0.  1.
    9900012    2    1    2    0    0  0.34745424384E+01  0.42636110862E+02  0.73289056282E+01  0.47787271293E+02  0.20000001135E+02 0.  0.
         12    1    1    2    0    0 -0.34745424384E+01 -0.42636110862E+02 -0.73289056282E+01  0.43400728707E+02  0.00000000000E+00 0. -1.
         11    1    3    3    0    0 -0.69045391854E+00  0.15302842570E+01  0.28700198142E+01  0.33249827842E+01  0.51100000000E-03 0. -1.
        -11    1    3    3    0    0  0.28534394734E+01  0.57215620864E+01 -0.46441555255E+01  0.79023142397E+01  0.51100000000E-03 0.  1.
         12    1    3    3    0    0  0.13115568835E+01  0.35384264518E+02  0.91030413396E+01  0.36559974269E+02  0.00000000000E+00 0. -1.
</event>
<event>
 7    1  0.4005571E-009  0.4778727E+02  0.7816164E-02  0.1312668E+00
        -11   -1    0    0    0    0  0.00000000000E+00  0.00000000000E+00  0.45593999997E+02  0.45594000000E+02  0.51100000000E-03 0.  1.
         11   -1    0    0    0    0 -0.00000000000E+00 -0.00000000000E+00 -0.45593999997E+02  0.45594000000E+02  0.51100000000E-03 0. -1.
    9900012    2    1    2    0    0  0.30127877675E+02  0.13643143341E+02  0.28103364045E+02  0.47787269084E+02  0.19999991062E+02 0.  0.
         12    1    1    2    0    0 -0.30127877675E+02 -0.13643143341E+02 -0.28103364045E+02  0.43400730916E+02  0.00000000000E+00 0. -1.
         11    1    3    3    0    0  0.16195974121E+02  0.98459008670E+01  0.20156347955E+02  0.27668207473E+02  0.51100000000E-03 0. -1.
        -11    1    3    3    0    0  0.43644008183E+01  0.14428620717E+01  0.91037775123E+01  0.10198461194E+02  0.51100000000E-03 0.  1.
         12    1    3    3    0    0  0.95675027352E+01  0.23543804024E+01 -0.11567614221E+01  0.99206004180E+01  0.00000000000E+00 0. -1.
</event>
<event>
 7    1  0.4005571E-009  0.4778727E+02  0.7816164E-02  0.1312668E+00
        -11   -1    0    0    0    0  0.00000000000E+00  0.00000000000E+00  0.45593999997E+02  0.45594000000E+02  0.51100000000E-03 0.  1.
         11   -1    0    0    0    0 -0.00000000000E+00 -0.00000000000E+00 -0.45593999997E+02  0.45594000000E+02  0.51100000000E-03 0. -1.
    9900012    2    1    2    0    0  0.26418096001E+02 -0.33713124870E+02 -0.70094789574E+01  0.47787269821E+02  0.19999994423E+02 0.  0.
         12    1    1    2    0    0 -0.26418096001E+02  0.33713124870E+02  0.70094789574E+01  0.43400730179E+02  0.00000000000E+00 0. -1.
         11    1    3    3    0    0 -0.94842641835E+00 -0.29896657098E+01  0.88909137427E+00  0.32600762967E+01  0.51100000000E-03 0. -1.
        -11    1    3    3    0    0  0.14896956180E+02 -0.84470941303E+01  0.17967695864E+01  0.17219206831E+02  0.51100000000E-03 0.  1.
        -12    1    3    3    0    0  0.12469566239E+02 -0.22276365030E+02 -0.96953399180E+01  0.27307986694E+02  0.00000000000E+00 0.  1.
</event>
<event>
 7    1  0.4005571E-009  0.4778729E+02  0.7816164E-02  0.1312668E+00
        -11   -1    0    0    0    0  0.00000000000E+00  0.00000000000E+00  0.45593999997E+02  0.45594000000E+02  0.51100000000E-03 0.  1.
         11   -1    0    0    0    0 -0.00000000000E+00 -0.00000000000E+00 -0.45593999997E+02  0.45594000000E+02  0.51100000000E-03 0. -1.
    9900012    2    1    2    0    0 -0.76955803136E+01  0.23947921071E+01  0.42645804456E+02  0.47787290060E+02  0.20000086699E+02 0.  0.
         12    1    1    2    0    0  0.76955803136E+01 -0.23947921071E+01 -0.42645804456E+02  0.43400709940E+02  0.00000000000E+00 0. -1.
         11    1    3    3    0    0  0.15012641471E+00 -0.49598491220E+01  0.60568738418E+01  0.78299656608E+01  0.51100000000E-03 0. -1.
        -11    1    3    3    0    0 -0.65810848586E+01 -0.78236952966E+00  0.24125230695E+02  0.25018983520E+02  0.51100000000E-03 0.  1.
        -12    1    3    3    0    0 -0.12646218697E+01  0.81370107587E+01  0.12463699919E+02  0.14938340879E+02  0.00000000000E+00 0.  1.
</event>
<event>
 7    1  0.4005571E-009  0.4778727E+02  0.7816164E-02  0.1312668E+00
        -11   -1    0    0    0    0  0.00000000000E+00  0.00000000000E+00  0.45593999997E+02  0.45594000000E+02  0.51100000000E-03 0.  1.
         11   -1    0    0    0    0 -0.00000000000E+00 -0.00000000000E+00 -0.45593999997E+02  0.45594000000E+02  0.51100000000E-03 0. -1.
    9900012    2    1    2    0    0 -0.19733528615E+02 -0.37113703781E+02  0.10806672868E+02  0.47787270301E+02  0.19999996609E+02 0.  0.
         12    1    1    2    0    0  0.19733528615E+02  0.37113703781E+02 -0.10806672868E+02  0.43400729699E+02  0.00000000000E+00 0. -1.
         11    1    3    3    0    0 -0.11558509121E+01 -0.45976082491E+01 -0.15763115525E+01  0.49958734286E+01  0.51100000000E-03 0. -1.
        -11    1    3    3    0    0 -0.14016592777E+02 -0.31378627345E+02  0.60355713695E+01  0.34892853841E+02  0.51100000000E-03 0.  1.
         12    1    3    3    0    0 -0.45610849253E+01 -0.11374681868E+01  0.63474130510E+01  0.78985430309E+01  0.00000000000E+00 0. -1.
</event>
<event>
 7    1  0.4005571E-009  0.4778727E+02  0.7816164E-02  0.1312668E+00
        -11   -1    0    0    0    0  0.00000000000E+00  0.00000000000E+00  0.45593999997E+02  0.45594000000E+02  0.51100000000E-03 0. -1.
         11   -1    0    0    0    0 -0.00000000000E+00 -0.00000000000E+00 -0.45593999997E+02  0.45594000000E+02  0.51100000000E-03 0.  1.
    9900012    2    1    2    0    0  0.70525539403E+00 -0.42696363725E+02 -0.77554053069E+01  0.47787272218E+02  0.20000005350E+02 0.  0.
         12    1    1    2    0    0 -0.70525539403E+00  0.42696363725E+02  0.77554053069E+01  0.43400727782E+02  0.00000000000E+00 0. -1.
         11    1    3    3    0    0 -0.60116548894E+00 -0.22968137720E+02  0.52888891090E+01  0.23576876352E+02  0.51100000000E-03 0. -1.
        -11    1    3    3    0    0  0.16810685761E+01 -0.18807440954E+01 -0.19952858820E+01  0.32162642805E+01  0.51100000000E-03 0.  1.
         12    1    3    3    0    0 -0.37464769314E+00 -0.17847481910E+02 -0.11049008534E+02  0.20994131585E+02  0.00000000000E+00 0. -1.
</event>
<event>
 7    1  0.4005571E-009  0.4778727E+02  0.7816164E-02  0.1312668E+00
        -11   -1    0    0    0    0  0.00000000000E+00  0.00000000000E+00  0.45593999997E+02  0.45594000000E+02  0.51100000000E-03 0.  1.
         11   -1    0    0    0    0 -0.00000000000E+00 -0.00000000000E+00 -0.45593999997E+02  0.45594000000E+02  0.51100000000E-03 0. -1.
    9900012    2    1    2    0    0  0.27128397726E+02 -0.26506731729E+02  0.21096597676E+02  0.47787271623E+02  0.20000002638E+02 0.  0.
         12    1    1    2    0    0 -0.27128397726E+02  0.26506731729E+02 -0.21096597676E+02  0.43400728377E+02  0.00000000000E+00 0. -1.
         11    1    3    3    0    0  0.13651370643E+01 -0.17492337254E+01  0.87271818203E+00  0.23843353616E+01  0.51100000000E-03 0. -1.
        -11    1    3    3    0    0  0.26388014500E+02 -0.21040861372E+02  0.11094957242E+02  0.35526655246E+02  0.51100000000E-03 0.  1.
         12    1    3    3    0    0 -0.62475383817E+00 -0.37166366321E+01  0.91289222519E+01  0.98762810154E+01  0.00000000000E+00 0. -1.
</event>
<event>
 7    1  0.4005571E-009  0.4778727E+02  0.7816164E-02  0.1312668E+00
        -11   -1    0    0    0    0  0.00000000000E+00  0.00000000000E+00  0.45593999997E+02  0.45594000000E+02  0.51100000000E-03 0. -1.
         11   -1    0    0    0    0 -0.00000000000E+00 -0.00000000000E+00 -0.45593999997E+02  0.45594000000E+02  0.51100000000E-03 0.  1.
    9900012    2    1    2    0    0 -0.11477698215E+02 -0.41619703986E+02  0.44368863137E+01  0.47787271016E+02  0.19999999869E+02 0.  0.
         12    1    1    2    0    0  0.11477698215E+02  0.41619703986E+02 -0.44368863137E+01  0.43400728984E+02  0.00000000000E+00 0. -1.
         11    1    3    3    0    0 -0.10446967668E+02 -0.22034541809E+02 -0.13435843347E+01  0.24422640834E+02  0.51100000000E-03 0. -1.
        -11    1    3    3    0    0 -0.60020175522E+01 -0.79293465985E+01  0.20334444717E+01  0.10150549190E+02  0.51100000000E-03 0.  1.
         12    1    3    3    0    0  0.49712870051E+01 -0.11655815578E+02  0.37470261767E+01  0.13214080992E+02  0.00000000000E+00 0. -1.
</event>
<event>
 7    1  0.4005571E-009  0.4778727E+02  0.7816164E-02  0.1312668E+00
        -11   -1    0    0    0    0  0.00000000000E+00  0.00000000000E+00  0.45593999997E+02  0.45594000000E+02  0.51100000000E-03 0.  1.
         11   -1    0    0    0    0 -0.00000000000E+00 -0.00000000000E+00 -0.45593999997E+02  0.45594000000E+02  0.51100000000E-03 0. -1.
    9900012    2    1    2    0    0  0.21388915777E+02 -0.37140099322E+02  0.68374710040E+01  0.47787266072E+02  0.19999977329E+02 0.  0.
         12    1    1    2    0    0 -0.21388915777E+02  0.37140099322E+02 -0.68374710040E+01  0.43400733928E+02  0.00000000000E+00 0. -1.
         11    1    3    3    0    0  0.18257486334E+02 -0.17429720255E+02  0.12876115076E+01  0.25274273462E+02  0.51100000000E-03 0. -1.
        -11    1    3    3    0    0  0.55976504484E+01 -0.86610710982E+01  0.11885121050E+01  0.10380770896E+02  0.51100000000E-03 0.  1.
        -12    1    3    3    0    0 -0.24662210056E+01 -0.11049307969E+02  0.43613473913E+01  0.12132221714E+02  0.00000000000E+00 0.  1.
</event>
<event>
 7    1  0.4005571E-009  0.4778727E+02  0.7816164E-02  0.1312668E+00
        -11   -1    0    0    0    0  0.00000000000E+00  0.00000000000E+00  0.45593999997E+02  0.45594000000E+02  0.51100000000E-03 0.  1.
         11   -1    0    0    0    0 -0.00000000000E+00 -0.00000000000E+00 -0.45593999997E+02  0.45594000000E+02  0.51100000000E-03 0. -1.
    9900012    2    1    2    0    0 -0.33975483160E+01  0.33973568688E+02  0.26793223024E+02  0.47787268393E+02  0.19999987911E+02 0.  0.
         12    1    1    2    0    0  0.33975483160E+01 -0.33973568688E+02 -0.26793223024E+02  0.43400731607E+02  0.00000000000E+00 0. -1.
         11    1    3    3    0    0 -0.62176427851E+00  0.88979547796E+01  0.99631059359E+00  0.89751225695E+01  0.51100000000E-03 0. -1.
        -11    1    3    3    0    0  0.16468744270E+01 -0.13882911953E+01  0.16170629297E+01  0.26934068762E+01  0.51100000000E-03 0.  1.
        -12    1    3    3    0    0 -0.44226584644E+01  0.26463905104E+02  0.24179849501E+02  0.36118738947E+02  0.00000000000E+00 0.  1.
</event>
<event>
 7    1  0.4005571E-009  0.4778727E+02  0.7816164E-02  0.1312668E+00
        -11   -1    0    0    0    0  0.00000000000E+00  0.00000000000E+00  0.45593999997E+02  0.45594000000E+02  0.51100000000E-03 0.  1.
         11   -1    0    0    0    0 -0.00000000000E+00 -0.00000000000E+00 -0.45593999997E+02  0.45594000000E+02  0.51100000000E-03 0. -1.
    9900012    2    1    2    0    0 -0.35347740306E+02  0.21367287787E+02  0.13326643400E+02  0.47787272398E+02  0.20000006171E+02 0.  0.
         12    1    1    2    0    0  0.35347740306E+02 -0.21367287787E+02 -0.13326643400E+02  0.43400727602E+02  0.00000000000E+00 0. -1.
         11    1    3    3    0    0 -0.13068267465E+02  0.14370900137E+02  0.50920089883E+01  0.20080611074E+02  0.51100000000E-03 0. -1.
        -11    1    3    3    0    0 -0.19827935733E+02  0.69507257780E+01  0.21186665292E+01  0.21117489728E+02  0.51100000000E-03 0.  1.
        -12    1    3    3    0    0 -0.24515371073E+01  0.45661871757E-01  0.61159678822E+01  0.65891715967E+01  0.00000000000E+00 0.  1.
</event>
<event>
 7    1  0.4005571E-009  0.4778727E+02  0.7816164E-02  0.1312668E+00
        -11   -1    0    0    0    0  0.00000000000E+00  0.00000000000E+00  0.45593999997E+02  0.45594000000E+02  0.51100000000E-03 0.  1.
         11   -1    0    0    0    0 -0.00000000000E+00 -0.00000000000E+00 -0.45593999997E+02  0.45594000000E+02  0.51100000000E-03 0. -1.
    9900012    2    1    2    0    0 -0.20841292800E+02 -0.20091536510E+02  0.32335643989E+02  0.47787271929E+02  0.20000004035E+02 0.  0.
         12    1    1    2    0    0  0.20841292800E+02  0.20091536510E+02 -0.32335643989E+02  0.43400728071E+02  0.00000000000E+00 0. -1.
         11    1    3    3    0    0 -0.53726387049E+01  0.23817009446E+01  0.30360255769E+01  0.66147711682E+01  0.51100000000E-03 0. -1.
        -11    1    3    3    0    0 -0.84661308033E+00 -0.70629832309E+01  0.40890414612E+01  0.82050439463E+01  0.51100000000E-03 0.  1.
        -12    1    3    3    0    0 -0.14622041014E+02 -0.15410254224E+02  0.25210576951E+02  0.32967456815E+02  0.00000000000E+00 0.  1.
</event>
<event>
 7    1  0.4005571E-009  0.4778725E+02  0.7816164E-02  0.1312668E+00
        -11   -1    0    0    0    0  0.00000000000E+00  0.00000000000E+00  0.45593999997E+02  0.45594000000E+02  0.51100000000E-03 0.  1.
         11   -1    0    0    0    0 -0.00000000000E+00 -0.00000000000E+00 -0.45593999997E+02  0.45594000000E+02  0.51100000000E-03 0. -1.
    9900012    2    1    2    0    0  0.27674332506E+02 -0.41225777658E+01  0.33177708482E+02  0.47787254993E+02  0.19999926815E+02 0.  0.
         12    1    1    2    0    0 -0.27674332506E+02  0.41225777658E+01 -0.33177708482E+02  0.43400745007E+02  0.00000000000E+00 0. -1.
         11    1    3    3    0    0  0.13517934854E+02 -0.98319099834E+01  0.10886932391E+02  0.19948090480E+02  0.51100000000E-03 0. -1.
        -11    1    3    3    0    0  0.90676314611E+01  0.50546119528E+00  0.96407339600E+01  0.13244666205E+02  0.51100000000E-03 0.  1.
         12    1    3    3    0    0  0.50887661902E+01  0.52038710223E+01  0.12650042131E+02  0.14594498308E+02  0.00000000000E+00 0. -1.
</event>
<event>
 7    1  0.4005571E-009  0.4778728E+02  0.7816164E-02  0.1312668E+00
        -11   -1    0    0    0    0  0.00000000000E+00  0.00000000000E+00  0.45593999997E+02  0.45594000000E+02  0.51100000000E-03 0. -1.
         11   -1    0    0    0    0 -0.00000000000E+00 -0.00000000000E+00 -0.45593999997E+02  0.45594000000E+02  0.51100000000E-03 0.  1.
    9900012    2    1    2    0    0  0.78893807774E+01  0.42371157110E+02 -0.51054470225E+01  0.47787275660E+02  0.20000021046E+02 0.  0.
         12    1    1    2    0    0 -0.78893807774E+01 -0.42371157110E+02  0.51054470225E+01  0.43400724340E+02  0.00000000000E+00 0. -1.
         11    1    3    3    0    0 -0.92592401838E+00  0.12592290097E+02  0.12372081925E+01  0.12686756463E+02  0.51100000000E-03 0. -1.
        -11    1    3    3    0    0  0.39269626904E+01  0.28800697679E+02 -0.74219498580E+01  0.29999776045E+02  0.51100000000E-03 0.  1.
         12    1    3    3    0    0  0.48883421053E+01  0.97816933405E+00  0.10792946430E+01  0.51007431528E+01  0.00000000000E+00 0. -1.
</event>
<event>
 7    1  0.4005571E-009  0.4778727E+02  0.7816164E-02  0.1312668E+00
        -11   -1    0    0    0    0  0.00000000000E+00  0.00000000000E+00  0.45593999997E+02  0.45594000000E+02  0.51100000000E-03 0.  1.
         11   -1    0    0    0    0 -0.00000000000E+00 -0.00000000000E+00 -0.45593999997E+02  0.45594000000E+02  0.51100000000E-03 0. -1.
    9900012    2    1    2    0    0 -0.25850525319E+02  0.20075500883E+02  0.28501718891E+02  0.47787269883E+02  0.19999994703E+02 0.  0.
         12    1    1    2    0    0  0.25850525319E+02 -0.20075500883E+02 -0.28501718891E+02  0.43400730117E+02  0.00000000000E+00 0. -1.
         11    1    3    3    0    0  0.11185831686E+00  0.10008760341E+01  0.59706713584E+01  0.60550129521E+01  0.51100000000E-03 0. -1.
        -11    1    3    3    0    0  0.14116727697E+01 -0.22974346496E+00  0.19505067414E+01  0.24186936305E+01  0.51100000000E-03 0.  1.
        -12    1    3    3    0    0 -0.27374056406E+02  0.19304368314E+02  0.20580540791E+02  0.39313563300E+02  0.00000000000E+00 0.  1.
</event>
<event>
 7    1  0.4005571E-009  0.4778727E+02  0.7816164E-02  0.1312668E+00
        -11   -1    0    0    0    0  0.00000000000E+00  0.00000000000E+00  0.45593999997E+02  0.45594000000E+02  0.51100000000E-03 0. -1.
         11   -1    0    0    0    0 -0.00000000000E+00 -0.00000000000E+00 -0.45593999997E+02  0.45594000000E+02  0.51100000000E-03 0.  1.
    9900012    2    1    2    0    0 -0.27541511939E+02  0.32318711135E+02 -0.89771583996E+01  0.47787270257E+02  0.19999996410E+02 0.  0.
         12    1    1    2    0    0  0.27541511939E+02 -0.32318711135E+02  0.89771583996E+01  0.43400729743E+02  0.00000000000E+00 0. -1.
         11    1    3    3    0    0 -0.23749676150E+01  0.14201652540E+01  0.18156963916E+01  0.33096969905E+01  0.51100000000E-03 0. -1.
        -11    1    3    3    0    0 -0.22773280008E+02  0.32866818318E+02 -0.10630713377E+02  0.41374655235E+02  0.51100000000E-03 0.  1.
        -12    1    3    3    0    0 -0.23932643158E+01 -0.19682724370E+01 -0.16214141378E+00  0.31029180314E+01  0.00000000000E+00 0.  1.
</event>
<event>
 7    1  0.4005571E-009  0.4778727E+02  0.7816164E-02  0.1312668E+00
        -11   -1    0    0    0    0  0.00000000000E+00  0.00000000000E+00  0.45593999997E+02  0.45594000000E+02  0.51100000000E-03 0.  1.
         11   -1    0    0    0    0 -0.00000000000E+00 -0.00000000000E+00 -0.45593999997E+02  0.45594000000E+02  0.51100000000E-03 0. -1.
    9900012    2    1    2    0    0 -0.18582665102E+02 -0.38908193893E+02 -0.49457156492E+01  0.47787273076E+02  0.20000009261E+02 0.  0.
         12    1    1    2    0    0  0.18582665102E+02  0.38908193893E+02  0.49457156492E+01  0.43400726924E+02  0.00000000000E+00 0. -1.
         11    1    3    3    0    0  0.13386933502E+01 -0.36056264398E+01 -0.45628516190E+01  0.59676006123E+01  0.51100000000E-03 0. -1.
        -11    1    3    3    0    0 -0.10360003843E+02 -0.14926383974E+02 -0.49961856811E+01  0.18843791810E+02  0.51100000000E-03 0.  1.
        -12    1    3    3    0    0 -0.95613546085E+01 -0.20376183479E+02  0.46133216510E+01  0.22975880653E+02  0.00000000000E+00 0.  1.
</event>
<event>
 7    1  0.4005571E-009  0.4778728E+02  0.7816164E-02  0.1312668E+00
        -11   -1    0    0    0    0  0.00000000000E+00  0.00000000000E+00  0.45593999997E+02  0.45594000000E+02  0.51100000000E-03 0.  1.
         11   -1    0    0    0    0 -0.00000000000E+00 -0.00000000000E+00 -0.45593999997E+02  0.45594000000E+02  0.51100000000E-03 0. -1.
    9900012    2    1    2    0    0  0.47303472777E+01 -0.52979420142E+01  0.42815629317E+02  0.47787280089E+02  0.20000041238E+02 0.  0.
         12    1    1    2    0    0 -0.47303472777E+01  0.52979420142E+01 -0.42815629317E+02  0.43400719911E+02  0.00000000000E+00 0. -1.
         11    1    3    3    0    0  0.43239445843E+01 -0.15752261177E+01  0.74355757081E+01  0.87444622740E+01  0.51100000000E-03 0. -1.
        -11    1    3    3    0    0  0.65692489946E+01 -0.60666176331E+01  0.26599271442E+02  0.28062076248E+02  0.51100000000E-03 0.  1.
         12    1    3    3    0    0 -0.61628463012E+01  0.23439017366E+01  0.87807821671E+01  0.10980741566E+02  0.00000000000E+00 0. -1.
</event>
<event>
 7    1  0.4005571E-009  0.4778727E+02  0.7816164E-02  0.1312668E+00
        -11   -1    0    0    0    0  0.00000000000E+00  0.00000000000E+00  0.45593999997E+02  0.45594000000E+02  0.51100000000E-03 0.  1.
         11   -1    0    0    0    0 -0.00000000000E+00 -0.00000000000E+00 -0.45593999997E+02  0.45594000000E+02  0.51100000000E-03 0. -1.
    9900012    2    1    2    0    0 -0.25156321451E+02 -0.35028505846E+02 -0.48771430861E+01  0.47787271257E+02  0.20000000968E+02 0.  0.
         12    1    1    2    0    0  0.25156321451E+02  0.35028505846E+02  0.48771430861E+01  0.43400728743E+02  0.00000000000E+00 0. -1.
         11    1    3    3    0    0 -0.99298570087E+01 -0.59301602823E+01  0.10068545291E+01  0.11609591616E+02  0.51100000000E-03 0. -1.
        -11    1    3    3    0    0 -0.14435275885E+02 -0.19066745666E+02  0.10816371220E+01  0.23939254777E+02  0.51100000000E-03 0.  1.
        -12    1    3    3    0    0 -0.79118855745E+00 -0.10031599898E+02 -0.69656347371E+01  0.12238424863E+02  0.00000000000E+00 0.  1.
</event>
<event>
 7    1  0.4192680E-009  0.4778721E+02  0.7816164E-02  0.1312668E+00
        -11   -1    0    0    0    0  0.00000000000E+00  0.00000000000E+00  0.45593999997E+02  0.45594000000E+02  0.51100000000E-03 0.  1.
         11   -1    0    0    0    0 -0.00000000000E+00 -0.00000000000E+00 -0.45593999997E+02  0.45594000000E+02  0.51100000000E-03 0. -1.
    9900012    2    1    2    0    0  0.95861207243E+01  0.33515862267E+02  0.25853859991E+02  0.47787207260E+02  0.19999709178E+02 0.  0.
         12    1    1    2    0    0 -0.95861207243E+01 -0.33515862267E+02 -0.25853859991E+02  0.43400792740E+02  0.00000000000E+00 0. -1.
         11    1    3    3    0    0 -0.15835346872E+01  0.20809525932E+02  0.11347093018E+02  0.23755009405E+02  0.51100000000E-03 0. -1.
        -11    1    3    3    0    0  0.27626659491E+01  0.76606637531E+01  0.10853160329E+02  0.13568683859E+02  0.51100000000E-03 0.  1.
         12    1    3    3    0    0  0.84069894624E+01  0.50456725818E+01  0.36536066440E+01  0.10463513995E+02  0.00000000000E+00 0. -1.
</event>
<event>
 7    1  0.4005571E-009  0.4778727E+02  0.7816164E-02  0.1312668E+00
        -11   -1    0    0    0    0  0.00000000000E+00  0.00000000000E+00  0.45593999997E+02  0.45594000000E+02  0.51100000000E-03 0.  1.
         11   -1    0    0    0    0 -0.00000000000E+00 -0.00000000000E+00 -0.45593999997E+02  0.45594000000E+02  0.51100000000E-03 0. -1.
    9900012    2    1    2    0    0  0.16218260842E+02  0.29518560604E+02  0.27372355567E+02  0.47787271271E+02  0.20000001035E+02 0.  0.
         12    1    1    2    0    0 -0.16218260842E+02 -0.29518560604E+02 -0.27372355567E+02  0.43400728729E+02  0.00000000000E+00 0. -1.
         11    1    3    3    0    0  0.32684940105E+01  0.72196902143E+00 -0.39221828920E+00  0.33701821630E+01  0.51100000000E-03 0. -1.
        -11    1    3    3    0    0 -0.15070477293E+01 -0.77084069518E+00  0.81498715391E+00  0.18787209899E+01  0.51100000000E-03 0.  1.
        -12    1    3    3    0    0  0.14456814561E+02  0.29567432278E+02  0.26949586703E+02  0.42538368118E+02  0.00000000000E+00 0.  1.
</event>
<event>
 7    1  0.4005571E-009  0.4778727E+02  0.7816164E-02  0.1312668E+00
        -11   -1    0    0    0    0  0.00000000000E+00  0.00000000000E+00  0.45593999997E+02  0.45594000000E+02  0.51100000000E-03 0. -1.
         11   -1    0    0    0    0 -0.00000000000E+00 -0.00000000000E+00 -0.45593999997E+02  0.45594000000E+02  0.51100000000E-03 0.  1.
    9900012    2    1    2    0    0 -0.15345494766E+02 -0.13429717546E+02 -0.38311642819E+02  0.47787268457E+02  0.19999988204E+02 0.  0.
         12    1    1    2    0    0  0.15345494766E+02  0.13429717546E+02  0.38311642819E+02  0.43400731543E+02  0.00000000000E+00 0. -1.
         11    1    3    3    0    0 -0.74205285930E+01  0.42328141429E+01 -0.12617148721E+02  0.15237237357E+02  0.51100000000E-03 0. -1.
        -11    1    3    3    0    0 -0.37311892639E+01 -0.34672880167E+01 -0.79597716820E+01  0.94499642859E+01  0.51100000000E-03 0.  1.
         12    1    3    3    0    0 -0.41937769089E+01 -0.14195243672E+02 -0.17734722416E+02  0.23100066814E+02  0.00000000000E+00 0. -1.
</event>
<event>
 7    1  0.4005571E-009  0.4778727E+02  0.7816164E-02  0.1312668E+00
        -11   -1    0    0    0    0  0.00000000000E+00  0.00000000000E+00  0.45593999997E+02  0.45594000000E+02  0.51100000000E-03 0.  1.
         11   -1    0    0    0    0 -0.00000000000E+00 -0.00000000000E+00 -0.45593999997E+02  0.45594000000E+02  0.51100000000E-03 0. -1.
    9900012    2    1    2    0    0  0.24910486566E+02 -0.34079754935E+02  0.10082724410E+02  0.47787269950E+02  0.19999995008E+02 0.  0.
         12    1    1    2    0    0 -0.24910486566E+02  0.34079754935E+02 -0.10082724410E+02  0.43400730050E+02  0.00000000000E+00 0. -1.
         11    1    3    3    0    0  0.64978529121E+01 -0.33134586692E+01  0.77101634918E+01  0.10613563122E+02  0.51100000000E-03 0. -1.
        -11    1    3    3    0    0  0.11987052040E+02 -0.11184125456E+02  0.23665225147E+01  0.16564253919E+02  0.51100000000E-03 0.  1.
        -12    1    3    3    0    0  0.64255816136E+01 -0.19582170810E+02  0.60384036580E-02  0.20609452908E+02  0.00000000000E+00 0.  1.
</event>
<event>
 7    1  0.4005571E-009  0.4778727E+02  0.7816164E-02  0.1312668E+00
        -11   -1    0    0    0    0  0.00000000000E+00  0.00000000000E+00  0.45593999997E+02  0.45594000000E+02  0.51100000000E-03 0.  1.
         11   -1    0    0    0    0 -0.00000000000E+00 -0.00000000000E+00 -0.45593999997E+02  0.45594000000E+02  0.51100000000E-03 0. -1.
    9900012    2    1    2    0    0 -0.14951177721E+02 -0.38703639467E+02  0.12732396323E+02  0.47787270290E+02  0.19999996558E+02 0.  0.
         12    1    1    2    0    0  0.14951177721E+02  0.38703639467E+02 -0.12732396323E+02  0.43400729710E+02  0.00000000000E+00 0. -1.
         11    1    3    3    0    0  0.22075449258E+01 -0.16348858955E+01  0.31762612036E+01  0.41993739992E+01  0.51100000000E-03 0.  1.
        -11    1    3    3    0    0 -0.29639706470E+01 -0.19899959687E+02  0.28285462976E+01  0.20317337226E+02  0.51100000000E-03 0. -1.
         12    1    3    3    0    0 -0.14194752000E+02 -0.17168793885E+02  0.67275888218E+01  0.23270559064E+02  0.00000000000E+00 0. -1.
</event>
<event>
 7    1  0.4005571E-009  0.4778727E+02  0.7816164E-02  0.1312668E+00
        -11   -1    0    0    0    0  0.00000000000E+00  0.00000000000E+00  0.45593999997E+02  0.45594000000E+02  0.51100000000E-03 0.  1.
         11   -1    0    0    0    0 -0.00000000000E+00 -0.00000000000E+00 -0.45593999997E+02  0.45594000000E+02  0.51100000000E-03 0. -1.
    9900012    2    1    2    0    0  0.94712555866E+01  0.19578471906E+02  0.37557985177E+02  0.47787268496E+02  0.19999988380E+02 0.  0.
         12    1    1    2    0    0 -0.94712555866E+01 -0.19578471906E+02 -0.37557985177E+02  0.43400731504E+02  0.00000000000E+00 0. -1.
         11    1    3    3    0    0  0.11646325039E+01  0.76955613859E+01  0.24838877817E+02  0.26029750006E+02  0.51100000000E-03 0.  1.
        -11    1    3    3    0    0 -0.15478669652E+01 -0.62780028558E+00  0.17533714300E+01  0.24216393153E+01  0.51100000000E-03 0. -1.
        -12    1    3    3    0    0  0.98544900480E+01  0.12510710806E+02  0.10965735930E+02  0.19335879175E+02  0.00000000000E+00 0.  1.
</event>
<event>
 7    1  0.4005571E-009  0.4778727E+02  0.7816164E-02  0.1312668E+00
        -11   -1    0    0    0    0  0.00000000000E+00  0.00000000000E+00  0.45593999997E+02  0.45594000000E+02  0.51100000000E-03 0.  1.
         11   -1    0    0    0    0 -0.00000000000E+00 -0.00000000000E+00 -0.45593999997E+02  0.45594000000E+02  0.51100000000E-03 0. -1.
    9900012    2    1    2    0    0  0.16397565471E+02  0.40009260707E+02  0.37420035816E+01  0.47787266290E+02  0.19999978325E+02 0.  0.
         12    1    1    2    0    0 -0.16397565471E+02 -0.40009260707E+02 -0.37420035816E+01  0.43400733710E+02  0.00000000000E+00 0. -1.
         11    1    3    3    0    0  0.12651518076E+01  0.64801544262E+01  0.17197819638E+01  0.68228044636E+01  0.51100000000E-03 0. -1.
        -11    1    3    3    0    0  0.40594274678E+01  0.15163870592E+02 -0.76221687301E+01  0.17450483636E+02  0.51100000000E-03 0.  1.
         12    1    3    3    0    0  0.11072986196E+02  0.18365235689E+02  0.96443903479E+01  0.23513978191E+02  0.00000000000E+00 0. -1.
</event>
<event>
 7    1  0.4005571E-009  0.4778726E+02  0.7816164E-02  0.1312668E+00
        -11   -1    0    0    0    0  0.00000000000E+00  0.00000000000E+00  0.45593999997E+02  0.45594000000E+02  0.51100000000E-03 0.  1.
         11   -1    0    0    0    0 -0.00000000000E+00 -0.00000000000E+00 -0.45593999997E+02  0.45594000000E+02  0.51100000000E-03 0. -1.
    9900012    2    1    2    0    0 -0.41273176864E+02 -0.53363398510E+01  0.12315531081E+02  0.47787263172E+02  0.19999964105E+02 0.  0.
         12    1    1    2    0    0  0.41273176864E+02  0.53363398510E+01 -0.12315531081E+02  0.43400736828E+02  0.00000000000E+00 0. -1.
         11    1    3    3    0    0 -0.95743324515E+00  0.17018543738E+01 -0.15882386794E+01  0.25170397479E+01  0.51100000000E-03 0. -1.
        -11    1    3    3    0    0 -0.17151986760E+02 -0.39314025246E+01 -0.87478183499E+00  0.17618507859E+02  0.51100000000E-03 0.  1.
        -12    1    3    3    0    0 -0.23163756858E+02 -0.31067917002E+01  0.14778551596E+02  0.27651715565E+02  0.00000000000E+00 0.  1.
</event>
<event>
 7    1  0.4005571E-009  0.4778727E+02  0.7816164E-02  0.1312668E+00
        -11   -1    0    0    0    0  0.00000000000E+00  0.00000000000E+00  0.45593999997E+02  0.45594000000E+02  0.51100000000E-03 0.  1.
         11   -1    0    0    0    0 -0.00000000000E+00 -0.00000000000E+00 -0.45593999997E+02  0.45594000000E+02  0.51100000000E-03 0. -1.
    9900012    2    1    2    0    0  0.38820339440E+02 -0.38058718174E+01  0.19029444784E+02  0.47787272088E+02  0.20000004756E+02 0.  0.
         12    1    1    2    0    0 -0.38820339440E+02  0.38058718174E+01 -0.19029444784E+02  0.43400727912E+02  0.00000000000E+00 0. -1.
         11    1    3    3    0    0  0.72127052966E+01 -0.43703741946E+01  0.10311552697E+02  0.13321088828E+02  0.51100000000E-03 0. -1.
        -11    1    3    3    0    0  0.19635924444E+02 -0.16198739404E+01  0.10235294694E+02  0.22202584941E+02  0.51100000000E-03 0.  1.
         12    1    3    3    0    0  0.11971709700E+02  0.21843763176E+01 -0.15174026063E+01  0.12263598318E+02  0.00000000000E+00 0. -1.
</event>
<event>
 7    1  0.4005571E-009  0.4778727E+02  0.7816164E-02  0.1312668E+00
        -11   -1    0    0    0    0  0.00000000000E+00  0.00000000000E+00  0.45593999997E+02  0.45594000000E+02  0.51100000000E-03 0.  1.
         11   -1    0    0    0    0 -0.00000000000E+00 -0.00000000000E+00 -0.45593999997E+02  0.45594000000E+02  0.51100000000E-03 0. -1.
    9900012    2    1    2    0    0 -0.26557939838E+02 -0.31632193354E+02  0.13330555990E+02  0.47787267888E+02  0.19999985609E+02 0.  0.
         12    1    1    2    0    0  0.26557939838E+02  0.31632193354E+02 -0.13330555990E+02  0.43400732112E+02  0.00000000000E+00 0. -1.
         11    1    3    3    0    0 -0.67780663682E+01 -0.18028663341E+02  0.44191832802E+01  0.19761175742E+02  0.51100000000E-03 0. -1.
        -11    1    3    3    0    0 -0.96219911618E+01 -0.13281797229E+02  0.51728101828E+01  0.17197290978E+02  0.51100000000E-03 0.  1.
        -12    1    3    3    0    0 -0.10157882308E+02 -0.32173278391E+00  0.37385625270E+01  0.10828801168E+02  0.00000000000E+00 0.  1.
</event>
<event>
 7    1  0.4005571E-009  0.4778728E+02  0.7816164E-02  0.1312668E+00
        -11   -1    0    0    0    0  0.00000000000E+00  0.00000000000E+00  0.45593999997E+02  0.45594000000E+02  0.51100000000E-03 0.  1.
         11   -1    0    0    0    0 -0.00000000000E+00 -0.00000000000E+00 -0.45593999997E+02  0.45594000000E+02  0.51100000000E-03 0. -1.
    9900012    2    1    2    0    0  0.34024664324E+02 -0.21399953741E+02  0.16370308535E+02  0.47787276458E+02  0.20000024681E+02 0.  0.
         12    1    1    2    0    0 -0.34024664324E+02  0.21399953741E+02 -0.16370308535E+02  0.43400723542E+02  0.00000000000E+00 0. -1.
         11    1    3    3    0    0  0.10596185852E+02 -0.56255512632E+01  0.12183946543E+00  0.11997534195E+02  0.51100000000E-03 0.  1.
        -11    1    3    3    0    0  0.69098627571E+01 -0.58411859319E+01  0.13598043158E+02  0.16333169760E+02  0.51100000000E-03 0. -1.
         12    1    3    3    0    0  0.16518615714E+02 -0.99332165460E+01  0.26504259115E+01  0.19456572503E+02  0.00000000000E+00 0. -1.
</event>
<event>
 7    1  0.4005571E-009  0.4778727E+02  0.7816164E-02  0.1312668E+00
        -11   -1    0    0    0    0  0.00000000000E+00  0.00000000000E+00  0.45593999997E+02  0.45594000000E+02  0.51100000000E-03 0. -1.
         11   -1    0    0    0    0 -0.00000000000E+00 -0.00000000000E+00 -0.45593999997E+02  0.45594000000E+02  0.51100000000E-03 0.  1.
    9900012    2    1    2    0    0  0.12545374775E+02  0.37849086888E+02  0.17137191106E+02  0.47787272754E+02  0.20000007793E+02 0.  0.
         12    1    1    2    0    0 -0.12545374775E+02 -0.37849086888E+02 -0.17137191106E+02  0.43400727246E+02  0.00000000000E+00 0. -1.
         11    1    3    3    0    0  0.59766837970E+01  0.25209269374E+02  0.48245096658E+01  0.26353442003E+02  0.51100000000E-03 0. -1.
        -11    1    3    3    0    0  0.54550040219E+01  0.60280133447E+01  0.87636093522E+00  0.81769201117E+01  0.51100000000E-03 0.  1.
         12    1    3    3    0    0  0.11136869562E+01  0.66118041688E+01  0.11436320505E+02  0.13256910639E+02  0.00000000000E+00 0. -1.
</event>
<event>
 7    1  0.4005571E-009  0.4778727E+02  0.7816164E-02  0.1312668E+00
        -11   -1    0    0    0    0  0.00000000000E+00  0.00000000000E+00  0.45593999997E+02  0.45594000000E+02  0.51100000000E-03 0. -1.
         11   -1    0    0    0    0 -0.00000000000E+00 -0.00000000000E+00 -0.45593999997E+02  0.45594000000E+02  0.51100000000E-03 0.  1.
    9900012    2    1    2    0    0 -0.38404249190E+02  0.11299136072E+02  0.16765038585E+02  0.47787270161E+02  0.19999995974E+02 0.  0.
         12    1    1    2    0    0  0.38404249190E+02 -0.11299136072E+02 -0.16765038585E+02  0.43400729839E+02  0.00000000000E+00 0. -1.
         11    1    3    3    0    0 -0.30834724715E+01  0.19254247831E+01  0.47106506751E+01  0.59502347115E+01  0.51100000000E-03 0. -1.
        -11    1    3    3    0    0 -0.36586280998E+02  0.69313637432E+01  0.10554594641E+02  0.38703994999E+02  0.51100000000E-03 0.  1.
        -12    1    3    3    0    0  0.12655042801E+01  0.24423475456E+01  0.14997932683E+01  0.31330404504E+01  0.00000000000E+00 0.  1.
</event>
<event>
 7    1  0.4005571E-009  0.4778727E+02  0.7816164E-02  0.1312668E+00
        -11   -1    0    0    0    0  0.00000000000E+00  0.00000000000E+00  0.45593999997E+02  0.45594000000E+02  0.51100000000E-03 0.  1.
         11   -1    0    0    0    0 -0.00000000000E+00 -0.00000000000E+00 -0.45593999997E+02  0.45594000000E+02  0.51100000000E-03 0. -1.
    9900012    2    1    2    0    0 -0.22130010358E+02  0.36207011700E+02 -0.91070483017E+01  0.47787269782E+02  0.19999994243E+02 0.  0.
         12    1    1    2    0    0  0.22130010358E+02 -0.36207011700E+02  0.91070483017E+01  0.43400730218E+02  0.00000000000E+00 0. -1.
         11    1    3    3    0    0 -0.85752242480E+01  0.13212528560E+02 -0.93168454775E+01  0.18300518894E+02  0.51100000000E-03 0. -1.
        -11    1    3    3    0    0 -0.10079063667E+02  0.51873092917E+01 -0.23629671650E+00  0.11338057086E+02  0.51100000000E-03 0.  1.
         12    1    3    3    0    0 -0.34757224430E+01  0.17807173848E+02  0.44609389239E+00  0.18148693802E+02  0.00000000000E+00 0. -1.
</event>
<event>
 7    1  0.4005571E-009  0.4778727E+02  0.7816164E-02  0.1312668E+00
        -11   -1    0    0    0    0  0.00000000000E+00  0.00000000000E+00  0.45593999997E+02  0.45594000000E+02  0.51100000000E-03 0.  1.
         11   -1    0    0    0    0 -0.00000000000E+00 -0.00000000000E+00 -0.45593999997E+02  0.45594000000E+02  0.51100000000E-03 0. -1.
    9900012    2    1    2    0    0 -0.18446063209E+01  0.34720064977E+02  0.25975722929E+02  0.47787266525E+02  0.19999979395E+02 0.  0.
         12    1    1    2    0    0  0.18446063209E+01 -0.34720064977E+02 -0.25975722929E+02  0.43400733475E+02  0.00000000000E+00 0. -1.
         11    1    3    3    0    0  0.49695048062E+01  0.13073400307E+02  0.60065152488E+01  0.15221300841E+02  0.51100000000E-03 0. -1.
        -11    1    3    3    0    0 -0.15394897033E+01  0.19947679416E+02  0.17134941164E+02  0.26341718843E+02  0.51100000000E-03 0.  1.
         12    1    3    3    0    0 -0.52746214238E+01  0.16989852536E+01  0.28342665163E+01  0.62242468413E+01  0.00000000000E+00 0. -1.
</event>
<event>
 7    1  0.4005571E-009  0.4778727E+02  0.7816164E-02  0.1312668E+00
        -11   -1    0    0    0    0  0.00000000000E+00  0.00000000000E+00  0.45593999997E+02  0.45594000000E+02  0.51100000000E-03 0.  1.
         11   -1    0    0    0    0 -0.00000000000E+00 -0.00000000000E+00 -0.45593999997E+02  0.45594000000E+02  0.51100000000E-03 0. -1.
    9900012    2    1    2    0    0 -0.87451467084E+00 -0.34238093926E+01  0.43256631406E+02  0.47787269508E+02  0.19999992993E+02 0.  0.
         12    1    1    2    0    0  0.87451467084E+00  0.34238093926E+01 -0.43256631406E+02  0.43400730492E+02  0.00000000000E+00 0. -1.
         11    1    3    3    0    0  0.24922454819E+01 -0.11095683551E+01  0.28897613924E+01  0.39740597181E+01  0.51100000000E-03 0. -1.
        -11    1    3    3    0    0  0.51738565716E+01 -0.13597169032E+00  0.44343849066E+01  0.68155007068E+01  0.51100000000E-03 0.  1.
         12    1    3    3    0    0 -0.85406167243E+01 -0.21782693471E+01  0.35932485107E+02  0.36997709083E+02  0.00000000000E+00 0. -1.
</event>
<event>
 7    1  0.4005571E-009  0.4778727E+02  0.7816164E-02  0.1312668E+00
        -11   -1    0    0    0    0  0.00000000000E+00  0.00000000000E+00  0.45593999997E+02  0.45594000000E+02  0.51100000000E-03 0. -1.
         11   -1    0    0    0    0 -0.00000000000E+00 -0.00000000000E+00 -0.45593999997E+02  0.45594000000E+02  0.51100000000E-03 0.  1.
    9900012    2    1    2    0    0  0.47373138097E+00  0.42868250409E+02  0.67610439300E+01  0.47787273859E+02  0.20000012832E+02 0.  0.
         12    1    1    2    0    0 -0.47373138097E+00 -0.42868250409E+02 -0.67610439300E+01  0.43400726141E+02  0.00000000000E+00 0. -1.
         11    1    3    3    0    0  0.12089830494E+01  0.21229909907E+02  0.68140746742E+01  0.22329405021E+02  0.51100000000E-03 0. -1.
        -11    1    3    3    0    0  0.55320873389E+01  0.87252662647E+01  0.30512295035E+01  0.10772384298E+02  0.51100000000E-03 0.  1.
         12    1    3    3    0    0 -0.62673390074E+01  0.12913074238E+02 -0.31042602476E+01  0.14685484540E+02  0.00000000000E+00 0. -1.
</event>
<event>
 7    1  0.4005571E-009  0.4778727E+02  0.7816164E-02  0.1312668E+00
        -11   -1    0    0    0    0  0.00000000000E+00  0.00000000000E+00  0.45593999997E+02  0.45594000000E+02  0.51100000000E-03 0.  1.
         11   -1    0    0    0    0 -0.00000000000E+00 -0.00000000000E+00 -0.45593999997E+02  0.45594000000E+02  0.51100000000E-03 0. -1.
    9900012    2    1    2    0    0 -0.10293110375E+02 -0.34108150172E+02  0.24785260281E+02  0.47787272397E+02  0.20000006165E+02 0.  0.
         12    1    1    2    0    0  0.10293110375E+02  0.34108150172E+02 -0.24785260281E+02  0.43400727603E+02  0.00000000000E+00 0. -1.
         11    1    3    3    0    0 -0.11569747774E+01 -0.37180942064E+01 -0.77444626159E+00  0.39702118881E+01  0.51100000000E-03 0. -1.
        -11    1    3    3    0    0 -0.37627511657E+01 -0.53568857580E+01 -0.13382541610E+01  0.66817247639E+01  0.51100000000E-03 0.  1.
        -12    1    3    3    0    0 -0.53733844320E+01 -0.25033170207E+02  0.26897960703E+02  0.37135335745E+02  0.00000000000E+00 0.  1.
</event>
<event>
 7    1  0.4005571E-009  0.4778727E+02  0.7816164E-02  0.1312668E+00
        -11   -1    0    0    0    0  0.00000000000E+00  0.00000000000E+00  0.45593999997E+02  0.45594000000E+02  0.51100000000E-03 0.  1.
         11   -1    0    0    0    0 -0.00000000000E+00 -0.00000000000E+00 -0.45593999997E+02  0.45594000000E+02  0.51100000000E-03 0. -1.
    9900012    2    1    2    0    0 -0.52876210278E+01  0.11835258833E+02  0.41419697463E+02  0.47787266991E+02  0.19999981518E+02 0.  0.
         12    1    1    2    0    0  0.52876210278E+01 -0.11835258833E+02 -0.41419697463E+02  0.43400733009E+02  0.00000000000E+00 0. -1.
         11    1    3    3    0    0 -0.88334305194E+00  0.60743675435E+01  0.27430532239E+02  0.28108936928E+02  0.51100000000E-03 0. -1.
        -11    1    3    3    0    0  0.12018266174E+01  0.71980209796E+01  0.10901958342E+02  0.13119016319E+02  0.51100000000E-03 0.  1.
         12    1    3    3    0    0 -0.56061045932E+01 -0.14371296899E+01  0.30872068821E+01  0.65593137437E+01  0.00000000000E+00 0. -1.
</event>
<event>
 7    1  0.4005571E-009  0.4778727E+02  0.7816164E-02  0.1312668E+00
        -11   -1    0    0    0    0  0.00000000000E+00  0.00000000000E+00  0.45593999997E+02  0.45594000000E+02  0.51100000000E-03 0.  1.
         11   -1    0    0    0    0 -0.00000000000E+00 -0.00000000000E+00 -0.45593999997E+02  0.45594000000E+02  0.51100000000E-03 0. -1.
    9900012    2    1    2    0    0 -0.10419871407E+01  0.41781783845E+02 -0.11697003141E+02  0.47787273267E+02  0.20000010133E+02 0.  0.
         12    1    1    2    0    0  0.10419871407E+01 -0.41781783845E+02  0.11697003141E+02  0.43400726733E+02  0.00000000000E+00 0. -1.
         11    1    3    3    0    0 -0.13665763039E+01  0.15412330037E+02 -0.78170785959E+00  0.15492530955E+02  0.51100000000E-03 0. -1.
        -11    1    3    3    0    0 -0.52627906150E+01  0.22673637359E+02 -0.61545754887E+01  0.24076328538E+02  0.51100000000E-03 0.  1.
         12    1    3    3    0    0  0.55873797783E+01  0.36958164493E+01 -0.47607197929E+01  0.82184137740E+01  0.00000000000E+00 0. -1.
</event>
<event>
 7    1  0.4005571E-009  0.4778727E+02  0.7816164E-02  0.1312668E+00
        -11   -1    0    0    0    0  0.00000000000E+00  0.00000000000E+00  0.45593999997E+02  0.45594000000E+02  0.51100000000E-03 0.  1.
         11   -1    0    0    0    0 -0.00000000000E+00 -0.00000000000E+00 -0.45593999997E+02  0.45594000000E+02  0.51100000000E-03 0. -1.
    9900012    2    1    2    0    0  0.24786538959E+01  0.40635382482E+02  0.15041441046E+02  0.47787274392E+02  0.20000015263E+02 0.  0.
         12    1    1    2    0    0 -0.24786538959E+01 -0.40635382482E+02 -0.15041441046E+02  0.43400725608E+02  0.00000000000E+00 0. -1.
         11    1    3    3    0    0  0.67728849111E+00  0.10596417217E+02 -0.13508809755E+01  0.10703628226E+02  0.51100000000E-03 0. -1.
        -11    1    3    3    0    0 -0.54043481585E+01  0.90761172703E+01  0.22820182740E+01  0.10806964948E+02  0.51100000000E-03 0.  1.
         12    1    3    3    0    0  0.72057135634E+01  0.20962847995E+02  0.14110303747E+02  0.26276681218E+02  0.00000000000E+00 0. -1.
</event>
<event>
 7    1  0.4005571E-009  0.4778727E+02  0.7816164E-02  0.1312668E+00
        -11   -1    0    0    0    0  0.00000000000E+00  0.00000000000E+00  0.45593999997E+02  0.45594000000E+02  0.51100000000E-03 0.  1.
         11   -1    0    0    0    0 -0.00000000000E+00 -0.00000000000E+00 -0.45593999997E+02  0.45594000000E+02  0.51100000000E-03 0. -1.
    9900012    2    1    2    0    0 -0.15654007276E+02  0.28173361745E+01  0.40381162940E+02  0.47787266742E+02  0.19999980383E+02 0.  0.
         12    1    1    2    0    0  0.15654007276E+02 -0.28173361745E+01 -0.40381162940E+02  0.43400733258E+02  0.00000000000E+00 0. -1.
         11    1    3    3    0    0 -0.18137932849E+02  0.10860534152E+01  0.28445869513E+02  0.33753986619E+02  0.51100000000E-03 0. -1.
        -11    1    3    3    0    0  0.14120342830E+01 -0.22602994691E+01  0.21958874043E+01  0.34532182468E+01  0.51100000000E-03 0.  1.
        -12    1    3    3    0    0  0.10718912901E+01  0.39915822283E+01  0.97394060231E+01  0.10580061876E+02  0.00000000000E+00 0.  1.
</event>
<event>
 7    1  0.4005571E-009  0.4778727E+02  0.7816164E-02  0.1312668E+00
        -11   -1    0    0    0    0  0.00000000000E+00  0.00000000000E+00  0.45593999997E+02  0.45594000000E+02  0.51100000000E-03 0.  1.
         11   -1    0    0    0    0 -0.00000000000E+00 -0.00000000000E+00 -0.45593999997E+02  0.45594000000E+02  0.51100000000E-03 0. -1.
    9900012    2    1    2    0    0 -0.25083673657E+02  0.91778846839E+01  0.34208171302E+02  0.47787271490E+02  0.20000002030E+02 0.  0.
         12    1    1    2    0    0  0.25083673657E+02 -0.91778846839E+01 -0.34208171302E+02  0.43400728510E+02  0.00000000000E+00 0. -1.
         11    1    3    3    0    0 -0.39573881588E+01  0.48466576542E+01  0.97283898324E+01  0.11566874273E+02  0.51100000000E-03 0. -1.
        -11    1    3    3    0    0 -0.14304359408E+02  0.99468800361E+01  0.19201992609E+02  0.25928201652E+02  0.51100000000E-03 0.  1.
         12    1    3    3    0    0 -0.68219260897E+01 -0.56156530065E+01  0.52777888614E+01  0.10292195564E+02  0.00000000000E+00 0. -1.
</event>
<event>
 7    1  0.4005571E-009  0.4778727E+02  0.7816164E-02  0.1312668E+00
        -11   -1    0    0    0    0  0.00000000000E+00  0.00000000000E+00  0.45593999997E+02  0.45594000000E+02  0.51100000000E-03 0.  1.
         11   -1    0    0    0    0 -0.00000000000E+00 -0.00000000000E+00 -0.45593999997E+02  0.45594000000E+02  0.51100000000E-03 0. -1.
    9900012    2    1    2    0    0 -0.10513247889E+02 -0.39892998985E+02 -0.13477513206E+02  0.47787272916E+02  0.20000008535E+02 0.  0.
         12    1    1    2    0    0  0.10513247889E+02  0.39892998985E+02  0.13477513206E+02  0.43400727084E+02  0.00000000000E+00 0. -1.
         11    1    3    3    0    0 -0.81929775686E+01 -0.11362212522E+02 -0.10385046851E+02  0.17437716398E+02  0.51100000000E-03 0.  1.
        -11    1    3    3    0    0 -0.38973460375E+01 -0.59365185807E+01  0.14531642241E+01  0.72486719831E+01  0.51100000000E-03 0. -1.
        -12    1    3    3    0    0  0.15770757173E+01 -0.22594267882E+02 -0.45456305794E+01  0.23100884535E+02  0.00000000000E+00 0.  1.
</event>
<event>
 7    1  0.4005571E-009  0.4778727E+02  0.7816164E-02  0.1312668E+00
        -11   -1    0    0    0    0  0.00000000000E+00  0.00000000000E+00  0.45593999997E+02  0.45594000000E+02  0.51100000000E-03 0. -1.
         11   -1    0    0    0    0 -0.00000000000E+00 -0.00000000000E+00 -0.45593999997E+02  0.45594000000E+02  0.51100000000E-03 0.  1.
    9900012    2    1    2    0    0  0.11509316134E+02 -0.41659973114E+02  0.39503934648E+01  0.47787270440E+02  0.19999997246E+02 0.  0.
         12    1    1    2    0    0 -0.11509316134E+02  0.41659973114E+02 -0.39503934648E+01  0.43400729560E+02  0.00000000000E+00 0. -1.
         11    1    3    3    0    0  0.28501525939E+01 -0.41380006769E+01 -0.19157742437E+01  0.53774167241E+01  0.51100000000E-03 0. -1.
        -11    1    3    3    0    0  0.12002833787E+02 -0.27688633946E+02 -0.58354484236E+00  0.30183919453E+02  0.51100000000E-03 0.  1.
         12    1    3    3    0    0 -0.33436702471E+01 -0.98333384916E+01  0.64497125509E+01  0.12225934263E+02  0.00000000000E+00 0. -1.
</event>
<event>
 7    1  0.4005571E-009  0.4778727E+02  0.7816164E-02  0.1312668E+00
        -11   -1    0    0    0    0  0.00000000000E+00  0.00000000000E+00  0.45593999997E+02  0.45594000000E+02  0.51100000000E-03 0.  1.
         11   -1    0    0    0    0 -0.00000000000E+00 -0.00000000000E+00 -0.45593999997E+02  0.45594000000E+02  0.51100000000E-03 0. -1.
    9900012    2    1    2    0    0 -0.27491788937E+02 -0.11217655393E+02  0.31654208462E+02  0.47787272301E+02  0.20000005728E+02 0.  0.
         12    1    1    2    0    0  0.27491788937E+02  0.11217655393E+02 -0.31654208462E+02  0.43400727699E+02  0.00000000000E+00 0. -1.
         11    1    3    3    0    0 -0.12898474855E+02 -0.68922443669E+01  0.14045827603E+02  0.20277054996E+02  0.51100000000E-03 0.  1.
        -11    1    3    3    0    0 -0.76867473643E+01 -0.89793438507E+00  0.18200216879E+02  0.19777266391E+02  0.51100000000E-03 0. -1.
        -12    1    3    3    0    0 -0.69065667184E+01 -0.34274766410E+01 -0.59183602017E+00  0.77329509138E+01  0.00000000000E+00 0.  1.
</event>
<event>
 7    1  0.4005571E-009  0.4778726E+02  0.7816164E-02  0.1312668E+00
        -11   -1    0    0    0    0  0.00000000000E+00  0.00000000000E+00  0.45593999997E+02  0.45594000000E+02  0.51100000000E-03 0. -1.
         11   -1    0    0    0    0 -0.00000000000E+00 -0.00000000000E+00 -0.45593999997E+02  0.45594000000E+02  0.51100000000E-03 0.  1.
    9900012    2    1    2    0    0  0.22814595689E+02 -0.36895853561E+02  0.13469689767E+01  0.47787261391E+02  0.19999955985E+02 0.  0.
         12    1    1    2    0    0 -0.22814595689E+02  0.36895853561E+02 -0.13469689767E+01  0.43400738609E+02  0.00000000000E+00 0. -1.
         11    1    3    3    0    0  0.76403039853E+01 -0.18412705391E+02  0.39858477430E+01  0.20329509274E+02  0.51100000000E-03 0. -1.
        -11    1    3    3    0    0  0.87286808133E+01 -0.18852584616E+02 -0.10125838026E+01  0.20799883213E+02  0.51100000000E-03 0.  1.
         12    1    3    3    0    0  0.64456108901E+01  0.36943644712E+00 -0.16262949638E+01  0.66578689041E+01  0.00000000000E+00 0. -1.
</event>
<event>
 7    1 -0.4005571E-009  0.4778728E+02  0.7816164E-02  0.1312668E+00
        -11   -1    0    0    0    0  0.00000000000E+00  0.00000000000E+00  0.45593999997E+02  0.45594000000E+02  0.51100000000E-03 0. -1.
         11   -1    0    0    0    0 -0.00000000000E+00 -0.00000000000E+00 -0.45593999997E+02  0.45594000000E+02  0.51100000000E-03 0.  1.
    9900012    2    1    2    0    0 -0.32666256554E+02  0.24071070094E+02 -0.15398768436E+02  0.47787276480E+02  0.20000024783E+02 0.  0.
         12    1    1    2    0    0  0.32666256554E+02 -0.24071070094E+02  0.15398768436E+02  0.43400723520E+02  0.00000000000E+00 0. -1.
         11    1    3    3    0    0 -0.19444553436E+02  0.45128506981E+01 -0.60209995489E+01  0.20849674232E+02  0.51100000000E-03 0. -1.
        -11    1    3    3    0    0 -0.11966678774E+02  0.10293795391E+02 -0.71390584150E+01  0.17324254089E+02  0.51100000000E-03 0.  1.
         12    1    3    3    0    0 -0.12550243440E+01  0.92644240047E+01 -0.22387104719E+01  0.96133481586E+01  0.00000000000E+00 0. -1.
</event>
<event>
 7    1  0.4005571E-009  0.4778728E+02  0.7816164E-02  0.1312668E+00
        -11   -1    0    0    0    0  0.00000000000E+00  0.00000000000E+00  0.45593999997E+02  0.45594000000E+02  0.51100000000E-03 0.  1.
         11   -1    0    0    0    0 -0.00000000000E+00 -0.00000000000E+00 -0.45593999997E+02  0.45594000000E+02  0.51100000000E-03 0. -1.
    9900012    2    1    2    0    0  0.25625846860E+02 -0.19673355771E+02  0.28980991095E+02  0.47787276510E+02  0.20000024922E+02 0.  0.
         12    1    1    2    0    0 -0.25625846860E+02  0.19673355771E+02 -0.28980991095E+02  0.43400723490E+02  0.00000000000E+00 0. -1.
         11    1    3    3    0    0  0.60685163090E+01 -0.60499451797E+00  0.11540296185E+02  0.13052637467E+02  0.51100000000E-03 0. -1.
        -11    1    3    3    0    0  0.13176163480E+02 -0.17851790065E+02  0.17467517429E+02  0.28238481864E+02  0.51100000000E-03 0.  1.
         12    1    3    3    0    0  0.63811670715E+01 -0.12165711874E+01 -0.26822519233E-01  0.64961571792E+01  0.00000000000E+00 0. -1.
</event>
<event>
 7    1  0.4005571E-009  0.4778727E+02  0.7816164E-02  0.1312668E+00
        -11   -1    0    0    0    0  0.00000000000E+00  0.00000000000E+00  0.45593999997E+02  0.45594000000E+02  0.51100000000E-03 0.  1.
         11   -1    0    0    0    0 -0.00000000000E+00 -0.00000000000E+00 -0.45593999997E+02  0.45594000000E+02  0.51100000000E-03 0. -1.
    9900012    2    1    2    0    0 -0.94269210060E+01  0.33266392185E+02 -0.26231728426E+02  0.47787271148E+02  0.20000000470E+02 0.  0.
         12    1    1    2    0    0  0.94269210060E+01 -0.33266392185E+02  0.26231728426E+02  0.43400728852E+02  0.00000000000E+00 0. -1.
         11    1    3    3    0    0 -0.27480269534E+01  0.41687942550E+00 -0.29569588468E+01  0.40582072982E+01  0.51100000000E-03 0. -1.
        -11    1    3    3    0    0 -0.92937353135E+01  0.26801614132E+02 -0.12280017027E+02  0.30911144505E+02  0.51100000000E-03 0.  1.
         12    1    3    3    0    0  0.26148412609E+01  0.60478986280E+01 -0.10994752552E+02  0.12817919344E+02  0.00000000000E+00 0. -1.
</event>
<event>
 7    1  0.4005571E-009  0.4778727E+02  0.7816164E-02  0.1312668E+00
        -11   -1    0    0    0    0  0.00000000000E+00  0.00000000000E+00  0.45593999997E+02  0.45594000000E+02  0.51100000000E-03 0.  1.
         11   -1    0    0    0    0 -0.00000000000E+00 -0.00000000000E+00 -0.45593999997E+02  0.45594000000E+02  0.51100000000E-03 0. -1.
    9900012    2    1    2    0    0 -0.10201644923E+02 -0.24893508979E+02  0.34056758879E+02  0.47787272198E+02  0.20000005258E+02 0.  0.
         12    1    1    2    0    0  0.10201644923E+02  0.24893508979E+02 -0.34056758879E+02  0.43400727802E+02  0.00000000000E+00 0. -1.
         11    1    3    3    0    0 -0.77558947891E+01 -0.12492112798E+02  0.10177614002E+02  0.17882690322E+02  0.51100000000E-03 0.  1.
        -11    1    3    3    0    0 -0.74724235453E+01 -0.81417325748E+01  0.11948583657E+02  0.16275551439E+02  0.51100000000E-03 0. -1.
         12    1    3    3    0    0  0.50266734110E+01 -0.42596636069E+01  0.11930561220E+02  0.13629030437E+02  0.00000000000E+00 0. -1.
</event>
<event>
 7    1  0.4005571E-009  0.4778726E+02  0.7816164E-02  0.1312668E+00
        -11   -1    0    0    0    0  0.00000000000E+00  0.00000000000E+00  0.45593999997E+02  0.45594000000E+02  0.51100000000E-03 0.  1.
         11   -1    0    0    0    0 -0.00000000000E+00 -0.00000000000E+00 -0.45593999997E+02  0.45594000000E+02  0.51100000000E-03 0. -1.
    9900012    2    1    2    0    0  0.92934548508E+01  0.67995819007E+01  0.41845206041E+02  0.47787263996E+02  0.19999967861E+02 0.  0.
         12    1    1    2    0    0 -0.92934548508E+01 -0.67995819007E+01 -0.41845206041E+02  0.43400736004E+02  0.00000000000E+00 0. -1.
         11    1    3    3    0    0  0.17723777421E+00 -0.43080212067E+01  0.36590053553E+01  0.56549783729E+01  0.51100000000E-03 0. -1.
        -11    1    3    3    0    0  0.71846656743E+00 -0.13224860590E+01  0.10821128558E+02  0.10925291169E+02  0.51100000000E-03 0.  1.
        -12    1    3    3    0    0  0.83977505091E+01  0.12430089166E+02  0.27365072128E+02  0.31206994454E+02  0.00000000000E+00 0.  1.
</event>
<event>
 7    1  0.4005571E-009  0.4778727E+02  0.7816164E-02  0.1312668E+00
        -11   -1    0    0    0    0  0.00000000000E+00  0.00000000000E+00  0.45593999997E+02  0.45594000000E+02  0.51100000000E-03 0.  1.
         11   -1    0    0    0    0 -0.00000000000E+00 -0.00000000000E+00 -0.45593999997E+02  0.45594000000E+02  0.51100000000E-03 0. -1.
    9900012    2    1    2    0    0  0.31113012781E+02 -0.27390457951E+02  0.12859493516E+02  0.47787270460E+02  0.19999997337E+02 0.  0.
         12    1    1    2    0    0 -0.31113012781E+02  0.27390457951E+02 -0.12859493516E+02  0.43400729540E+02  0.00000000000E+00 0. -1.
         11    1    3    3    0    0  0.35896875887E+01 -0.11249256810E+01  0.17578061317E+01  0.41522520913E+01  0.51100000000E-03 0. -1.
        -11    1    3    3    0    0  0.14642681802E+02 -0.16007014949E+02  0.15414798910E+02  0.26612942033E+02  0.51100000000E-03 0.  1.
         12    1    3    3    0    0  0.12880643391E+02 -0.10258517321E+02 -0.43131115253E+01  0.17022076336E+02  0.00000000000E+00 0. -1.
</event>
<event>
 7    1  0.4005571E-009  0.4778728E+02  0.7816164E-02  0.1312668E+00
        -11   -1    0    0    0    0  0.00000000000E+00  0.00000000000E+00  0.45593999997E+02  0.45594000000E+02  0.51100000000E-03 0.  1.
         11   -1    0    0    0    0 -0.00000000000E+00 -0.00000000000E+00 -0.45593999997E+02  0.45594000000E+02  0.51100000000E-03 0. -1.
    9900012    2    1    2    0    0 -0.23191088399E+02 -0.13221546650E+02  0.34219686830E+02  0.47787276000E+02  0.20000022594E+02 0.  0.
         12    1    1    2    0    0  0.23191088399E+02  0.13221546650E+02 -0.34219686830E+02  0.43400724000E+02  0.00000000000E+00 0. -1.
         11    1    3    3    0    0 -0.13659792841E+02 -0.27722824000E+01  0.89022698538E+01  0.16538618412E+02  0.51100000000E-03 0. -1.
        -11    1    3    3    0    0 -0.11952544839E+02 -0.76925988411E+01  0.17009927579E+02  0.22167025997E+02  0.51100000000E-03 0.  1.
         12    1    3    3    0    0  0.24212492811E+01 -0.27566654088E+01  0.83074893978E+01  0.90816315908E+01  0.00000000000E+00 0. -1.
</event>
<event>
 7    1  0.4005571E-009  0.4778727E+02  0.7816164E-02  0.1312668E+00
        -11   -1    0    0    0    0  0.00000000000E+00  0.00000000000E+00  0.45593999997E+02  0.45594000000E+02  0.51100000000E-03 0.  1.
         11   -1    0    0    0    0 -0.00000000000E+00 -0.00000000000E+00 -0.45593999997E+02  0.45594000000E+02  0.51100000000E-03 0. -1.
    9900012    2    1    2    0    0  0.22001571568E+02 -0.98940547028E+01  0.36078549308E+02  0.47787272010E+02  0.20000004402E+02 0.  0.
         12    1    1    2    0    0 -0.22001571568E+02  0.98940547028E+01 -0.36078549308E+02  0.43400727990E+02  0.00000000000E+00 0. -1.
         11    1    3    3    0    0  0.55889199652E+01  0.48500427245E+00  0.12100320444E+02  0.13337503913E+02  0.51100000000E-03 0. -1.
        -11    1    3    3    0    0  0.17554641968E+02 -0.11255545028E+02  0.25094577754E+02  0.32628064322E+02  0.51100000000E-03 0.  1.
         12    1    3    3    0    0 -0.11419903653E+01  0.87648605257E+00 -0.11163488910E+01  0.18217037743E+01  0.00000000000E+00 0. -1.
</event>
<event>
 7    1  0.4005571E-009  0.4778727E+02  0.7816164E-02  0.1312668E+00
        -11   -1    0    0    0    0  0.00000000000E+00  0.00000000000E+00  0.45593999997E+02  0.45594000000E+02  0.51100000000E-03 0.  1.
         11   -1    0    0    0    0 -0.00000000000E+00 -0.00000000000E+00 -0.45593999997E+02  0.45594000000E+02  0.51100000000E-03 0. -1.
    9900012    2    1    2    0    0 -0.28704506431E+01  0.20616982524E+02  0.38083120686E+02  0.47787268019E+02  0.19999986207E+02 0.  0.
         12    1    1    2    0    0  0.28704506431E+01 -0.20616982524E+02 -0.38083120686E+02  0.43400731981E+02  0.00000000000E+00 0. -1.
         11    1    3    3    0    0 -0.31586647726E+00  0.75925633621E+01  0.25667382397E+01  0.80209061515E+01  0.51100000000E-03 0. -1.
        -11    1    3    3    0    0  0.18409551255E+01  0.16409545709E+01  0.28616331223E+00  0.24826875318E+01  0.51100000000E-03 0.  1.
        -12    1    3    3    0    0 -0.43955392914E+01  0.11383464591E+02  0.35230219134E+02  0.37283674336E+02  0.00000000000E+00 0.  1.
</event>
<event>
 7    1  0.4005571E-009  0.4778727E+02  0.7816164E-02  0.1312668E+00
        -11   -1    0    0    0    0  0.00000000000E+00  0.00000000000E+00  0.45593999997E+02  0.45594000000E+02  0.51100000000E-03 0.  1.
         11   -1    0    0    0    0 -0.00000000000E+00 -0.00000000000E+00 -0.45593999997E+02  0.45594000000E+02  0.51100000000E-03 0. -1.
    9900012    2    1    2    0    0 -0.12359039286E+02 -0.28347383579E+01  0.41507130277E+02  0.47787268929E+02  0.19999990355E+02 0.  0.
         12    1    1    2    0    0  0.12359039286E+02  0.28347383579E+01 -0.41507130277E+02  0.43400731071E+02  0.00000000000E+00 0. -1.
         11    1    3    3    0    0 -0.45914844750E+00 -0.88979388460E+01  0.14278734588E+02  0.16830519739E+02  0.51100000000E-03 0. -1.
        -11    1    3    3    0    0 -0.29138723169E+01 -0.34815631720E+00  0.10593344475E+02  0.10992306952E+02  0.51100000000E-03 0.  1.
        -12    1    3    3    0    0 -0.89860185213E+01  0.64113568053E+01  0.16635051214E+02  0.19964442238E+02  0.00000000000E+00 0.  1.
</event>
<event>
 7    1  0.4005571E-009  0.4778728E+02  0.7816164E-02  0.1312668E+00
        -11   -1    0    0    0    0  0.00000000000E+00  0.00000000000E+00  0.45593999997E+02  0.45594000000E+02  0.51100000000E-03 0.  1.
         11   -1    0    0    0    0 -0.00000000000E+00 -0.00000000000E+00 -0.45593999997E+02  0.45594000000E+02  0.51100000000E-03 0. -1.
    9900012    2    1    2    0    0  0.36682972088E+02  0.21064110147E+02  0.97100835475E+01  0.47787275352E+02  0.20000019638E+02 0.  0.
         12    1    1    2    0    0 -0.36682972088E+02 -0.21064110147E+02 -0.97100835475E+01  0.43400724648E+02  0.00000000000E+00 0. -1.
         11    1    3    3    0    0  0.10678120383E+02  0.24276508035E+01  0.67208181466E+01  0.12848546227E+02  0.51100000000E-03 0. -1.
        -11    1    3    3    0    0  0.12206988617E+02  0.14296139428E+01  0.38108548493E+01  0.12867671975E+02  0.51100000000E-03 0.  1.
         12    1    3    3    0    0  0.13797863089E+02  0.17206845401E+02 -0.82158944847E+00  0.22071057149E+02  0.00000000000E+00 0. -1.
</event>
<event>
 7    1  0.4005571E-009  0.4778726E+02  0.7816164E-02  0.1312668E+00
        -11   -1    0    0    0    0  0.00000000000E+00  0.00000000000E+00  0.45593999997E+02  0.45594000000E+02  0.51100000000E-03 0. -1.
         11   -1    0    0    0    0 -0.00000000000E+00 -0.00000000000E+00 -0.45593999997E+02  0.45594000000E+02  0.51100000000E-03 0.  1.
    9900012    2    1    2    0    0 -0.40657478306E+02  0.12819825726E+02  0.81391704724E+01  0.47787256115E+02  0.19999931929E+02 0.  0.
         12    1    1    2    0    0  0.40657478306E+02 -0.12819825726E+02 -0.81391704724E+01  0.43400743885E+02  0.00000000000E+00 0. -1.
         11    1    3    3    0    0 -0.44860853558E+01  0.52262768708E+01  0.29478837770E+01  0.74919257053E+01  0.51100000000E-03 0. -1.
        -11    1    3    3    0    0 -0.19244959762E+02  0.91485947628E+01  0.85655592047E+01  0.22965932751E+02  0.51100000000E-03 0.  1.
        -12    1    3    3    0    0 -0.16926433188E+02 -0.15550459074E+01 -0.33742725093E+01  0.17329397659E+02  0.00000000000E+00 0.  1.
</event>
<event>
 7    1  0.4005571E-009  0.4778727E+02  0.7816164E-02  0.1312668E+00
        -11   -1    0    0    0    0  0.00000000000E+00  0.00000000000E+00  0.45593999997E+02  0.45594000000E+02  0.51100000000E-03 0.  1.
         11   -1    0    0    0    0 -0.00000000000E+00 -0.00000000000E+00 -0.45593999997E+02  0.45594000000E+02  0.51100000000E-03 0. -1.
    9900012    2    1    2    0    0  0.30290630094E+02 -0.28260963698E+02  0.12939050200E+02  0.47787270044E+02  0.19999995437E+02 0.  0.
         12    1    1    2    0    0 -0.30290630094E+02  0.28260963698E+02 -0.12939050200E+02  0.43400729956E+02  0.00000000000E+00 0. -1.
         11    1    3    3    0    0 -0.10039290940E+01 -0.38166680840E+01  0.31483281264E-01  0.39466213838E+01  0.51100000000E-03 0. -1.
        -11    1    3    3    0    0  0.14313335413E+02 -0.16201149914E+02  0.12475050094E+02  0.24959481250E+02  0.51100000000E-03 0.  1.
        -12    1    3    3    0    0  0.16981223776E+02 -0.82431457006E+01  0.43251682492E+00  0.18881167410E+02  0.00000000000E+00 0.  1.
</event>
<event>
 7    1  0.4005571E-009  0.4778724E+02  0.7816164E-02  0.1312668E+00
        -11   -1    0    0    0    0  0.00000000000E+00  0.00000000000E+00  0.45593999997E+02  0.45594000000E+02  0.51100000000E-03 0.  1.
         11   -1    0    0    0    0 -0.00000000000E+00 -0.00000000000E+00 -0.45593999997E+02  0.45594000000E+02  0.51100000000E-03 0. -1.
    9900012    2    1    2    0    0 -0.20552342035E+02 -0.23096177967E+02  0.30459707832E+02  0.47787239626E+02  0.19999856752E+02 0.  0.
         12    1    1    2    0    0  0.20552342035E+02  0.23096177967E+02 -0.30459707832E+02  0.43400760374E+02  0.00000000000E+00 0. -1.
         11    1    3    3    0    0 -0.39951313951E+01  0.14289005403E+01  0.59981436496E+01  0.73471463250E+01  0.51100000000E-03 0. -1.
        -11    1    3    3    0    0 -0.60250541632E+01 -0.94990749967E+01  0.17522331364E+02  0.20822242918E+02  0.51100000000E-03 0.  1.
        -12    1    3    3    0    0 -0.10532156476E+02 -0.15026003511E+02  0.69392328187E+01  0.19617850383E+02  0.00000000000E+00 0.  1.
</event>
<event>
 7    1  0.4005571E-009  0.4778727E+02  0.7816164E-02  0.1312668E+00
        -11   -1    0    0    0    0  0.00000000000E+00  0.00000000000E+00  0.45593999997E+02  0.45594000000E+02  0.51100000000E-03 0. -1.
         11   -1    0    0    0    0 -0.00000000000E+00 -0.00000000000E+00 -0.45593999997E+02  0.45594000000E+02  0.51100000000E-03 0.  1.
    9900012    2    1    2    0    0 -0.90750799422E+01 -0.30784566428E+02 -0.29216037851E+02  0.47787268741E+02  0.19999989498E+02 0.  0.
         12    1    1    2    0    0  0.90750799422E+01  0.30784566428E+02  0.29216037851E+02  0.43400731259E+02  0.00000000000E+00 0. -1.
         11    1    3    3    0    0  0.40779004195E+01 -0.10452885144E+01 -0.49502508657E+01  0.64982215878E+01  0.51100000000E-03 0. -1.
        -11    1    3    3    0    0 -0.35488732415E+01 -0.24074866974E+01 -0.45138368864E+01  0.62261719524E+01  0.51100000000E-03 0.  1.
        -12    1    3    3    0    0 -0.96041071202E+01 -0.27331791216E+02 -0.19751950098E+02  0.35062875201E+02  0.00000000000E+00 0.  1.
</event>
<event>
 7    1  0.4005571E-009  0.4778727E+02  0.7816164E-02  0.1312668E+00
        -11   -1    0    0    0    0  0.00000000000E+00  0.00000000000E+00  0.45593999997E+02  0.45594000000E+02  0.51100000000E-03 0.  1.
         11   -1    0    0    0    0 -0.00000000000E+00 -0.00000000000E+00 -0.45593999997E+02  0.45594000000E+02  0.51100000000E-03 0. -1.
    9900012    2    1    2    0    0 -0.29472229846E+02  0.12578651922E+02  0.29270948121E+02  0.47787271663E+02  0.20000002822E+02 0.  0.
         12    1    1    2    0    0  0.29472229846E+02 -0.12578651922E+02 -0.29270948121E+02  0.43400728337E+02  0.00000000000E+00 0. -1.
         11    1    3    3    0    0 -0.15949080812E+02  0.15202292171E+02  0.15626283049E+02  0.27012285875E+02  0.51100000000E-03 0. -1.
        -11    1    3    3    0    0 -0.77961876237E+01  0.19379277120E+01  0.91833400595E+01  0.12201222897E+02  0.51100000000E-03 0.  1.
         12    1    3    3    0    0 -0.57269614103E+01 -0.45615679606E+01  0.44613250118E+01  0.85737628913E+01  0.00000000000E+00 0. -1.
</event>
<event>
 7    1  0.4005571E-009  0.4778726E+02  0.7816164E-02  0.1312668E+00
        -11   -1    0    0    0    0  0.00000000000E+00  0.00000000000E+00  0.45593999997E+02  0.45594000000E+02  0.51100000000E-03 0.  1.
         11   -1    0    0    0    0 -0.00000000000E+00 -0.00000000000E+00 -0.45593999997E+02  0.45594000000E+02  0.51100000000E-03 0. -1.
    9900012    2    1    2    0    0  0.18223130526E+02  0.17307294469E+02  0.35383599314E+02  0.47787262352E+02  0.19999960366E+02 0.  0.
         12    1    1    2    0    0 -0.18223130526E+02 -0.17307294469E+02 -0.35383599314E+02  0.43400737648E+02  0.00000000000E+00 0. -1.
         11    1    3    3    0    0  0.12029874716E+02  0.14581713544E+02  0.21713068350E+02  0.28788914412E+02  0.51100000000E-03 0. -1.
        -11    1    3    3    0    0 -0.11420534938E+01  0.35083877302E+01  0.10198045059E+02  0.10844961684E+02  0.51100000000E-03 0.  1.
         12    1    3    3    0    0  0.73353093042E+01 -0.78280680453E+00  0.34724859043E+01  0.81533862558E+01  0.00000000000E+00 0. -1.
</event>
<event>
 7    1  0.4005571E-009  0.4778728E+02  0.7816164E-02  0.1312668E+00
        -11   -1    0    0    0    0  0.00000000000E+00  0.00000000000E+00  0.45593999997E+02  0.45594000000E+02  0.51100000000E-03 0.  1.
         11   -1    0    0    0    0 -0.00000000000E+00 -0.00000000000E+00 -0.45593999997E+02  0.45594000000E+02  0.51100000000E-03 0. -1.
    9900012    2    1    2    0    0 -0.86254214655E+01 -0.25323110666E+02 -0.34175504359E+02  0.47787275036E+02  0.20000018198E+02 0.  0.
         12    1    1    2    0    0  0.86254214655E+01  0.25323110666E+02  0.34175504359E+02  0.43400724964E+02  0.00000000000E+00 0. -1.
         11    1    3    3    0    0 -0.37314618436E+01 -0.39463323033E+01 -0.63086476541E+01  0.83244448238E+01  0.51100000000E-03 0. -1.
        -11    1    3    3    0    0  0.38081742115E+01 -0.15071326192E+02 -0.96031064217E+01  0.18272020064E+02  0.51100000000E-03 0.  1.
        -12    1    3    3    0    0 -0.87021338334E+01 -0.63054521706E+01 -0.18263750283E+02  0.21190810148E+02  0.00000000000E+00 0.  1.
</event>
<event>
 7    1  0.4005571E-009  0.4778727E+02  0.7816164E-02  0.1312668E+00
        -11   -1    0    0    0    0  0.00000000000E+00  0.00000000000E+00  0.45593999997E+02  0.45594000000E+02  0.51100000000E-03 0.  1.
         11   -1    0    0    0    0 -0.00000000000E+00 -0.00000000000E+00 -0.45593999997E+02  0.45594000000E+02  0.51100000000E-03 0. -1.
    9900012    2    1    2    0    0 -0.16119068077E+02 -0.34601044353E+02  0.20653492584E+02  0.47787269800E+02  0.19999994327E+02 0.  0.
         12    1    1    2    0    0  0.16119068077E+02  0.34601044353E+02 -0.20653492584E+02  0.43400730200E+02  0.00000000000E+00 0. -1.
         11    1    3    3    0    0 -0.26813264853E+01 -0.98187789628E+01  0.42107856706E+01  0.11014928428E+02  0.51100000000E-03 0. -1.
        -11    1    3    3    0    0 -0.15783992341E+02 -0.13562436976E+02  0.71117223136E+01  0.21992060055E+02  0.51100000000E-03 0.  1.
         12    1    3    3    0    0  0.23462507491E+01 -0.11219828414E+02  0.93309846001E+01  0.14780281317E+02  0.00000000000E+00 0. -1.
</event>
<event>
 7    1  0.4005571E-009  0.4778727E+02  0.7816164E-02  0.1312668E+00
        -11   -1    0    0    0    0  0.00000000000E+00  0.00000000000E+00  0.45593999997E+02  0.45594000000E+02  0.51100000000E-03 0. -1.
         11   -1    0    0    0    0 -0.00000000000E+00 -0.00000000000E+00 -0.45593999997E+02  0.45594000000E+02  0.51100000000E-03 0.  1.
    9900012    2    1    2    0    0 -0.43775714005E+01 -0.43312435503E+01 -0.42961618156E+02  0.47787269169E+02  0.19999991450E+02 0.  0.
         12    1    1    2    0    0  0.43775714005E+01  0.43312435503E+01  0.42961618156E+02  0.43400730831E+02  0.00000000000E+00 0. -1.
         11    1    3    3    0    0 -0.51851144456E+01  0.74647361503E+00 -0.35595011625E+01  0.63334574649E+01  0.51100000000E-03 0. -1.
        -11    1    3    3    0    0 -0.46370796839E+01  0.55696843714E+00 -0.19807482515E+02  0.20350653200E+02  0.51100000000E-03 0.  1.
         12    1    3    3    0    0  0.54446227289E+01 -0.56346856025E+01 -0.19594634479E+02  0.21103158504E+02  0.00000000000E+00 0. -1.
</event>
<event>
 7    1  0.4005571E-009  0.4778727E+02  0.7816164E-02  0.1312668E+00
        -11   -1    0    0    0    0  0.00000000000E+00  0.00000000000E+00  0.45593999997E+02  0.45594000000E+02  0.51100000000E-03 0.  1.
         11   -1    0    0    0    0 -0.00000000000E+00 -0.00000000000E+00 -0.45593999997E+02  0.45594000000E+02  0.51100000000E-03 0. -1.
    9900012    2    1    2    0    0  0.42627598413E+02 -0.80662718376E+01  0.12025513938E+01  0.47787273996E+02  0.20000013456E+02 0.  0.
         12    1    1    2    0    0 -0.42627598413E+02  0.80662718376E+01 -0.12025513938E+01  0.43400726004E+02  0.00000000000E+00 0. -1.
         11    1    3    3    0    0  0.64007995622E+01  0.41153636612E+01 -0.70415235923E+00  0.76421386997E+01  0.51100000000E-03 0. -1.
        -11    1    3    3    0    0  0.14781274012E+02 -0.10422112933E+01  0.53099441046E+01  0.15740640789E+02  0.51100000000E-03 0.  1.
        -12    1    3    3    0    0  0.21445524839E+02 -0.11139424205E+02 -0.34032403515E+01  0.24404494507E+02  0.00000000000E+00 0.  1.
</event>
<event>
 7    1  0.4005571E-009  0.4778727E+02  0.7816164E-02  0.1312668E+00
        -11   -1    0    0    0    0  0.00000000000E+00  0.00000000000E+00  0.45593999997E+02  0.45594000000E+02  0.51100000000E-03 0.  1.
         11   -1    0    0    0    0 -0.00000000000E+00 -0.00000000000E+00 -0.45593999997E+02  0.45594000000E+02  0.51100000000E-03 0. -1.
    9900012    2    1    2    0    0  0.34452594327E+02  0.32576448275E+01  0.26192173510E+02  0.47787268913E+02  0.19999990284E+02 0.  0.
         12    1    1    2    0    0 -0.34452594327E+02 -0.32576448275E+01 -0.26192173510E+02  0.43400731087E+02  0.00000000000E+00 0. -1.
         11    1    3    3    0    0  0.71663564749E+01  0.42937414281E+01 -0.85769952302E+00  0.83981265357E+01  0.51100000000E-03 0. -1.
        -11    1    3    3    0    0  0.17818129389E+01  0.19502839789E+00  0.61081178133E+01  0.63656890364E+01  0.51100000000E-03 0.  1.
        -12    1    3    3    0    0  0.25504424913E+02 -0.12311249985E+01  0.20941755220E+02  0.33023453341E+02  0.00000000000E+00 0.  1.
</event>
<event>
 7    1  0.4005571E-009  0.4778727E+02  0.7816164E-02  0.1312668E+00
        -11   -1    0    0    0    0  0.00000000000E+00  0.00000000000E+00  0.45593999997E+02  0.45594000000E+02  0.51100000000E-03 0.  1.
         11   -1    0    0    0    0 -0.00000000000E+00 -0.00000000000E+00 -0.45593999997E+02  0.45594000000E+02  0.51100000000E-03 0. -1.
    9900012    2    1    2    0    0 -0.11178327705E+02 -0.40386727088E+02  0.11295159089E+02  0.47787270121E+02  0.19999995790E+02 0.  0.
         12    1    1    2    0    0  0.11178327705E+02  0.40386727088E+02 -0.11295159089E+02  0.43400729879E+02  0.00000000000E+00 0. -1.
         11    1    3    3    0    0 -0.60954261089E+00 -0.10088561612E+01  0.25063295428E+01  0.27696608072E+01  0.51100000000E-03 0. -1.
        -11    1    3    3    0    0 -0.94058222269E+01 -0.40518817914E+02  0.63403573061E+01  0.42076647062E+02  0.51100000000E-03 0.  1.
        -12    1    3    3    0    0 -0.11629628670E+01  0.11409469871E+01  0.24484722402E+01  0.29409622521E+01  0.00000000000E+00 0.  1.
</event>
<event>
 7    1  0.4005571E-009  0.4778727E+02  0.7816164E-02  0.1312668E+00
        -11   -1    0    0    0    0  0.00000000000E+00  0.00000000000E+00  0.45593999997E+02  0.45594000000E+02  0.51100000000E-03 0. -1.
         11   -1    0    0    0    0 -0.00000000000E+00 -0.00000000000E+00 -0.45593999997E+02  0.45594000000E+02  0.51100000000E-03 0.  1.
    9900012    2    1    2    0    0  0.24438936899E+02  0.11322137162E+02 -0.34031910146E+02  0.47787270342E+02  0.19999996797E+02 0.  0.
         12    1    1    2    0    0 -0.24438936899E+02 -0.11322137162E+02  0.34031910146E+02  0.43400729658E+02  0.00000000000E+00 0. -1.
         11    1    3    3    0    0  0.16402469114E+02  0.72045507627E+01 -0.11288283735E+02  0.21174793852E+02  0.51100000000E-03 0. -1.
        -11    1    3    3    0    0  0.79257392180E+00 -0.17511939659E+01  0.11513657529E+00  0.19256454554E+01  0.51100000000E-03 0.  1.
        -12    1    3    3    0    0  0.72438938631E+01  0.58687803648E+01 -0.22858762986E+02  0.24686831035E+02  0.00000000000E+00 0.  1.
</event>
<event>
 7    1  0.4005571E-009  0.4778724E+02  0.7816164E-02  0.1312668E+00
        -11   -1    0    0    0    0  0.00000000000E+00  0.00000000000E+00  0.45593999997E+02  0.45594000000E+02  0.51100000000E-03 0.  1.
         11   -1    0    0    0    0 -0.00000000000E+00 -0.00000000000E+00 -0.45593999997E+02  0.45594000000E+02  0.51100000000E-03 0. -1.
    9900012    2    1    2    0    0  0.39250368477E+02 -0.15681912259E+02  0.98545374701E+01  0.47787243020E+02  0.19999872225E+02 0.  0.
         12    1    1    2    0    0 -0.39250368477E+02  0.15681912259E+02 -0.98545374701E+01  0.43400756980E+02  0.00000000000E+00 0. -1.
         11    1    3    3    0    0  0.22946023876E+02  0.13438984162E+01  0.27739870778E+01  0.23152129043E+02  0.51100000000E-03 0. -1.
        -11    1    3    3    0    0  0.39959020809E+01 -0.40668930095E+01  0.21664688954E+01  0.60992163371E+01  0.51100000000E-03 0.  1.
         12    1    3    3    0    0  0.12308442520E+02 -0.12958917666E+02  0.49140814969E+01  0.18535897640E+02  0.00000000000E+00 0. -1.
</event>
<event>
 7    1  0.5739062E-009  0.4778727E+02  0.7816164E-02  0.1312668E+00
        -11   -1    0    0    0    0  0.00000000000E+00  0.00000000000E+00  0.45593999997E+02  0.45594000000E+02  0.51100000000E-03 0. -1.
         11   -1    0    0    0    0 -0.00000000000E+00 -0.00000000000E+00 -0.45593999997E+02  0.45594000000E+02  0.51100000000E-03 0.  1.
    9900012    2    1    2    0    0 -0.39722427922E+02  0.17071099422E+02 -0.37854892719E+01  0.47787266775E+02  0.19999980533E+02 0.  0.
         12    1    1    2    0    0  0.39722427922E+02 -0.17071099422E+02  0.37854892719E+01  0.43400733225E+02  0.00000000000E+00 0. -1.
         11    1    3    3    0    0 -0.14873082401E+01 -0.19037499035E+01  0.12222780746E+01  0.27074551610E+01  0.51100000000E-03 0. -1.
        -11    1    3    3    0    0 -0.14367163921E+01  0.28672036111E+01 -0.36899317829E+01  0.48888247425E+01  0.51100000000E-03 0.  1.
        -12    1    3    3    0    0 -0.36798403289E+02  0.16107645714E+02 -0.13178355636E+01  0.40190986871E+02  0.00000000000E+00 0.  1.
</event>
<event>
 7    1  0.4005571E-009  0.4778727E+02  0.7816164E-02  0.1312668E+00
        -11   -1    0    0    0    0  0.00000000000E+00  0.00000000000E+00  0.45593999997E+02  0.45594000000E+02  0.51100000000E-03 0.  1.
         11   -1    0    0    0    0 -0.00000000000E+00 -0.00000000000E+00 -0.45593999997E+02  0.45594000000E+02  0.51100000000E-03 0. -1.
    9900012    2    1    2    0    0 -0.31966337725E+01  0.25461648424E+01  0.43207888126E+02  0.47787273978E+02  0.20000013377E+02 0.  0.
         12    1    1    2    0    0  0.31966337725E+01 -0.25461648424E+01 -0.43207888126E+02  0.43400726022E+02  0.00000000000E+00 0. -1.
         11    1    3    3    0    0 -0.31490054116E+01 -0.12778533128E+01  0.21071023181E+02  0.21343316572E+02  0.51100000000E-03 0. -1.
        -11    1    3    3    0    0 -0.31492340514E+01 -0.17524721579E+01  0.18990408356E+02  0.19329367387E+02  0.51100000000E-03 0.  1.
         12    1    3    3    0    0  0.31016056906E+01  0.55764903132E+01  0.31464565894E+01  0.71145900192E+01  0.00000000000E+00 0. -1.
</event>
<event>
 7    1  0.4005571E-009  0.4778727E+02  0.7816164E-02  0.1312668E+00
        -11   -1    0    0    0    0  0.00000000000E+00  0.00000000000E+00  0.45593999997E+02  0.45594000000E+02  0.51100000000E-03 0.  1.
         11   -1    0    0    0    0 -0.00000000000E+00 -0.00000000000E+00 -0.45593999997E+02  0.45594000000E+02  0.51100000000E-03 0. -1.
    9900012    2    1    2    0    0  0.38715739253E+02  0.19612558421E+02  0.24911439208E+00  0.47787274526E+02  0.20000015872E+02 0.  0.
         12    1    1    2    0    0 -0.38715739253E+02 -0.19612558421E+02 -0.24911439208E+00  0.43400725474E+02  0.00000000000E+00 0. -1.
         11    1    3    3    0    0  0.69160996252E+01  0.60317335718E+01 -0.30202898068E+01  0.96610762695E+01  0.51100000000E-03 0. -1.
        -11    1    3    3    0    0  0.20281890964E+02  0.16283390415E+02  0.37889959716E+01  0.26284223314E+02  0.51100000000E-03 0.  1.
         12    1    3    3    0    0  0.11517748663E+02 -0.27025655659E+01 -0.51959177267E+00  0.11841974942E+02  0.00000000000E+00 0. -1.
</event>
<event>
 7    1  0.4005571E-009  0.4778727E+02  0.7816164E-02  0.1312668E+00
        -11   -1    0    0    0    0  0.00000000000E+00  0.00000000000E+00  0.45593999997E+02  0.45594000000E+02  0.51100000000E-03 0. -1.
         11   -1    0    0    0    0 -0.00000000000E+00 -0.00000000000E+00 -0.45593999997E+02  0.45594000000E+02  0.51100000000E-03 0.  1.
    9900012    2    1    2    0    0 -0.16501882970E+02  0.11233563767E+02 -0.38537232710E+02  0.47787269575E+02  0.19999993301E+02 0.  0.
         12    1    1    2    0    0  0.16501882970E+02 -0.11233563767E+02  0.38537232710E+02  0.43400730425E+02  0.00000000000E+00 0. -1.
         11    1    3    3    0    0 -0.84381476424E+01 -0.21143315233E+01 -0.11502694671E+02  0.14421675297E+02  0.51100000000E-03 0. -1.
        -11    1    3    3    0    0 -0.99065182333E+01  0.61619069847E+01 -0.12834657183E+02  0.17344642587E+02  0.51100000000E-03 0.  1.
         12    1    3    3    0    0  0.18427829058E+01  0.71859883055E+01 -0.14199880856E+02  0.16020951691E+02  0.00000000000E+00 0. -1.
</event>
<event>
 7    1  0.4005571E-009  0.4778727E+02  0.7816164E-02  0.1312668E+00
        -11   -1    0    0    0    0  0.00000000000E+00  0.00000000000E+00  0.45593999997E+02  0.45594000000E+02  0.51100000000E-03 0. -1.
         11   -1    0    0    0    0 -0.00000000000E+00 -0.00000000000E+00 -0.45593999997E+02  0.45594000000E+02  0.51100000000E-03 0.  1.
    9900012    2    1    2    0    0  0.34677882878E+02 -0.30745703725E+01 -0.25915538441E+02  0.47787266406E+02  0.19999978849E+02 0.  0.
         12    1    1    2    0    0 -0.34677882878E+02  0.30745703725E+01  0.25915538441E+02  0.43400733594E+02  0.00000000000E+00 0. -1.
         11    1    3    3    0    0  0.26056992563E+01  0.33564056047E+00 -0.52871553492E+01  0.59039254016E+01  0.51100000000E-03 0. -1.
        -11    1    3    3    0    0  0.27745987972E+02 -0.49997541646E+01 -0.23283365467E+02  0.36564361036E+02  0.51100000000E-03 0.  1.
         12    1    3    3    0    0  0.43261956497E+01  0.15895432316E+01  0.26549823755E+01  0.53189799679E+01  0.00000000000E+00 0. -1.
</event>
<event>
 7    1  0.4005571E-009  0.4778727E+02  0.7816164E-02  0.1312668E+00
        -11   -1    0    0    0    0  0.00000000000E+00  0.00000000000E+00  0.45593999997E+02  0.45594000000E+02  0.51100000000E-03 0.  1.
         11   -1    0    0    0    0 -0.00000000000E+00 -0.00000000000E+00 -0.45593999997E+02  0.45594000000E+02  0.51100000000E-03 0. -1.
    9900012    2    1    2    0    0  0.17699756008E+02 -0.23011656254E+02  0.32261517565E+02  0.47787271874E+02  0.20000003781E+02 0.  0.
         12    1    1    2    0    0 -0.17699756008E+02  0.23011656254E+02 -0.32261517565E+02  0.43400728126E+02  0.00000000000E+00 0. -1.
         11    1    3    3    0    0  0.48941348504E+01 -0.29829026092E+01  0.57183150535E+01  0.80962578530E+01  0.51100000000E-03 0. -1.
        -11    1    3    3    0    0 -0.36500818816E+01 -0.12145411569E+00  0.38957502194E+01  0.53399174972E+01  0.51100000000E-03 0.  1.
        -12    1    3    3    0    0  0.16455703039E+02 -0.19907299529E+02  0.22647452292E+02  0.34351096524E+02  0.00000000000E+00 0.  1.
</event>
<event>
 7    1  0.4005571E-009  0.4778726E+02  0.7816164E-02  0.1312668E+00
        -11   -1    0    0    0    0  0.00000000000E+00  0.00000000000E+00  0.45593999997E+02  0.45594000000E+02  0.51100000000E-03 0.  1.
         11   -1    0    0    0    0 -0.00000000000E+00 -0.00000000000E+00 -0.45593999997E+02  0.45594000000E+02  0.51100000000E-03 0. -1.
    9900012    2    1    2    0    0  0.21289053958E+02 -0.51748156062E+01  0.37464935553E+02  0.47787263474E+02  0.19999965485E+02 0.  0.
         12    1    1    2    0    0 -0.21289053958E+02  0.51748156062E+01 -0.37464935553E+02  0.43400736526E+02  0.00000000000E+00 0. -1.
         11    1    3    3    0    0 -0.48516341647E+00  0.16204628565E+01  0.70638955351E+01  0.72636012970E+01  0.51100000000E-03 0. -1.
        -11    1    3    3    0    0 -0.16228777842E+01 -0.17204055791E+00  0.54262946419E+01  0.56663925083E+01  0.51100000000E-03 0.  1.
         12    1    3    3    0    0  0.23397095158E+02 -0.66232379048E+01  0.24974745376E+02  0.34857269669E+02  0.00000000000E+00 0. -1.
</event>
<event>
 7    1  0.4005571E-009  0.4778727E+02  0.7816164E-02  0.1312668E+00
        -11   -1    0    0    0    0  0.00000000000E+00  0.00000000000E+00  0.45593999997E+02  0.45594000000E+02  0.51100000000E-03 0.  1.
         11   -1    0    0    0    0 -0.00000000000E+00 -0.00000000000E+00 -0.45593999997E+02  0.45594000000E+02  0.51100000000E-03 0. -1.
    9900012    2    1    2    0    0  0.33616508049E+01  0.43146084328E+02 -0.32768803778E+01  0.47787271504E+02  0.20000002093E+02 0.  0.
         12    1    1    2    0    0 -0.33616508049E+01 -0.43146084328E+02  0.32768803778E+01  0.43400728496E+02  0.00000000000E+00 0. -1.
         11    1    3    3    0    0 -0.54271632188E+00  0.28057066039E+02  0.13251113591E+00  0.28062627375E+02  0.51100000000E-03 0.  1.
        -11    1    3    3    0    0  0.24091518528E+01  0.73345860695E+01  0.41737174402E+01  0.87761086475E+01  0.51100000000E-03 0. -1.
        -12    1    3    3    0    0  0.14952152740E+01  0.77544322198E+01 -0.75831089540E+01  0.10948535481E+02  0.00000000000E+00 0.  1.
</event>
<event>
 7    1  0.4005571E-009  0.4778727E+02  0.7816164E-02  0.1312668E+00
        -11   -1    0    0    0    0  0.00000000000E+00  0.00000000000E+00  0.45593999997E+02  0.45594000000E+02  0.51100000000E-03 0.  1.
         11   -1    0    0    0    0 -0.00000000000E+00 -0.00000000000E+00 -0.45593999997E+02  0.45594000000E+02  0.51100000000E-03 0. -1.
    9900012    2    1    2    0    0  0.32086476955E+02 -0.28569985951E+02 -0.61511895498E+01  0.47787271510E+02  0.20000002122E+02 0.  0.
         12    1    1    2    0    0 -0.32086476955E+02  0.28569985951E+02  0.61511895498E+01  0.43400728490E+02  0.00000000000E+00 0. -1.
         11    1    3    3    0    0  0.10475418671E+02 -0.11550645176E+02  0.68053715093E+01  0.17013667505E+02  0.51100000000E-03 0. -1.
        -11    1    3    3    0    0  0.14024509086E+01 -0.27446097584E+01 -0.22425908946E+01  0.38116880064E+01  0.51100000000E-03 0.  1.
         12    1    3    3    0    0  0.20208607375E+02 -0.14274731016E+02 -0.10713970165E+02  0.26961915999E+02  0.00000000000E+00 0. -1.
</event>
<event>
 7    1  0.4005571E-009  0.4778726E+02  0.7816164E-02  0.1312668E+00
        -11   -1    0    0    0    0  0.00000000000E+00  0.00000000000E+00  0.45593999997E+02  0.45594000000E+02  0.51100000000E-03 0. -1.
         11   -1    0    0    0    0 -0.00000000000E+00 -0.00000000000E+00 -0.45593999997E+02  0.45594000000E+02  0.51100000000E-03 0.  1.
    9900012    2    1    2    0    0 -0.42683753145E+02 -0.59202033911E+01 -0.51645479064E+01  0.47787260999E+02  0.19999954200E+02 0.  0.
         12    1    1    2    0    0  0.42683753145E+02  0.59202033911E+01  0.51645479064E+01  0.43400739001E+02  0.00000000000E+00 0. -1.
         11    1    3    3    0    0 -0.41574824192E+01 -0.55166333874E+01  0.16613826407E+01  0.71047939123E+01  0.51100000000E-03 0. -1.
        -11    1    3    3    0    0 -0.22617143873E+02 -0.54462515242E+01 -0.22197617333E+01  0.23369300269E+02  0.51100000000E-03 0.  1.
        -12    1    3    3    0    0 -0.15909126852E+02  0.50426815205E+01 -0.46061688138E+01  0.17313166818E+02  0.00000000000E+00 0.  1.
</event>
<event>
 7    1  0.4005571E-009  0.4778727E+02  0.7816164E-02  0.1312668E+00
        -11   -1    0    0    0    0  0.00000000000E+00  0.00000000000E+00  0.45593999997E+02  0.45594000000E+02  0.51100000000E-03 0.  1.
         11   -1    0    0    0    0 -0.00000000000E+00 -0.00000000000E+00 -0.45593999997E+02  0.45594000000E+02  0.51100000000E-03 0. -1.
    9900012    2    1    2    0    0  0.45931283103E+01 -0.18546956459E+02  0.38968408976E+02  0.47787270516E+02  0.19999997592E+02 0.  0.
         12    1    1    2    0    0 -0.45931283103E+01  0.18546956459E+02 -0.38968408976E+02  0.43400729484E+02  0.00000000000E+00 0. -1.
         11    1    3    3    0    0 -0.37128691094E+01 -0.26456924693E+01  0.45138489495E+01  0.64155996030E+01  0.51100000000E-03 0. -1.
        -11    1    3    3    0    0  0.23880262163E+01  0.11351646080E+01  0.13356773367E+02  0.13615970877E+02  0.51100000000E-03 0.  1.
         12    1    3    3    0    0  0.59179712034E+01 -0.17036428598E+02  0.21097786660E+02  0.27755700036E+02  0.00000000000E+00 0. -1.
</event>
<event>
 7    1  0.4005571E-009  0.4778727E+02  0.7816164E-02  0.1312668E+00
        -11   -1    0    0    0    0  0.00000000000E+00  0.00000000000E+00  0.45593999997E+02  0.45594000000E+02  0.51100000000E-03 0. -1.
         11   -1    0    0    0    0 -0.00000000000E+00 -0.00000000000E+00 -0.45593999997E+02  0.45594000000E+02  0.51100000000E-03 0.  1.
    9900012    2    1    2    0    0  0.19300357131E+02  0.69787692822E+00 -0.38866857241E+02  0.47787269484E+02  0.19999992884E+02 0.  0.
         12    1    1    2    0    0 -0.19300357131E+02 -0.69787692822E+00  0.38866857241E+02  0.43400730516E+02  0.00000000000E+00 0. -1.
         11    1    3    3    0    0  0.11223986909E+02 -0.40009472727E+01 -0.18911485685E+02  0.22352399251E+02  0.51100000000E-03 0. -1.
        -11    1    3    3    0    0  0.70242715731E+01 -0.58458151304E+00 -0.18584180624E+02  0.19875962779E+02  0.51100000000E-03 0.  1.
         12    1    3    3    0    0  0.10520986485E+01  0.52834057140E+01 -0.13711909322E+01  0.55589074536E+01  0.00000000000E+00 0. -1.
</event>
<event>
 7    1  0.4005571E-009  0.4778726E+02  0.7816164E-02  0.1312668E+00
        -11   -1    0    0    0    0  0.00000000000E+00  0.00000000000E+00  0.45593999997E+02  0.45594000000E+02  0.51100000000E-03 0.  1.
         11   -1    0    0    0    0 -0.00000000000E+00 -0.00000000000E+00 -0.45593999997E+02  0.45594000000E+02  0.51100000000E-03 0. -1.
    9900012    2    1    2    0    0 -0.32580122283E+02 -0.28399159439E+02  0.39556786420E+01  0.47787262468E+02  0.19999960896E+02 0.  0.
         12    1    1    2    0    0  0.32580122283E+02  0.28399159439E+02 -0.39556786420E+01  0.43400737532E+02  0.00000000000E+00 0. -1.
         11    1    3    3    0    0  0.16015758485E+01 -0.13128144636E+01  0.14991408029E+01  0.25565504928E+01  0.51100000000E-03 0. -1.
        -11    1    3    3    0    0 -0.87284095436E+01 -0.63065687346E+01  0.57506288301E+01  0.12207689158E+02  0.51100000000E-03 0.  1.
        -12    1    3    3    0    0 -0.25453288588E+02 -0.20779776240E+02 -0.32940909909E+01  0.33023022818E+02  0.00000000000E+00 0.  1.
</event>
<event>
 7    1  0.4005571E-009  0.4778727E+02  0.7816164E-02  0.1312668E+00
        -11   -1    0    0    0    0  0.00000000000E+00  0.00000000000E+00  0.45593999997E+02  0.45594000000E+02  0.51100000000E-03 0.  1.
         11   -1    0    0    0    0 -0.00000000000E+00 -0.00000000000E+00 -0.45593999997E+02  0.45594000000E+02  0.51100000000E-03 0. -1.
    9900012    2    1    2    0    0  0.30491395848E+01  0.81063645019E+00  0.43285896331E+02  0.47787271839E+02  0.20000003624E+02 0.  0.
         12    1    1    2    0    0 -0.30491395848E+01 -0.81063645019E+00 -0.43285896331E+02  0.43400728161E+02  0.00000000000E+00 0. -1.
         11    1    3    3    0    0 -0.38161772147E+01  0.57291992450E+01  0.92717841955E+01  0.11547853262E+02  0.51100000000E-03 0. -1.
        -11    1    3    3    0    0 -0.80158373862E+00 -0.12516256321E+01  0.18419413759E+02  0.18479283176E+02  0.51100000000E-03 0.  1.
         12    1    3    3    0    0  0.76669005382E+01 -0.36669371627E+01  0.15594698377E+02  0.17760135402E+02  0.00000000000E+00 0. -1.
</event>
<event>
 7    1  0.4005571E-009  0.4778728E+02  0.7816164E-02  0.1312668E+00
        -11   -1    0    0    0    0  0.00000000000E+00  0.00000000000E+00  0.45593999997E+02  0.45594000000E+02  0.51100000000E-03 0.  1.
         11   -1    0    0    0    0 -0.00000000000E+00 -0.00000000000E+00 -0.45593999997E+02  0.45594000000E+02  0.51100000000E-03 0. -1.
    9900012    2    1    2    0    0  0.14838768129E+02 -0.14432413663E+02  0.38146287578E+02  0.47787275816E+02  0.20000021754E+02 0.  0.
         12    1    1    2    0    0 -0.14838768129E+02  0.14432413663E+02 -0.38146287578E+02  0.43400724184E+02  0.00000000000E+00 0. -1.
         11    1    3    3    0    0  0.63468637509E+01 -0.14629812759E+02  0.25328630880E+02  0.29930814278E+02  0.51100000000E-03 0. -1.
        -11    1    3    3    0    0  0.82650690338E+01 -0.32373392329E+01  0.81017093990E+01  0.12017879467E+02  0.51100000000E-03 0.  1.
        -12    1    3    3    0    0  0.22683534422E+00  0.34347383291E+01  0.47159472994E+01  0.58385820705E+01  0.00000000000E+00 0.  1.
</event>
<event>
 7    1  0.4005571E-009  0.4778727E+02  0.7816164E-02  0.1312668E+00
        -11   -1    0    0    0    0  0.00000000000E+00  0.00000000000E+00  0.45593999997E+02  0.45594000000E+02  0.51100000000E-03 0.  1.
         11   -1    0    0    0    0 -0.00000000000E+00 -0.00000000000E+00 -0.45593999997E+02  0.45594000000E+02  0.51100000000E-03 0. -1.
    9900012    2    1    2    0    0  0.16781440805E+02  0.17923938207E+02  0.35787413615E+02  0.47787270864E+02  0.19999999176E+02 0.  0.
         12    1    1    2    0    0 -0.16781440805E+02 -0.17923938207E+02 -0.35787413615E+02  0.43400729136E+02  0.00000000000E+00 0. -1.
         11    1    3    3    0    0  0.10723582094E+02  0.10666357219E+02  0.13724963449E+02  0.20424030239E+02  0.51100000000E-03 0. -1.
        -11    1    3    3    0    0 -0.12312277827E+01  0.86525486868E+01  0.11167859430E+02  0.14181100280E+02  0.51100000000E-03 0.  1.
        -12    1    3    3    0    0  0.72890864933E+01 -0.13949676990E+01  0.10894590736E+02  0.13182140345E+02  0.00000000000E+00 0.  1.
</event>
<event>
 7    1  0.4005571E-009  0.4778727E+02  0.7816164E-02  0.1312668E+00
        -11   -1    0    0    0    0  0.00000000000E+00  0.00000000000E+00  0.45593999997E+02  0.45594000000E+02  0.51100000000E-03 0.  1.
         11   -1    0    0    0    0 -0.00000000000E+00 -0.00000000000E+00 -0.45593999997E+02  0.45594000000E+02  0.51100000000E-03 0. -1.
    9900012    2    1    2    0    0  0.32398123673E+02  0.15664281224E+02  0.24261387650E+02  0.47787273572E+02  0.20000011524E+02 0.  0.
         12    1    1    2    0    0 -0.32398123673E+02 -0.15664281224E+02 -0.24261387650E+02  0.43400726428E+02  0.00000000000E+00 0. -1.
         11    1    3    3    0    0 -0.54202797739E+00  0.19066279714E-01 -0.53182303296E-01  0.54496465004E+00  0.51100000000E-03 0. -1.
        -11    1    3    3    0    0  0.15097919306E+02  0.10061097410E+02  0.21875517826E+01  0.18274524112E+02  0.51100000000E-03 0.  1.
        -12    1    3    3    0    0  0.17842232344E+02  0.55841175344E+01  0.22127018171E+02  0.28967784810E+02  0.00000000000E+00 0.  1.
</event>
<event>
 7    1  0.4005571E-009  0.4778727E+02  0.7816164E-02  0.1312668E+00
        -11   -1    0    0    0    0  0.00000000000E+00  0.00000000000E+00  0.45593999997E+02  0.45594000000E+02  0.51100000000E-03 0.  1.
         11   -1    0    0    0    0 -0.00000000000E+00 -0.00000000000E+00 -0.45593999997E+02  0.45594000000E+02  0.51100000000E-03 0. -1.
    9900012    2    1    2    0    0 -0.12756018719E+02  0.83679413001E+01  0.40631081813E+02  0.47787271153E+02  0.20000000495E+02 0.  0.
         12    1    1    2    0    0  0.12756018719E+02 -0.83679413001E+01 -0.40631081813E+02  0.43400728847E+02  0.00000000000E+00 0. -1.
         11    1    3    3    0    0 -0.69045895338E+01  0.45172767414E+01  0.64628156631E+01  0.10480798268E+02  0.51100000000E-03 0. -1.
        -11    1    3    3    0    0 -0.14969679299E+01  0.46457159177E+01  0.27992039231E+01  0.56266448470E+01  0.51100000000E-03 0.  1.
        -12    1    3    3    0    0 -0.43544612555E+01 -0.79505135894E+00  0.31369062227E+02  0.31679828037E+02  0.00000000000E+00 0.  1.
</event>
<event>
 7    1  0.4005571E-009  0.4778727E+02  0.7816164E-02  0.1312668E+00
        -11   -1    0    0    0    0  0.00000000000E+00  0.00000000000E+00  0.45593999997E+02  0.45594000000E+02  0.51100000000E-03 0. -1.
         11   -1    0    0    0    0 -0.00000000000E+00 -0.00000000000E+00 -0.45593999997E+02  0.45594000000E+02  0.51100000000E-03 0.  1.
    9900012    2    1    2    0    0 -0.24898333389E+02 -0.13557647958E+02 -0.32861628003E+02  0.47787269375E+02  0.19999992390E+02 0.  0.
         12    1    1    2    0    0  0.24898333389E+02  0.13557647958E+02  0.32861628003E+02  0.43400730625E+02  0.00000000000E+00 0. -1.
         11    1    3    3    0    0 -0.32584499435E+01 -0.41401671372E+01 -0.35085940284E-02  0.52686328900E+01  0.51100000000E-03 0. -1.
        -11    1    3    3    0    0 -0.69165421714E-01 -0.18090772587E+01 -0.10068928579E+02  0.10230389404E+02  0.51100000000E-03 0.  1.
        -12    1    3    3    0    0 -0.21570718024E+02 -0.76084035625E+01 -0.22789190831E+02  0.32288247081E+02  0.00000000000E+00 0.  1.
</event>
<event>
 7    1  0.4005571E-009  0.4778727E+02  0.7816164E-02  0.1312668E+00
        -11   -1    0    0    0    0  0.00000000000E+00  0.00000000000E+00  0.45593999997E+02  0.45594000000E+02  0.51100000000E-03 0.  1.
         11   -1    0    0    0    0 -0.00000000000E+00 -0.00000000000E+00 -0.45593999997E+02  0.45594000000E+02  0.51100000000E-03 0. -1.
    9900012    2    1    2    0    0 -0.36349464543E+00  0.33080227490E+01  0.43272949677E+02  0.47787270552E+02  0.19999997753E+02 0.  0.
         12    1    1    2    0    0  0.36349464543E+00 -0.33080227490E+01 -0.43272949677E+02  0.43400729448E+02  0.00000000000E+00 0. -1.
         11    1    3    3    0    0 -0.39959445861E+01  0.71433169937E+00  0.21375257819E+02  0.21757285906E+02  0.51100000000E-03 0. -1.
        -11    1    3    3    0    0  0.28750161398E+01  0.68072329343E+01  0.58607749279E+01  0.94314803209E+01  0.51100000000E-03 0.  1.
         12    1    3    3    0    0  0.75743380084E+00 -0.42135418848E+01  0.16036916931E+02  0.16598504325E+02  0.00000000000E+00 0. -1.
</event>
<event>
 7    1  0.4005571E-009  0.4778727E+02  0.7816164E-02  0.1312668E+00
        -11   -1    0    0    0    0  0.00000000000E+00  0.00000000000E+00  0.45593999997E+02  0.45594000000E+02  0.51100000000E-03 0.  1.
         11   -1    0    0    0    0 -0.00000000000E+00 -0.00000000000E+00 -0.45593999997E+02  0.45594000000E+02  0.51100000000E-03 0. -1.
    9900012    2    1    2    0    0 -0.40601195649E+02  0.14970181926E+02  0.33256412747E+01  0.47787270456E+02  0.19999997318E+02 0.  0.
         12    1    1    2    0    0  0.40601195649E+02 -0.14970181926E+02 -0.33256412747E+01  0.43400729544E+02  0.00000000000E+00 0. -1.
         11    1    3    3    0    0 -0.19770507919E+02  0.69493054770E+01 -0.22081447305E+01  0.21072297772E+02  0.51100000000E-03 0. -1.
        -11    1    3    3    0    0 -0.18703481329E+02  0.11569642774E+02  0.48553205404E+01  0.22522233139E+02  0.51100000000E-03 0.  1.
         12    1    3    3    0    0 -0.21272064016E+01 -0.35487663256E+01  0.67846546486E+00  0.41927395454E+01  0.00000000000E+00 0. -1.
</event>
<event>
 7    1  0.4005571E-009  0.4778727E+02  0.7816164E-02  0.1312668E+00
        -11   -1    0    0    0    0  0.00000000000E+00  0.00000000000E+00  0.45593999997E+02  0.45594000000E+02  0.51100000000E-03 0.  1.
         11   -1    0    0    0    0 -0.00000000000E+00 -0.00000000000E+00 -0.45593999997E+02  0.45594000000E+02  0.51100000000E-03 0. -1.
    9900012    2    1    2    0    0 -0.30901769161E+02  0.30394664491E+02 -0.22064557297E+01  0.47787269434E+02  0.19999992656E+02 0.  0.
         12    1    1    2    0    0  0.30901769161E+02 -0.30394664491E+02  0.22064557297E+01  0.43400730566E+02  0.00000000000E+00 0. -1.
         11    1    3    3    0    0 -0.79800554809E+01  0.10493477443E+02  0.11358689122E+01  0.13231951964E+02  0.51100000000E-03 0. -1.
        -11    1    3    3    0    0 -0.16191584991E+02  0.20999483692E+02 -0.60835803125E+01  0.27205802497E+02  0.51100000000E-03 0.  1.
         12    1    3    3    0    0 -0.67301286885E+01 -0.10982966431E+01  0.27412556706E+01  0.73495149726E+01  0.00000000000E+00 0. -1.
</event>
<event>
 7    1  0.4005571E-009  0.4778727E+02  0.7816164E-02  0.1312668E+00
        -11   -1    0    0    0    0  0.00000000000E+00  0.00000000000E+00  0.45593999997E+02  0.45594000000E+02  0.51100000000E-03 0. -1.
         11   -1    0    0    0    0 -0.00000000000E+00 -0.00000000000E+00 -0.45593999997E+02  0.45594000000E+02  0.51100000000E-03 0.  1.
    9900012    2    1    2    0    0 -0.26856237064E+02 -0.22670121535E+02 -0.25464316305E+02  0.47787270922E+02  0.19999999440E+02 0.  0.
         12    1    1    2    0    0  0.26856237064E+02  0.22670121535E+02  0.25464316305E+02  0.43400729078E+02  0.00000000000E+00 0. -1.
         11    1    3    3    0    0 -0.17551966642E+02 -0.14780114025E+02 -0.87926370887E+01  0.24573029337E+02  0.51100000000E-03 0. -1.
        -11    1    3    3    0    0 -0.94466382535E+01 -0.37964425633E+01 -0.60803054159E+01  0.11858417459E+02  0.51100000000E-03 0.  1.
         12    1    3    3    0    0  0.14236783121E+00 -0.40935649471E+01 -0.10591373801E+02  0.11355824125E+02  0.00000000000E+00 0. -1.
</event>
<event>
 7    1  0.4005571E-009  0.4778727E+02  0.7816164E-02  0.1312668E+00
        -11   -1    0    0    0    0  0.00000000000E+00  0.00000000000E+00  0.45593999997E+02  0.45594000000E+02  0.51100000000E-03 0.  1.
         11   -1    0    0    0    0 -0.00000000000E+00 -0.00000000000E+00 -0.45593999997E+02  0.45594000000E+02  0.51100000000E-03 0. -1.
    9900012    2    1    2    0    0  0.12358716219E+02  0.38098636047E+02  0.16714647364E+02  0.47787269917E+02  0.19999994860E+02 0.  0.
         12    1    1    2    0    0 -0.12358716219E+02 -0.38098636047E+02 -0.16714647364E+02  0.43400730083E+02  0.00000000000E+00 0. -1.
         11    1    3    3    0    0  0.81070658190E+01  0.18681187415E+02  0.17450192492E+02  0.26818286628E+02  0.51100000000E-03 0.  1.
        -11    1    3    3    0    0 -0.10270428604E+01  0.71799184773E+01  0.16281980606E+01  0.74335103123E+01  0.51100000000E-03 0. -1.
        -12    1    3    3    0    0  0.52786932601E+01  0.12237530156E+02 -0.23637431884E+01  0.13535472977E+02  0.00000000000E+00 0.  1.
</event>
<event>
 7    1  0.4005571E-009  0.4778729E+02  0.7816164E-02  0.1312668E+00
        -11   -1    0    0    0    0  0.00000000000E+00  0.00000000000E+00  0.45593999997E+02  0.45594000000E+02  0.51100000000E-03 0.  1.
         11   -1    0    0    0    0 -0.00000000000E+00 -0.00000000000E+00 -0.45593999997E+02  0.45594000000E+02  0.51100000000E-03 0. -1.
    9900012    2    1    2    0    0 -0.35588078622E+01  0.18690783998E+02  0.39007836368E+02  0.47787287818E+02  0.20000076476E+02 0.  0.
         12    1    1    2    0    0  0.35588078622E+01 -0.18690783998E+02 -0.39007836368E+02  0.43400712182E+02  0.00000000000E+00 0. -1.
         11    1    3    3    0    0 -0.45729655631E+01  0.33592214501E+00  0.42407543227E+01  0.62457069428E+01  0.51100000000E-03 0. -1.
        -11    1    3    3    0    0 -0.42272677735E+01  0.16713545465E+02  0.26711328621E+02  0.31791625812E+02  0.51100000000E-03 0.  1.
         12    1    3    3    0    0  0.52414254744E+01  0.16413163875E+01  0.80557534244E+01  0.97499550626E+01  0.00000000000E+00 0. -1.
</event>
<event>
 7    1  0.4005571E-009  0.4778726E+02  0.7816164E-02  0.1312668E+00
        -11   -1    0    0    0    0  0.00000000000E+00  0.00000000000E+00  0.45593999997E+02  0.45594000000E+02  0.51100000000E-03 0.  1.
         11   -1    0    0    0    0 -0.00000000000E+00 -0.00000000000E+00 -0.45593999997E+02  0.45594000000E+02  0.51100000000E-03 0. -1.
    9900012    2    1    2    0    0  0.10298023026E+02  0.40456792468E+02  0.11866865133E+02  0.47787264716E+02  0.19999971148E+02 0.  0.
         12    1    1    2    0    0 -0.10298023026E+02 -0.40456792468E+02 -0.11866865133E+02  0.43400735284E+02  0.00000000000E+00 0. -1.
         11    1    3    3    0    0  0.15764330366E+01  0.15027930192E+02 -0.18880958443E+01  0.15227893261E+02  0.51100000000E-03 0. -1.
        -11    1    3    3    0    0  0.90116108524E+00 -0.13174995517E+01  0.33908521477E+00  0.16318319198E+01  0.51100000000E-03 0.  1.
        -12    1    3    3    0    0  0.78204289044E+01  0.26746361828E+02  0.13415875762E+02  0.30927539536E+02  0.00000000000E+00 0.  1.
</event>
<event>
 7    1  0.4005571E-009  0.4778727E+02  0.7816164E-02  0.1312668E+00
        -11   -1    0    0    0    0  0.00000000000E+00  0.00000000000E+00  0.45593999997E+02  0.45594000000E+02  0.51100000000E-03 0. -1.
         11   -1    0    0    0    0 -0.00000000000E+00 -0.00000000000E+00 -0.45593999997E+02  0.45594000000E+02  0.51100000000E-03 0.  1.
    9900012    2    1    2    0    0 -0.31107720798E+02  0.30179912272E+02 -0.22596324399E+01  0.47787270320E+02  0.19999996697E+02 0.  0.
         12    1    1    2    0    0  0.31107720798E+02 -0.30179912272E+02  0.22596324399E+01  0.43400729680E+02  0.00000000000E+00 0. -1.
         11    1    3    3    0    0 -0.38822515322E+01  0.12297151333E+02  0.29869254643E+01  0.13236824840E+02  0.51100000000E-03 0. -1.
        -11    1    3    3    0    0 -0.14116447260E+02  0.10758346223E+02  0.21840777419E+01  0.17882569518E+02  0.51100000000E-03 0.  1.
         12    1    3    3    0    0 -0.13109022006E+02  0.71244147165E+01 -0.74306356461E+01  0.16667875962E+02  0.00000000000E+00 0. -1.
</event>
<event>
 7    1  0.4005571E-009  0.4778728E+02  0.7816164E-02  0.1312668E+00
        -11   -1    0    0    0    0  0.00000000000E+00  0.00000000000E+00  0.45593999997E+02  0.45594000000E+02  0.51100000000E-03 0.  1.
         11   -1    0    0    0    0 -0.00000000000E+00 -0.00000000000E+00 -0.45593999997E+02  0.45594000000E+02  0.51100000000E-03 0. -1.
    9900012    2    1    2    0    0  0.28975820700E+02  0.19874858411E+02  0.25475766207E+02  0.47787275974E+02  0.20000022477E+02 0.  0.
         12    1    1    2    0    0 -0.28975820700E+02 -0.19874858411E+02 -0.25475766207E+02  0.43400724026E+02  0.00000000000E+00 0. -1.
         11    1    3    3    0    0  0.25203575113E+02  0.12412390888E+02  0.11712661715E+02  0.30438036907E+02  0.51100000000E-03 0. -1.
        -11    1    3    3    0    0  0.20016922855E+01  0.60201649796E+01  0.44225454407E+01  0.77335675353E+01  0.51100000000E-03 0.  1.
         12    1    3    3    0    0  0.17705533017E+01  0.14423025438E+01  0.93405590510E+01  0.96156715318E+01  0.00000000000E+00 0. -1.
</event>
<event>
 7    1  0.4005571E-009  0.4778727E+02  0.7816164E-02  0.1312668E+00
        -11   -1    0    0    0    0  0.00000000000E+00  0.00000000000E+00  0.45593999997E+02  0.45594000000E+02  0.51100000000E-03 0.  1.
         11   -1    0    0    0    0 -0.00000000000E+00 -0.00000000000E+00 -0.45593999997E+02  0.45594000000E+02  0.51100000000E-03 0. -1.
    9900012    2    1    2    0    0 -0.93507337809E+01 -0.70730563812E+01  0.41787070854E+02  0.47787266833E+02  0.19999980800E+02 0.  0.
         12    1    1    2    0    0  0.93507337809E+01  0.70730563812E+01 -0.41787070854E+02  0.43400733167E+02  0.00000000000E+00 0. -1.
         11    1    3    3    0    0  0.11471729714E+01  0.33850053319E+01  0.81928439925E+01  0.89385099357E+01  0.51100000000E-03 0. -1.
        -11    1    3    3    0    0 -0.32839262192E+01  0.28073432460E+01  0.91119419044E+01  0.10084286442E+02  0.51100000000E-03 0.  1.
        -12    1    3    3    0    0 -0.72139805332E+01 -0.13265404959E+02  0.24482284957E+02  0.28764470456E+02  0.00000000000E+00 0.  1.
</event>
<event>
 7    1  0.4005571E-009  0.4778727E+02  0.7816164E-02  0.1312668E+00
        -11   -1    0    0    0    0  0.00000000000E+00  0.00000000000E+00  0.45593999997E+02  0.45594000000E+02  0.51100000000E-03 0.  1.
         11   -1    0    0    0    0 -0.00000000000E+00 -0.00000000000E+00 -0.45593999997E+02  0.45594000000E+02  0.51100000000E-03 0. -1.
    9900012    2    1    2    0    0  0.10321963262E+02  0.25731240108E+02  0.33391371752E+02  0.47787270161E+02  0.19999995972E+02 0.  0.
         12    1    1    2    0    0 -0.10321963262E+02 -0.25731240108E+02 -0.33391371752E+02  0.43400729839E+02  0.00000000000E+00 0. -1.
         11    1    3    3    0    0  0.40841990571E+01  0.84899968096E+01  0.20223145999E+02  0.22310005875E+02  0.51100000000E-03 0. -1.
        -11    1    3    3    0    0  0.13528867396E+01  0.15618461715E+02  0.12935370898E+02  0.20324627165E+02  0.51100000000E-03 0.  1.
         12    1    3    3    0    0  0.48848774652E+01  0.16227815842E+01  0.23285485444E+00  0.51526371212E+01  0.00000000000E+00 0. -1.
</event>
<event>
 7    1  0.4005571E-009  0.4778727E+02  0.7816164E-02  0.1312668E+00
        -11   -1    0    0    0    0  0.00000000000E+00  0.00000000000E+00  0.45593999997E+02  0.45594000000E+02  0.51100000000E-03 0.  1.
         11   -1    0    0    0    0 -0.00000000000E+00 -0.00000000000E+00 -0.45593999997E+02  0.45594000000E+02  0.51100000000E-03 0. -1.
    9900012    2    1    2    0    0  0.28794694629E+02 -0.24290479266E+02  0.21551362146E+02  0.47787273830E+02  0.20000012699E+02 0.  0.
         12    1    1    2    0    0 -0.28794694629E+02  0.24290479266E+02 -0.21551362146E+02  0.43400726170E+02  0.00000000000E+00 0. -1.
         11    1    3    3    0    0  0.35939223495E+01  0.23379270494E+01  0.20814341862E+01  0.47659783125E+01  0.51100000000E-03 0. -1.
        -11    1    3    3    0    0 -0.16933800721E+00 -0.17409112393E+01 -0.99367495010E+00  0.20116752898E+01  0.51100000000E-03 0.  1.
        -12    1    3    3    0    0  0.25370110287E+02 -0.24887495076E+02  0.20463602910E+02  0.41009620227E+02  0.00000000000E+00 0.  1.
</event>
<event>
 7    1  0.4005571E-009  0.4778728E+02  0.7816164E-02  0.1312668E+00
        -11   -1    0    0    0    0  0.00000000000E+00  0.00000000000E+00  0.45593999997E+02  0.45594000000E+02  0.51100000000E-03 0.  1.
         11   -1    0    0    0    0 -0.00000000000E+00 -0.00000000000E+00 -0.45593999997E+02  0.45594000000E+02  0.51100000000E-03 0. -1.
    9900012    2    1    2    0    0  0.41085043500E+01  0.97379866888E+01  0.42094108863E+02  0.47787283488E+02  0.20000056736E+02 0.  0.
         12    1    1    2    0    0 -0.41085043500E+01 -0.97379866888E+01 -0.42094108863E+02  0.43400716512E+02  0.00000000000E+00 0. -1.
         11    1    3    3    0    0  0.69829890618E+01  0.27432998471E+00  0.82011068226E+01  0.10774764339E+02  0.51100000000E-03 0. -1.
        -11    1    3    3    0    0 -0.83393088253E-01  0.43078566094E+01  0.23077832164E+01  0.48877854504E+01  0.51100000000E-03 0.  1.
        -12    1    3    3    0    0 -0.27910916235E+01  0.51558000948E+01  0.31585218824E+02  0.32124733699E+02  0.00000000000E+00 0.  1.
</event>
<event>
 7    1  0.4005571E-009  0.4778727E+02  0.7816164E-02  0.1312668E+00
        -11   -1    0    0    0    0  0.00000000000E+00  0.00000000000E+00  0.45593999997E+02  0.45594000000E+02  0.51100000000E-03 0.  1.
         11   -1    0    0    0    0 -0.00000000000E+00 -0.00000000000E+00 -0.45593999997E+02  0.45594000000E+02  0.51100000000E-03 0. -1.
    9900012    2    1    2    0    0  0.85736586055E+00  0.28280321697E+01  0.43300004922E+02  0.47787271107E+02  0.20000000286E+02 0.  0.
         12    1    1    2    0    0 -0.85736586055E+00 -0.28280321697E+01 -0.43300004922E+02  0.43400728893E+02  0.00000000000E+00 0. -1.
         11    1    3    3    0    0 -0.92564813021E+00 -0.26543825989E+01  0.15458312311E+02  0.15711842387E+02  0.51100000000E-03 0. -1.
        -11    1    3    3    0    0  0.32242587037E+01 -0.16502645753E+01  0.23117618860E+02  0.23399647847E+02  0.51100000000E-03 0.  1.
         12    1    3    3    0    0 -0.14412447130E+01  0.71326793439E+01  0.47240737516E+01  0.86757808730E+01  0.00000000000E+00 0. -1.
</event>
<event>
 7    1  0.4005571E-009  0.4778727E+02  0.7816164E-02  0.1312668E+00
        -11   -1    0    0    0    0  0.00000000000E+00  0.00000000000E+00  0.45593999997E+02  0.45594000000E+02  0.51100000000E-03 0.  1.
         11   -1    0    0    0    0 -0.00000000000E+00 -0.00000000000E+00 -0.45593999997E+02  0.45594000000E+02  0.51100000000E-03 0. -1.
    9900012    2    1    2    0    0 -0.34597709806E+01  0.19171854415E+02  0.38782640784E+02  0.47787271399E+02  0.20000001617E+02 0.  0.
         12    1    1    2    0    0  0.34597709806E+01 -0.19171854415E+02 -0.38782640784E+02  0.43400728601E+02  0.00000000000E+00 0. -1.
         11    1    3    3    0    0  0.10487231944E+01 -0.89913372566E-01 -0.17673568271E+01  0.20570501133E+01  0.51100000000E-03 0. -1.
        -11    1    3    3    0    0  0.11122146815E+01  0.47105306170E+01  0.52691512086E+01  0.71547239577E+01  0.51100000000E-03 0.  1.
        -12    1    3    3    0    0 -0.56207088565E+01  0.14551237170E+02  0.35280846402E+02  0.38575497328E+02  0.00000000000E+00 0.  1.
</event>
<event>
 7    1  0.4005571E-009  0.4778727E+02  0.7816164E-02  0.1312668E+00
        -11   -1    0    0    0    0  0.00000000000E+00  0.00000000000E+00  0.45593999997E+02  0.45594000000E+02  0.51100000000E-03 0. -1.
         11   -1    0    0    0    0 -0.00000000000E+00 -0.00000000000E+00 -0.45593999997E+02  0.45594000000E+02  0.51100000000E-03 0.  1.
    9900012    2    1    2    0    0 -0.53201552928E+01  0.12111142626E+02 -0.41335689493E+02  0.47787273579E+02  0.20000011556E+02 0.  0.
         12    1    1    2    0    0  0.53201552928E+01 -0.12111142626E+02  0.41335689493E+02  0.43400726421E+02  0.00000000000E+00 0. -1.
         11    1    3    3    0    0 -0.67256961437E+00  0.28525794358E+01  0.71270612610E+00  0.30162078189E+01  0.51100000000E-03 0. -1.
        -11    1    3    3    0    0 -0.36168371299E+01 -0.15585531461E+01 -0.65100917155E+01  0.76086722323E+01  0.51100000000E-03 0.  1.
        -12    1    3    3    0    0 -0.10307485485E+01  0.10817116336E+02 -0.35538303903E+02  0.37162393528E+02  0.00000000000E+00 0.  1.
</event>
<event>
 7    1  0.4005571E-009  0.4778727E+02  0.7816164E-02  0.1312668E+00
        -11   -1    0    0    0    0  0.00000000000E+00  0.00000000000E+00  0.45593999997E+02  0.45594000000E+02  0.51100000000E-03 0. -1.
         11   -1    0    0    0    0 -0.00000000000E+00 -0.00000000000E+00 -0.45593999997E+02  0.45594000000E+02  0.51100000000E-03 0.  1.
    9900012    2    1    2    0    0 -0.17933595827E+02  0.31531885257E+02 -0.23827501298E+02  0.47787268840E+02  0.19999989949E+02 0.  0.
         12    1    1    2    0    0  0.17933595827E+02 -0.31531885257E+02  0.23827501298E+02  0.43400731160E+02  0.00000000000E+00 0. -1.
         11    1    3    3    0    0 -0.49701872089E+01  0.35773594539E+01 -0.41700507365E+01  0.74087505667E+01  0.51100000000E-03 0. -1.
        -11    1    3    3    0    0 -0.10143745102E+02  0.25301314823E+02 -0.22685090070E+02  0.35463578615E+02  0.51100000000E-03 0.  1.
         12    1    3    3    0    0 -0.28196635161E+01  0.26532109797E+01  0.30276395085E+01  0.49149396578E+01  0.00000000000E+00 0. -1.
</event>
<event>
 7    1  0.4005571E-009  0.4778727E+02  0.7816164E-02  0.1312668E+00
        -11   -1    0    0    0    0  0.00000000000E+00  0.00000000000E+00  0.45593999997E+02  0.45594000000E+02  0.51100000000E-03 0.  1.
         11   -1    0    0    0    0 -0.00000000000E+00 -0.00000000000E+00 -0.45593999997E+02  0.45594000000E+02  0.51100000000E-03 0. -1.
    9900012    2    1    2    0    0  0.61423609898E+00 -0.25665660395E+02  0.34993143326E+02  0.47787268563E+02  0.19999988685E+02 0.  0.
         12    1    1    2    0    0 -0.61423609898E+00  0.25665660395E+02 -0.34993143326E+02  0.43400731437E+02  0.00000000000E+00 0. -1.
         11    1    3    3    0    0  0.22664907124E+01 -0.49036377647E+01  0.78062163584E+00  0.54582061043E+01  0.51100000000E-03 0. -1.
        -11    1    3    3    0    0  0.46231502897E+01 -0.58643614140E+01  0.17749039754E+02  0.19255977406E+02  0.51100000000E-03 0.  1.
        -12    1    3    3    0    0 -0.62754049031E+01 -0.14897661216E+02  0.16463481936E+02  0.23073085053E+02  0.00000000000E+00 0.  1.
</event>
<event>
 7    1  0.4005571E-009  0.4778727E+02  0.7816164E-02  0.1312668E+00
        -11   -1    0    0    0    0  0.00000000000E+00  0.00000000000E+00  0.45593999997E+02  0.45594000000E+02  0.51100000000E-03 0.  1.
         11   -1    0    0    0    0 -0.00000000000E+00 -0.00000000000E+00 -0.45593999997E+02  0.45594000000E+02  0.51100000000E-03 0. -1.
    9900012    2    1    2    0    0 -0.39340033748E+02  0.14606428409E+02  0.11074181801E+02  0.47787268339E+02  0.19999987665E+02 0.  0.
         12    1    1    2    0    0  0.39340033748E+02 -0.14606428409E+02 -0.11074181801E+02  0.43400731661E+02  0.00000000000E+00 0. -1.
         11    1    3    3    0    0 -0.67580728254E+01 -0.13299831232E+01  0.12443255501E+01  0.69991963651E+01  0.51100000000E-03 0. -1.
        -11    1    3    3    0    0 -0.33115743201E+02  0.14042990895E+02  0.59789151388E+01  0.36463755533E+02  0.51100000000E-03 0.  1.
         12    1    3    3    0    0  0.53378227920E+00  0.18934206377E+01  0.38509411124E+01  0.43243164412E+01  0.00000000000E+00 0. -1.
</event>
<event>
 7    1  0.4005571E-009  0.4778727E+02  0.7816164E-02  0.1312668E+00
        -11   -1    0    0    0    0  0.00000000000E+00  0.00000000000E+00  0.45593999997E+02  0.45594000000E+02  0.51100000000E-03 0.  1.
         11   -1    0    0    0    0 -0.00000000000E+00 -0.00000000000E+00 -0.45593999997E+02  0.45594000000E+02  0.51100000000E-03 0. -1.
    9900012    2    1    2    0    0  0.42713280999E+02  0.76474903616E+01 -0.84558429200E+00  0.47787268494E+02  0.19999988370E+02 0.  0.
         12    1    1    2    0    0 -0.42713280999E+02 -0.76474903616E+01  0.84558429200E+00  0.43400731506E+02  0.00000000000E+00 0. -1.
         11    1    3    3    0    0  0.34731076677E+00  0.14013639933E+01 -0.14382369705E+01  0.20378841122E+01  0.51100000000E-03 0. -1.
        -11    1    3    3    0    0  0.69370146185E+01  0.17945483751E+01 -0.61118044010E+01  0.94178940844E+01  0.51100000000E-03 0.  1.
        -12    1    3    3    0    0  0.35428955613E+02  0.44515779932E+01  0.67044570795E+01  0.36331490297E+02  0.00000000000E+00 0.  1.
</event>
<event>
 7    1  0.4005571E-009  0.4778727E+02  0.7816164E-02  0.1312668E+00
        -11   -1    0    0    0    0  0.00000000000E+00  0.00000000000E+00  0.45593999997E+02  0.45594000000E+02  0.51100000000E-03 0.  1.
         11   -1    0    0    0    0 -0.00000000000E+00 -0.00000000000E+00 -0.45593999997E+02  0.45594000000E+02  0.51100000000E-03 0. -1.
    9900012    2    1    2    0    0 -0.29147873417E+02  0.14947343081E+02  0.28471064597E+02  0.47787272941E+02  0.20000008648E+02 0.  0.
         12    1    1    2    0    0  0.29147873417E+02 -0.14947343081E+02 -0.28471064597E+02  0.43400727059E+02  0.00000000000E+00 0. -1.
         11    1    3    3    0    0 -0.16700945560E+02  0.29674671087E+01  0.18677052888E+02  0.25230135720E+02  0.51100000000E-03 0. -1.
        -11    1    3    3    0    0 -0.12999990903E+02  0.67738148877E+01  0.91550871588E+01  0.17282938198E+02  0.51100000000E-03 0.  1.
         12    1    3    3    0    0  0.55306304551E+00  0.52060610847E+01  0.63892455060E+00  0.52741990228E+01  0.00000000000E+00 0. -1.
</event>
<event>
 7    1  0.4005571E-009  0.4778727E+02  0.7816164E-02  0.1312668E+00
        -11   -1    0    0    0    0  0.00000000000E+00  0.00000000000E+00  0.45593999997E+02  0.45594000000E+02  0.51100000000E-03 0.  1.
         11   -1    0    0    0    0 -0.00000000000E+00 -0.00000000000E+00 -0.45593999997E+02  0.45594000000E+02  0.51100000000E-03 0. -1.
    9900012    2    1    2    0    0  0.20865507778E+02 -0.32738083317E+02  0.19402883588E+02  0.47787269526E+02  0.19999993078E+02 0.  0.
         12    1    1    2    0    0 -0.20865507778E+02  0.32738083317E+02 -0.19402883588E+02  0.43400730474E+02  0.00000000000E+00 0. -1.
         11    1    3    3    0    0  0.10134743456E+02 -0.23006278082E+02  0.10216787223E+02  0.27136407233E+02  0.51100000000E-03 0. -1.
        -11    1    3    3    0    0  0.46503652191E+01 -0.11289774058E+02  0.57714657028E+01  0.13505358625E+02  0.51100000000E-03 0.  1.
         12    1    3    3    0    0  0.60803991037E+01  0.15579688235E+01  0.34146306625E+01  0.71455036685E+01  0.00000000000E+00 0. -1.
</event>
<event>
 7    1  0.4005571E-009  0.4778732E+02  0.7816164E-02  0.1312668E+00
        -11   -1    0    0    0    0  0.00000000000E+00  0.00000000000E+00  0.45593999997E+02  0.45594000000E+02  0.51100000000E-03 0. -1.
         11   -1    0    0    0    0 -0.00000000000E+00 -0.00000000000E+00 -0.45593999997E+02  0.45594000000E+02  0.51100000000E-03 0.  1.
    9900012    2    1    2    0    0 -0.42541785222E+02 -0.77982148568E+01 -0.36060795120E+01  0.47787315048E+02  0.20000200630E+02 0.  0.
         12    1    1    2    0    0  0.42541785222E+02  0.77982148568E+01  0.36060795120E+01  0.43400684952E+02  0.00000000000E+00 0. -1.
         11    1    3    3    0    0 -0.65315656577E+01  0.20434658255E+01 -0.54744413416E+01  0.87639380865E+01  0.51100000000E-03 0. -1.
        -11    1    3    3    0    0 -0.14860695943E+02 -0.54186191099E+00  0.50430043783E+01  0.15702413561E+02  0.51100000000E-03 0.  1.
        -12    1    3    3    0    0 -0.21149523622E+02 -0.92998187713E+01 -0.31746425487E+01  0.23320963400E+02  0.00000000000E+00 0.  1.
</event>
<event>
 7    1  0.4005571E-009  0.4778727E+02  0.7816164E-02  0.1312668E+00
        -11   -1    0    0    0    0  0.00000000000E+00  0.00000000000E+00  0.45593999997E+02  0.45594000000E+02  0.51100000000E-03 0.  1.
         11   -1    0    0    0    0 -0.00000000000E+00 -0.00000000000E+00 -0.45593999997E+02  0.45594000000E+02  0.51100000000E-03 0. -1.
    9900012    2    1    2    0    0 -0.16116736251E+02  0.19984467298E+02  0.34992787782E+02  0.47787270544E+02  0.19999997717E+02 0.  0.
         12    1    1    2    0    0  0.16116736251E+02 -0.19984467298E+02 -0.34992787782E+02  0.43400729456E+02  0.00000000000E+00 0. -1.
         11    1    3    3    0    0  0.56607797002E-02 -0.25357029558E+01  0.34855271726E+01  0.43103041026E+01  0.51100000000E-03 0. -1.
        -11    1    3    3    0    0 -0.57217539465E+01  0.56792191006E+01  0.26548624112E+01  0.84876553006E+01  0.51100000000E-03 0.  1.
        -12    1    3    3    0    0 -0.10400643084E+02  0.16840951153E+02  0.28852398199E+02  0.34989311141E+02  0.00000000000E+00 0.  1.
</event>
<event>
 7    1  0.4005571E-009  0.4778727E+02  0.7816164E-02  0.1312668E+00
        -11   -1    0    0    0    0  0.00000000000E+00  0.00000000000E+00  0.45593999997E+02  0.45594000000E+02  0.51100000000E-03 0. -1.
         11   -1    0    0    0    0 -0.00000000000E+00 -0.00000000000E+00 -0.45593999997E+02  0.45594000000E+02  0.51100000000E-03 0.  1.
    9900012    2    1    2    0    0 -0.10724503822E+02 -0.53431800528E+01 -0.41714011490E+02  0.47787270629E+02  0.19999998106E+02 0.  0.
         12    1    1    2    0    0  0.10724503822E+02  0.53431800528E+01  0.41714011490E+02  0.43400729371E+02  0.00000000000E+00 0. -1.
         11    1    3    3    0    0 -0.93295322053E+01 -0.75036134514E+01 -0.14479605611E+02  0.18788383776E+02  0.51100000000E-03 0. -1.
        -11    1    3    3    0    0 -0.26091617568E+01 -0.30569790077E+01 -0.16747890613E+02  0.17223376149E+02  0.51100000000E-03 0.  1.
        -12    1    3    3    0    0  0.12141901399E+01  0.52174124063E+01 -0.10486515266E+02  0.11775510704E+02  0.00000000000E+00 0.  1.
</event>
<event>
 7    1  0.4005571E-009  0.4778727E+02  0.7816164E-02  0.1312668E+00
        -11   -1    0    0    0    0  0.00000000000E+00  0.00000000000E+00  0.45593999997E+02  0.45594000000E+02  0.51100000000E-03 0.  1.
         11   -1    0    0    0    0 -0.00000000000E+00 -0.00000000000E+00 -0.45593999997E+02  0.45594000000E+02  0.51100000000E-03 0. -1.
    9900012    2    1    2    0    0 -0.25587643942E+02  0.25071675188E+02  0.24501162174E+02  0.47787269970E+02  0.19999995102E+02 0.  0.
         12    1    1    2    0    0  0.25587643942E+02 -0.25071675188E+02 -0.24501162174E+02  0.43400730030E+02  0.00000000000E+00 0. -1.
         11    1    3    3    0    0  0.78069410884E+00 -0.10624570898E+01  0.20555187422E+01  0.24420188205E+01  0.51100000000E-03 0. -1.
        -11    1    3    3    0    0 -0.31816923404E+01  0.11605776952E+02  0.71564775164E+01  0.14001156935E+02  0.51100000000E-03 0.  1.
        -12    1    3    3    0    0 -0.23186645710E+02  0.14528355326E+02  0.15289165915E+02  0.31344094215E+02  0.00000000000E+00 0.  1.
</event>
<event>
 7    1  0.4005571E-009  0.4778727E+02  0.7816164E-02  0.1312668E+00
        -11   -1    0    0    0    0  0.00000000000E+00  0.00000000000E+00  0.45593999997E+02  0.45594000000E+02  0.51100000000E-03 0.  1.
         11   -1    0    0    0    0 -0.00000000000E+00 -0.00000000000E+00 -0.45593999997E+02  0.45594000000E+02  0.51100000000E-03 0. -1.
    9900012    2    1    2    0    0  0.12664171692E+01  0.43151531845E+02 -0.44682002351E+01  0.47787270440E+02  0.19999997243E+02 0.  0.
         12    1    1    2    0    0 -0.12664171692E+01 -0.43151531845E+02  0.44682002351E+01  0.43400729560E+02  0.00000000000E+00 0. -1.
         11    1    3    3    0    0 -0.15885212238E+01  0.23844200060E+01  0.10189355185E+01  0.30409025462E+01  0.51100000000E-03 0. -1.
        -11    1    3    3    0    0  0.48747669257E+01  0.13760965212E+02  0.53899168369E+01  0.15562092402E+02  0.51100000000E-03 0.  1.
         12    1    3    3    0    0 -0.20198285327E+01  0.27006146626E+02 -0.10877052591E+02  0.29184275492E+02  0.00000000000E+00 0. -1.
</event>
<event>
 7    1  0.4005571E-009  0.4778727E+02  0.7816164E-02  0.1312668E+00
        -11   -1    0    0    0    0  0.00000000000E+00  0.00000000000E+00  0.45593999997E+02  0.45594000000E+02  0.51100000000E-03 0.  1.
         11   -1    0    0    0    0 -0.00000000000E+00 -0.00000000000E+00 -0.45593999997E+02  0.45594000000E+02  0.51100000000E-03 0. -1.
    9900012    2    1    2    0    0 -0.28518434391E+02 -0.20161622735E+02  0.25764924245E+02  0.47787268983E+02  0.19999990602E+02 0.  0.
         12    1    1    2    0    0  0.28518434391E+02  0.20161622735E+02 -0.25764924245E+02  0.43400731017E+02  0.00000000000E+00 0. -1.
         11    1    3    3    0    0 -0.26142548891E+01 -0.20117498957E+01  0.24383459872E+01  0.41020723644E+01  0.51100000000E-03 0. -1.
        -11    1    3    3    0    0 -0.22572249935E+02 -0.19341139818E+02  0.25806291429E+02  0.39364334545E+02  0.51100000000E-03 0.  1.
         12    1    3    3    0    0 -0.33319295671E+01  0.11912669784E+01 -0.24797131710E+01  0.43208620742E+01  0.00000000000E+00 0. -1.
</event>
<event>
 7    1  0.4005571E-009  0.4778727E+02  0.7816164E-02  0.1312668E+00
        -11   -1    0    0    0    0  0.00000000000E+00  0.00000000000E+00  0.45593999997E+02  0.45594000000E+02  0.51100000000E-03 0. -1.
         11   -1    0    0    0    0 -0.00000000000E+00 -0.00000000000E+00 -0.45593999997E+02  0.45594000000E+02  0.51100000000E-03 0.  1.
    9900012    2    1    2    0    0 -0.34012691563E+02  0.26304518937E+02  0.59018765752E+01  0.47787273612E+02  0.20000011708E+02 0.  0.
         12    1    1    2    0    0  0.34012691563E+02 -0.26304518937E+02 -0.59018765752E+01  0.43400726388E+02  0.00000000000E+00 0. -1.
         11    1    3    3    0    0 -0.14702841758E+02  0.31172871316E+01  0.45555164529E+01  0.15704896219E+02  0.51100000000E-03 0. -1.
        -11    1    3    3    0    0 -0.10012601576E+02  0.41915176729E+01 -0.39655827648E+00  0.10861780216E+02  0.51100000000E-03 0.  1.
         12    1    3    3    0    0 -0.92972482281E+01  0.18995714133E+02  0.17429183988E+01  0.21220597178E+02  0.00000000000E+00 0. -1.
</event>
<event>
 7    1  0.4005571E-009  0.4778727E+02  0.7816164E-02  0.1312668E+00
        -11   -1    0    0    0    0  0.00000000000E+00  0.00000000000E+00  0.45593999997E+02  0.45594000000E+02  0.51100000000E-03 0.  1.
         11   -1    0    0    0    0 -0.00000000000E+00 -0.00000000000E+00 -0.45593999997E+02  0.45594000000E+02  0.51100000000E-03 0. -1.
    9900012    2    1    2    0    0 -0.25945384552E+01  0.16333552121E+02  0.40126135550E+02  0.47787270642E+02  0.19999998164E+02 0.  0.
         12    1    1    2    0    0  0.25945384552E+01 -0.16333552121E+02 -0.40126135550E+02  0.43400729358E+02  0.00000000000E+00 0. -1.
         11    1    3    3    0    0  0.50315160712E+01  0.49380820925E+01  0.97707474311E+01  0.12048581425E+02  0.51100000000E-03 0. -1.
        -11    1    3    3    0    0 -0.17232884659E+01  0.12698815035E+02  0.20902557867E+02  0.24518290154E+02  0.51100000000E-03 0.  1.
         12    1    3    3    0    0 -0.59027660605E+01 -0.13033450067E+01  0.94528302517E+01  0.11220399063E+02  0.00000000000E+00 0. -1.
</event>
<event>
 7    1  0.4005571E-009  0.4778727E+02  0.7816164E-02  0.1312668E+00
        -11   -1    0    0    0    0  0.00000000000E+00  0.00000000000E+00  0.45593999997E+02  0.45594000000E+02  0.51100000000E-03 0.  1.
         11   -1    0    0    0    0 -0.00000000000E+00 -0.00000000000E+00 -0.45593999997E+02  0.45594000000E+02  0.51100000000E-03 0. -1.
    9900012    2    1    2    0    0  0.29974797160E+02 -0.30267168540E+02 -0.83086219649E+01  0.47787272412E+02  0.20000006234E+02 0.  0.
         12    1    1    2    0    0 -0.29974797160E+02  0.30267168540E+02  0.83086219649E+01  0.43400727588E+02  0.00000000000E+00 0. -1.
         11    1    3    3    0    0 -0.13295778461E+00 -0.25861370166E+01  0.86188225020E+00  0.27292166853E+01  0.51100000000E-03 0. -1.
        -11    1    3    3    0    0  0.21707130068E+02 -0.88314876664E+01 -0.58717819339E+01  0.24159314840E+02  0.51100000000E-03 0.  1.
        -12    1    3    3    0    0  0.84006248766E+01 -0.18849543857E+02 -0.32987222813E+01  0.20898740886E+02  0.00000000000E+00 0.  1.
</event>
<event>
 7    1  0.4005571E-009  0.4778725E+02  0.7816164E-02  0.1312668E+00
        -11   -1    0    0    0    0  0.00000000000E+00  0.00000000000E+00  0.45593999997E+02  0.45594000000E+02  0.51100000000E-03 0. -1.
         11   -1    0    0    0    0 -0.00000000000E+00 -0.00000000000E+00 -0.45593999997E+02  0.45594000000E+02  0.51100000000E-03 0.  1.
    9900012    2    1    2    0    0  0.32927316998E+02  0.23190864445E+00 -0.28273014553E+02  0.47787247262E+02  0.19999891567E+02 0.  0.
         12    1    1    2    0    0 -0.32927316998E+02 -0.23190864445E+00  0.28273014553E+02  0.43400752738E+02  0.00000000000E+00 0. -1.
         11    1    3    3    0    0  0.46604603023E+01  0.43989641466E+01 -0.81065122803E+01  0.10333746533E+02  0.51100000000E-03 0. -1.
        -11    1    3    3    0    0  0.20088720182E+02  0.62958715251E+00 -0.19412144924E+02  0.27942520096E+02  0.51100000000E-03 0.  1.
        -12    1    3    3    0    0  0.81781365136E+01 -0.47966426547E+01 -0.75435734857E+00  0.95109806330E+01  0.00000000000E+00 0.  1.
</event>
<event>
 7    1  0.4005571E-009  0.4778727E+02  0.7816164E-02  0.1312668E+00
        -11   -1    0    0    0    0  0.00000000000E+00  0.00000000000E+00  0.45593999997E+02  0.45594000000E+02  0.51100000000E-03 0. -1.
         11   -1    0    0    0    0 -0.00000000000E+00 -0.00000000000E+00 -0.45593999997E+02  0.45594000000E+02  0.51100000000E-03 0.  1.
    9900012    2    1    2    0    0  0.10876444346E+02 -0.37543326579E+02 -0.18863311647E+02  0.47787274908E+02  0.20000017614E+02 0.  0.
         12    1    1    2    0    0 -0.10876444346E+02  0.37543326579E+02  0.18863311647E+02  0.43400725092E+02  0.00000000000E+00 0. -1.
         11    1    3    3    0    0 -0.53765166599E-01  0.18820373966E+01 -0.25153837674E+01  0.31419916000E+01  0.51100000000E-03 0. -1.
        -11    1    3    3    0    0 -0.70056378443E+00 -0.22426942877E+01 -0.21341409379E+01  0.31741180016E+01  0.51100000000E-03 0.  1.
        -12    1    3    3    0    0  0.11630773297E+02 -0.37182669688E+02 -0.14213786941E+02  0.41471165306E+02  0.00000000000E+00 0.  1.
</event>
<event>
 7    1  0.4005571E-009  0.4778727E+02  0.7816164E-02  0.1312668E+00
        -11   -1    0    0    0    0  0.00000000000E+00  0.00000000000E+00  0.45593999997E+02  0.45594000000E+02  0.51100000000E-03 0.  1.
         11   -1    0    0    0    0 -0.00000000000E+00 -0.00000000000E+00 -0.45593999997E+02  0.45594000000E+02  0.51100000000E-03 0. -1.
    9900012    2    1    2    0    0 -0.10873214032E+02  0.37236527776E+02  0.19463745212E+02  0.47787272335E+02  0.20000005883E+02 0.  0.
         12    1    1    2    0    0  0.10873214032E+02 -0.37236527776E+02 -0.19463745212E+02  0.43400727665E+02  0.00000000000E+00 0. -1.
         11    1    3    3    0    0 -0.36203335182E+01  0.25949218479E+01 -0.14698170934E+01  0.46905006906E+01  0.51100000000E-03 0. -1.
        -11    1    3    3    0    0 -0.24281789351E+01  0.97478501210E+01 -0.26011955227E+00  0.10049094355E+02  0.51100000000E-03 0.  1.
         12    1    3    3    0    0 -0.48247015788E+01  0.24893755807E+02  0.21193681858E+02  0.33047677289E+02  0.00000000000E+00 0. -1.
</event>
<event>
 7    1  0.4005571E-009  0.4778728E+02  0.7816164E-02  0.1312668E+00
        -11   -1    0    0    0    0  0.00000000000E+00  0.00000000000E+00  0.45593999997E+02  0.45594000000E+02  0.51100000000E-03 0.  1.
         11   -1    0    0    0    0 -0.00000000000E+00 -0.00000000000E+00 -0.45593999997E+02  0.45594000000E+02  0.51100000000E-03 0. -1.
    9900012    2    1    2    0    0  0.46486794100E+01  0.33209045523E+01  0.43023065866E+02  0.47787276229E+02  0.20000023638E+02 0.  0.
         12    1    1    2    0    0 -0.46486794100E+01 -0.33209045523E+01 -0.43023065866E+02  0.43400723771E+02  0.00000000000E+00 0. -1.
         11    1    3    3    0    0 -0.23096615723E+01 -0.86717764011E+00  0.27613629275E+02  0.27723619094E+02  0.51100000000E-03 0. -1.
        -11    1    3    3    0    0  0.26197396813E+01  0.57312088011E+01  0.13825691881E+02  0.15194062872E+02  0.51100000000E-03 0.  1.
         12    1    3    3    0    0  0.43386013009E+01 -0.15431266088E+01  0.15837447104E+01  0.48695942631E+01  0.00000000000E+00 0. -1.
</event>
<event>
 7    1  0.4005571E-009  0.4778727E+02  0.7816164E-02  0.1312668E+00
        -11   -1    0    0    0    0  0.00000000000E+00  0.00000000000E+00  0.45593999997E+02  0.45594000000E+02  0.51100000000E-03 0. -1.
         11   -1    0    0    0    0 -0.00000000000E+00 -0.00000000000E+00 -0.45593999997E+02  0.45594000000E+02  0.51100000000E-03 0.  1.
    9900012    2    1    2    0    0 -0.46202063797E+01  0.40559280347E+02  0.14738436733E+02  0.47787273663E+02  0.20000011937E+02 0.  0.
         12    1    1    2    0    0  0.46202063797E+01 -0.40559280347E+02 -0.14738436733E+02  0.43400726337E+02  0.00000000000E+00 0. -1.
         11    1    3    3    0    0  0.95559277226E+00  0.16973825509E+02 -0.12990557621E+00  0.17001199536E+02  0.51100000000E-03 0. -1.
        -11    1    3    3    0    0 -0.28664142149E+01  0.19160192356E+02  0.56040655889E+01  0.20167668505E+02  0.51100000000E-03 0.  1.
         12    1    3    3    0    0 -0.27093849370E+01  0.44252624829E+01  0.92642767203E+01  0.10618405621E+02  0.00000000000E+00 0. -1.
</event>
<event>
 7    1  0.4005571E-009  0.4778728E+02  0.7816164E-02  0.1312668E+00
        -11   -1    0    0    0    0  0.00000000000E+00  0.00000000000E+00  0.45593999997E+02  0.45594000000E+02  0.51100000000E-03 0.  1.
         11   -1    0    0    0    0 -0.00000000000E+00 -0.00000000000E+00 -0.45593999997E+02  0.45594000000E+02  0.51100000000E-03 0. -1.
    9900012    2    1    2    0    0  0.31707644169E+02 -0.18942841711E+02  0.22790721117E+02  0.47787275123E+02  0.20000018595E+02 0.  0.
         12    1    1    2    0    0 -0.31707644169E+02  0.18942841711E+02 -0.22790721117E+02  0.43400724877E+02  0.00000000000E+00 0. -1.
         11    1    3    3    0    0  0.70277511979E-01  0.10294587414E+00  0.35134651221E+01  0.35156754979E+01  0.51100000000E-03 0. -1.
        -11    1    3    3    0    0  0.16924695006E+02 -0.69595858684E+01  0.17206945339E+02  0.25118919258E+02  0.51100000000E-03 0.  1.
        -12    1    3    3    0    0  0.14712671650E+02 -0.12086201717E+02  0.20703106563E+01  0.19152680367E+02  0.00000000000E+00 0.  1.
</event>
<event>
 7    1  0.4005571E-009  0.4778727E+02  0.7816164E-02  0.1312668E+00
        -11   -1    0    0    0    0  0.00000000000E+00  0.00000000000E+00  0.45593999997E+02  0.45594000000E+02  0.51100000000E-03 0. -1.
         11   -1    0    0    0    0 -0.00000000000E+00 -0.00000000000E+00 -0.45593999997E+02  0.45594000000E+02  0.51100000000E-03 0.  1.
    9900012    2    1    2    0    0 -0.12256032445E+02  0.11988206514E+02 -0.39870988660E+02  0.47787272317E+02  0.20000005800E+02 0.  0.
         12    1    1    2    0    0  0.12256032445E+02 -0.11988206514E+02  0.39870988660E+02  0.43400727683E+02  0.00000000000E+00 0. -1.
         11    1    3    3    0    0 -0.23915404509E+00 -0.91735964211E+00 -0.15449619644E+02  0.15478678586E+02  0.51100000000E-03 0. -1.
        -11    1    3    3    0    0 -0.55321068242E+00  0.69961627932E+01 -0.14245612726E+02  0.15880485449E+02  0.51100000000E-03 0.  1.
         12    1    3    3    0    0 -0.11463667717E+02  0.59094033626E+01 -0.10175756290E+02  0.16428108282E+02  0.00000000000E+00 0. -1.
</event>
<event>
 7    1  0.4005571E-009  0.4778727E+02  0.7816164E-02  0.1312668E+00
        -11   -1    0    0    0    0  0.00000000000E+00  0.00000000000E+00  0.45593999997E+02  0.45594000000E+02  0.51100000000E-03 0.  1.
         11   -1    0    0    0    0 -0.00000000000E+00 -0.00000000000E+00 -0.45593999997E+02  0.45594000000E+02  0.51100000000E-03 0. -1.
    9900012    2    1    2    0    0 -0.81532587379E+01 -0.32902373433E+02  0.27103158781E+02  0.47787273952E+02  0.20000013257E+02 0.  0.
         12    1    1    2    0    0  0.81532587379E+01  0.32902373433E+02 -0.27103158781E+02  0.43400726048E+02  0.00000000000E+00 0. -1.
         11    1    3    3    0    0  0.92855654631E-01  0.70474680671E+00  0.36733732754E+00  0.80014199208E+00  0.51100000000E-03 0. -1.
        -11    1    3    3    0    0 -0.97188424934E+01 -0.70422034879E+01  0.91970534611E+01  0.15120658782E+02  0.51100000000E-03 0.  1.
         12    1    3    3    0    0  0.14727281008E+01 -0.26564916752E+02  0.17538767992E+02  0.31866473178E+02  0.00000000000E+00 0. -1.
</event>
<event>
 7    1  0.4005571E-009  0.4778727E+02  0.7816164E-02  0.1312668E+00
        -11   -1    0    0    0    0  0.00000000000E+00  0.00000000000E+00  0.45593999997E+02  0.45594000000E+02  0.51100000000E-03 0. -1.
         11   -1    0    0    0    0 -0.00000000000E+00 -0.00000000000E+00 -0.45593999997E+02  0.45594000000E+02  0.51100000000E-03 0.  1.
    9900012    2    1    2    0    0 -0.40270189173E+02  0.14599173210E+02  0.69856413705E+01  0.47787272128E+02  0.20000004943E+02 0.  0.
         12    1    1    2    0    0  0.40270189173E+02 -0.14599173210E+02 -0.69856413705E+01  0.43400727872E+02  0.00000000000E+00 0. -1.
         11    1    3    3    0    0 -0.22444887216E+02  0.32033283853E+01  0.58594324223E+01  0.23417242012E+02  0.51100000000E-03 0. -1.
        -11    1    3    3    0    0 -0.17692062508E+02  0.79317091798E+01  0.40826677060E+01  0.19813865402E+02  0.51100000000E-03 0.  1.
         12    1    3    3    0    0 -0.13323944862E+00  0.34641356453E+01 -0.29564587578E+01  0.45561647146E+01  0.00000000000E+00 0. -1.
</event>
<event>
 7    1  0.4005571E-009  0.4778727E+02  0.7816164E-02  0.1312668E+00
        -11   -1    0    0    0    0  0.00000000000E+00  0.00000000000E+00  0.45593999997E+02  0.45594000000E+02  0.51100000000E-03 0.  1.
         11   -1    0    0    0    0 -0.00000000000E+00 -0.00000000000E+00 -0.45593999997E+02  0.45594000000E+02  0.51100000000E-03 0. -1.
    9900012    2    1    2    0    0  0.21927476474E+02 -0.13955772107E+01  0.37428082728E+02  0.47787271470E+02  0.20000001941E+02 0.  0.
         12    1    1    2    0    0 -0.21927476474E+02  0.13955772107E+01 -0.37428082728E+02  0.43400728530E+02  0.00000000000E+00 0. -1.
         11    1    3    3    0    0 -0.30833519581E+01 -0.80586833192E+00  0.91510919733E+01  0.96901479675E+01  0.51100000000E-03 0. -1.
        -11    1    3    3    0    0  0.40942480473E+01 -0.15678694909E+01  0.32026949109E+01  0.54293956171E+01  0.51100000000E-03 0.  1.
         12    1    3    3    0    0  0.20916580385E+02  0.97816061207E+00  0.25074295843E+02  0.32667727886E+02  0.00000000000E+00 0. -1.
</event>
<event>
 7    1  0.4005571E-009  0.4778728E+02  0.7816164E-02  0.1312668E+00
        -11   -1    0    0    0    0  0.00000000000E+00  0.00000000000E+00  0.45593999997E+02  0.45594000000E+02  0.51100000000E-03 0.  1.
         11   -1    0    0    0    0 -0.00000000000E+00 -0.00000000000E+00 -0.45593999997E+02  0.45594000000E+02  0.51100000000E-03 0. -1.
    9900012    2    1    2    0    0 -0.26698314068E+02  0.18151970668E+02  0.29005666370E+02  0.47787277716E+02  0.20000030420E+02 0.  0.
         12    1    1    2    0    0  0.26698314068E+02 -0.18151970668E+02 -0.29005666370E+02  0.43400722284E+02  0.00000000000E+00 0. -1.
         11    1    3    3    0    0 -0.63872480136E+01  0.67948962668E+01  0.47554819454E+00  0.93377566262E+01  0.51100000000E-03 0. -1.
        -11    1    3    3    0    0 -0.10682255366E+02 -0.24001536874E+00  0.12537958224E+02  0.16473268764E+02  0.51100000000E-03 0.  1.
         12    1    3    3    0    0 -0.96288106886E+01  0.11597089769E+02  0.15992159951E+02  0.21976252326E+02  0.00000000000E+00 0. -1.
</event>
<event>
 7    1  0.4005571E-009  0.4778729E+02  0.7816164E-02  0.1312668E+00
        -11   -1    0    0    0    0  0.00000000000E+00  0.00000000000E+00  0.45593999997E+02  0.45594000000E+02  0.51100000000E-03 0.  1.
         11   -1    0    0    0    0 -0.00000000000E+00 -0.00000000000E+00 -0.45593999997E+02  0.45594000000E+02  0.51100000000E-03 0. -1.
    9900012    2    1    2    0    0  0.29964013988E+02 -0.26378799437E+02  0.17027584387E+02  0.47787287747E+02  0.20000076153E+02 0.  0.
         12    1    1    2    0    0 -0.29964013988E+02  0.26378799437E+02 -0.17027584387E+02  0.43400712253E+02  0.00000000000E+00 0. -1.
         11    1    3    3    0    0  0.12561916180E+02 -0.11393505989E+02 -0.17192886409E+01  0.17046104262E+02  0.51100000000E-03 0. -1.
        -11    1    3    3    0    0  0.95788543317E+01 -0.33059750071E+01  0.60712747902E+01  0.11812886984E+02  0.51100000000E-03 0.  1.
        -12    1    3    3    0    0  0.78232434764E+01 -0.11679318441E+02  0.12675598238E+02  0.18928296501E+02  0.00000000000E+00 0.  1.
</event>
<event>
 7    1  0.4005571E-009  0.4778722E+02  0.7816164E-02  0.1312668E+00
        -11   -1    0    0    0    0  0.00000000000E+00  0.00000000000E+00  0.45593999997E+02  0.45594000000E+02  0.51100000000E-03 0. -1.
         11   -1    0    0    0    0 -0.00000000000E+00 -0.00000000000E+00 -0.45593999997E+02  0.45594000000E+02  0.51100000000E-03 0.  1.
    9900012    2    1    2    0    0  0.26148220666E+02 -0.27900829739E+02 -0.20529043636E+02  0.47787223777E+02  0.19999784490E+02 0.  0.
         12    1    1    2    0    0 -0.26148220666E+02  0.27900829739E+02  0.20529043636E+02  0.43400776223E+02  0.00000000000E+00 0. -1.
         11    1    3    3    0    0  0.21088812255E+02 -0.18368727979E+02 -0.19625675519E+02  0.34165996396E+02  0.51100000000E-03 0. -1.
        -11    1    3    3    0    0  0.59711532585E+01 -0.24669406231E+01 -0.64488615719E+00  0.64927918257E+01  0.51100000000E-03 0.  1.
         12    1    3    3    0    0 -0.91174484746E+00 -0.70651611362E+01 -0.25848195987E+00  0.71284355556E+01  0.00000000000E+00 0. -1.
</event>
<event>
 7    1  0.4005571E-009  0.4778727E+02  0.7816164E-02  0.1312668E+00
        -11   -1    0    0    0    0  0.00000000000E+00  0.00000000000E+00  0.45593999997E+02  0.45594000000E+02  0.51100000000E-03 0.  1.
         11   -1    0    0    0    0 -0.00000000000E+00 -0.00000000000E+00 -0.45593999997E+02  0.45594000000E+02  0.51100000000E-03 0. -1.
    9900012    2    1    2    0    0 -0.90825852217E+01 -0.42210507560E+02 -0.44048682670E+01  0.47787272273E+02  0.20000005602E+02 0.  0.
         12    1    1    2    0    0  0.90825852217E+01  0.42210507560E+02  0.44048682670E+01  0.43400727727E+02  0.00000000000E+00 0. -1.
         11    1    3    3    0    0  0.74879567400E+00 -0.22464122797E+01 -0.36604031047E+01  0.43595428937E+01  0.51100000000E-03 0. -1.
        -11    1    3    3    0    0 -0.93717684013E+01 -0.24724472072E+02 -0.63335547896E+01  0.27189032324E+02  0.51100000000E-03 0.  1.
        -12    1    3    3    0    0 -0.45961249442E+00 -0.15239623208E+02  0.55890896273E+01  0.16238697055E+02  0.00000000000E+00 0.  1.
</event>
<event>
 7    1  0.4005571E-009  0.4778727E+02  0.7816164E-02  0.1312668E+00
        -11   -1    0    0    0    0  0.00000000000E+00  0.00000000000E+00  0.45593999997E+02  0.45594000000E+02  0.51100000000E-03 0.  1.
         11   -1    0    0    0    0 -0.00000000000E+00 -0.00000000000E+00 -0.45593999997E+02  0.45594000000E+02  0.51100000000E-03 0. -1.
    9900012    2    1    2    0    0  0.10410065669E+02  0.31667869566E+02  0.27792076366E+02  0.47787274904E+02  0.20000017598E+02 0.  0.
         12    1    1    2    0    0 -0.10410065669E+02 -0.31667869566E+02 -0.27792076366E+02  0.43400725096E+02  0.00000000000E+00 0. -1.
         11    1    3    3    0    0 -0.23338035107E+01 -0.78101298371E+00  0.22482050094E+01  0.33333235865E+01  0.51100000000E-03 0. -1.
        -11    1    3    3    0    0 -0.15372818906E+00  0.50407427619E+01  0.79772926652E+01  0.94376860763E+01  0.51100000000E-03 0.  1.
        -12    1    3    3    0    0  0.12897597369E+02  0.27408139788E+02  0.17566578692E+02  0.35016265241E+02  0.00000000000E+00 0.  1.
</event>
<event>
 7    1  0.4005571E-009  0.4778726E+02  0.7816164E-02  0.1312668E+00
        -11   -1    0    0    0    0  0.00000000000E+00  0.00000000000E+00  0.45593999997E+02  0.45594000000E+02  0.51100000000E-03 0.  1.
         11   -1    0    0    0    0 -0.00000000000E+00 -0.00000000000E+00 -0.45593999997E+02  0.45594000000E+02  0.51100000000E-03 0. -1.
    9900012    2    1    2    0    0  0.33996169539E+02  0.26120458460E+02  0.67532504282E+01  0.47787259398E+02  0.19999946898E+02 0.  0.
         12    1    1    2    0    0 -0.33996169539E+02 -0.26120458460E+02 -0.67532504282E+01  0.43400740602E+02  0.00000000000E+00 0. -1.
         11    1    3    3    0    0  0.16460744354E+02  0.16660592675E+02 -0.17723952795E+01  0.23487716753E+02  0.51100000000E-03 0. -1.
        -11    1    3    3    0    0  0.10339749949E+01  0.57450907450E+01  0.23601760715E+01  0.62964754671E+01  0.51100000000E-03 0.  1.
         12    1    3    3    0    0  0.16501450190E+02  0.37147750398E+01  0.61654696362E+01  0.18003067178E+02  0.00000000000E+00 0. -1.
</event>
<event>
 7    1  0.4005571E-009  0.4778727E+02  0.7816164E-02  0.1312668E+00
        -11   -1    0    0    0    0  0.00000000000E+00  0.00000000000E+00  0.45593999997E+02  0.45594000000E+02  0.51100000000E-03 0. -1.
         11   -1    0    0    0    0 -0.00000000000E+00 -0.00000000000E+00 -0.45593999997E+02  0.45594000000E+02  0.51100000000E-03 0.  1.
    9900012    2    1    2    0    0  0.32555846302E+02 -0.27138921607E+02 -0.93391088036E+01  0.47787272498E+02  0.20000006628E+02 0.  0.
         12    1    1    2    0    0 -0.32555846302E+02  0.27138921607E+02  0.93391088036E+01  0.43400727502E+02  0.00000000000E+00 0. -1.
         11    1    3    3    0    0  0.11088401911E+02 -0.52835400702E+01 -0.10559740796E+02  0.16198042429E+02  0.51100000000E-03 0.  1.
        -11    1    3    3    0    0  0.57389126646E+01 -0.19892925961E+01  0.14702803546E+01  0.62493302191E+01  0.51100000000E-03 0. -1.
        -12    1    3    3    0    0  0.15728531726E+02 -0.19866088941E+02 -0.24964836254E+00  0.25339899850E+02  0.00000000000E+00 0.  1.
</event>
<event>
 7    1  0.4005571E-009  0.4778728E+02  0.7816164E-02  0.1312668E+00
        -11   -1    0    0    0    0  0.00000000000E+00  0.00000000000E+00  0.45593999997E+02  0.45594000000E+02  0.51100000000E-03 0. -1.
         11   -1    0    0    0    0 -0.00000000000E+00 -0.00000000000E+00 -0.45593999997E+02  0.45594000000E+02  0.51100000000E-03 0.  1.
    9900012    2    1    2    0    0 -0.37436584848E+00  0.37196852156E+02 -0.22357927344E+02  0.47787275637E+02  0.20000020940E+02 0.  0.
         12    1    1    2    0    0  0.37436584848E+00 -0.37196852156E+02  0.22357927344E+02  0.43400724363E+02  0.00000000000E+00 0. -1.
         11    1    3    3    0    0 -0.13521829465E+01  0.77058112279E+01 -0.91777816085E+01  0.12059834199E+02  0.51100000000E-03 0. -1.
        -11    1    3    3    0    0 -0.44823756425E+01  0.11373968620E+02 -0.11410301260E+02  0.16722853485E+02  0.51100000000E-03 0.  1.
         12    1    3    3    0    0  0.54601927405E+01  0.18117072308E+02 -0.17698444748E+01  0.19004587952E+02  0.00000000000E+00 0. -1.
</event>
<event>
 7    1  0.4005571E-009  0.4778727E+02  0.7816164E-02  0.1312668E+00
        -11   -1    0    0    0    0  0.00000000000E+00  0.00000000000E+00  0.45593999997E+02  0.45594000000E+02  0.51100000000E-03 0.  1.
         11   -1    0    0    0    0 -0.00000000000E+00 -0.00000000000E+00 -0.45593999997E+02  0.45594000000E+02  0.51100000000E-03 0. -1.
    9900012    2    1    2    0    0 -0.79145242589E+01  0.32285451789E+01  0.42550672734E+02  0.47787274795E+02  0.20000017100E+02 0.  0.
         12    1    1    2    0    0  0.79145242589E+01 -0.32285451789E+01 -0.42550672734E+02  0.43400725205E+02  0.00000000000E+00 0. -1.
         11    1    3    3    0    0 -0.44811897978E+01  0.66183975049E+01  0.18194551325E+02  0.19872743789E+02  0.51100000000E-03 0. -1.
        -11    1    3    3    0    0 -0.28099822885E+01  0.26273014301E+01  0.20228753617E+02  0.20591289091E+02  0.51100000000E-03 0.  1.
         12    1    3    3    0    0 -0.62335217255E+00 -0.60171537561E+01  0.41273677922E+01  0.73232419151E+01  0.00000000000E+00 0. -1.
</event>
<event>
 7    1  0.4005571E-009  0.4778726E+02  0.7816164E-02  0.1312668E+00
        -11   -1    0    0    0    0  0.00000000000E+00  0.00000000000E+00  0.45593999997E+02  0.45594000000E+02  0.51100000000E-03 0.  1.
         11   -1    0    0    0    0 -0.00000000000E+00 -0.00000000000E+00 -0.45593999997E+02  0.45594000000E+02  0.51100000000E-03 0. -1.
    9900012    2    1    2    0    0  0.31332699991E+02  0.29664586021E+02  0.46795487384E+01  0.47787263498E+02  0.19999965593E+02 0.  0.
         12    1    1    2    0    0 -0.31332699991E+02 -0.29664586021E+02 -0.46795487384E+01  0.43400736502E+02  0.00000000000E+00 0. -1.
         11    1    3    3    0    0  0.16802235442E+01 -0.20982168807E+01  0.15881858391E+01  0.31221786876E+01  0.51100000000E-03 0. -1.
        -11    1    3    3    0    0  0.25527540258E+01  0.46239174572E+01  0.34539766491E+01  0.63108732138E+01  0.51100000000E-03 0.  1.
        -12    1    3    3    0    0  0.27099722421E+02  0.27138885444E+02 -0.36261374990E+00  0.38354211597E+02  0.00000000000E+00 0.  1.
</event>
<event>
 7    1  0.4005571E-009  0.4778727E+02  0.7816164E-02  0.1312668E+00
        -11   -1    0    0    0    0  0.00000000000E+00  0.00000000000E+00  0.45593999997E+02  0.45594000000E+02  0.51100000000E-03 0.  1.
         11   -1    0    0    0    0 -0.00000000000E+00 -0.00000000000E+00 -0.45593999997E+02  0.45594000000E+02  0.51100000000E-03 0. -1.
    9900012    2    1    2    0    0 -0.13209900845E+02 -0.41097971048E+02  0.44808835987E+01  0.47787273942E+02  0.20000013209E+02 0.  0.
         12    1    1    2    0    0  0.13209900845E+02  0.41097971048E+02 -0.44808835987E+01  0.43400726058E+02  0.00000000000E+00 0. -1.
         11    1    3    3    0    0  0.21900523742E+00 -0.13842055950E+02  0.57670043497E+01  0.14996960214E+02  0.51100000000E-03 0. -1.
        -11    1    3    3    0    0 -0.86450203048E+01 -0.24214994243E+02  0.27106472863E+01  0.25854398682E+02  0.51100000000E-03 0.  1.
        -12    1    3    3    0    0 -0.47838857776E+01 -0.30409208552E+01 -0.39967680373E+01  0.69359150459E+01  0.00000000000E+00 0.  1.
</event>
<event>
 7    1  0.4005571E-009  0.4778727E+02  0.7816164E-02  0.1312668E+00
        -11   -1    0    0    0    0  0.00000000000E+00  0.00000000000E+00  0.45593999997E+02  0.45594000000E+02  0.51100000000E-03 0.  1.
         11   -1    0    0    0    0 -0.00000000000E+00 -0.00000000000E+00 -0.45593999997E+02  0.45594000000E+02  0.51100000000E-03 0. -1.
    9900012    2    1    2    0    0 -0.25238846354E+02 -0.15971547803E+02  0.31488623885E+02  0.47787272602E+02  0.20000007102E+02 0.  0.
         12    1    1    2    0    0  0.25238846354E+02  0.15971547803E+02 -0.31488623885E+02  0.43400727398E+02  0.00000000000E+00 0. -1.
         11    1    3    3    0    0 -0.14337975076E+02 -0.50249449460E+01  0.72591461025E+01  0.16838135390E+02  0.51100000000E-03 0. -1.
        -11    1    3    3    0    0 -0.87378460152E+01 -0.61070204983E+01  0.65959032299E+01  0.12536011807E+02  0.51100000000E-03 0.  1.
         12    1    3    3    0    0 -0.21630252626E+01 -0.48395823589E+01  0.17633574552E+02  0.18413125405E+02  0.00000000000E+00 0. -1.
</event>
<event>
 7    1  0.4005571E-009  0.4778727E+02  0.7816164E-02  0.1312668E+00
        -11   -1    0    0    0    0  0.00000000000E+00  0.00000000000E+00  0.45593999997E+02  0.45594000000E+02  0.51100000000E-03 0. -1.
         11   -1    0    0    0    0 -0.00000000000E+00 -0.00000000000E+00 -0.45593999997E+02  0.45594000000E+02  0.51100000000E-03 0.  1.
    9900012    2    1    2    0    0  0.38766442879E+01  0.42814345170E+02 -0.59604371643E+01  0.47787270347E+02  0.19999996818E+02 0.  0.
         12    1    1    2    0    0 -0.38766442879E+01 -0.42814345170E+02  0.59604371643E+01  0.43400729653E+02  0.00000000000E+00 0. -1.
         11    1    3    3    0    0  0.89544381109E+00 -0.72504724417E+00  0.60774561106E+00  0.13026389039E+01  0.51100000000E-03 0. -1.
        -11    1    3    3    0    0 -0.63663721835E+00  0.25990753195E+01  0.32683608489E+01  0.42240599385E+01  0.51100000000E-03 0.  1.
        -12    1    3    3    0    0  0.36178376951E+01  0.40940317095E+02 -0.98365436242E+01  0.42260571504E+02  0.00000000000E+00 0.  1.
</event>
<event>
 7    1  0.4005571E-009  0.4778725E+02  0.7816164E-02  0.1312668E+00
        -11   -1    0    0    0    0  0.00000000000E+00  0.00000000000E+00  0.45593999997E+02  0.45594000000E+02  0.51100000000E-03 0.  1.
         11   -1    0    0    0    0 -0.00000000000E+00 -0.00000000000E+00 -0.45593999997E+02  0.45594000000E+02  0.51100000000E-03 0. -1.
    9900012    2    1    2    0    0 -0.54485646784E+01  0.43027125846E+02 -0.16138703211E+01  0.47787251239E+02  0.19999909697E+02 0.  0.
         12    1    1    2    0    0  0.54485646784E+01 -0.43027125846E+02  0.16138703211E+01  0.43400748761E+02  0.00000000000E+00 0. -1.
         11    1    3    3    0    0  0.56447975148E+00  0.10079031521E+02  0.48359270415E+01  0.11193377703E+02  0.51100000000E-03 0. -1.
        -11    1    3    3    0    0  0.22400736914E+01  0.62953521613E+01 -0.55364062627E+01  0.86776254554E+01  0.51100000000E-03 0.  1.
        -12    1    3    3    0    0 -0.82531181213E+01  0.26652742164E+02 -0.91339109991E+00  0.27916248080E+02  0.00000000000E+00 0.  1.
</event>
<event>
 7    1  0.4005571E-009  0.4778728E+02  0.7816164E-02  0.1312668E+00
        -11   -1    0    0    0    0  0.00000000000E+00  0.00000000000E+00  0.45593999997E+02  0.45594000000E+02  0.51100000000E-03 0. -1.
         11   -1    0    0    0    0 -0.00000000000E+00 -0.00000000000E+00 -0.45593999997E+02  0.45594000000E+02  0.51100000000E-03 0.  1.
    9900012    2    1    2    0    0  0.25799591090E+02  0.10346362339E+02 -0.33331017178E+02  0.47787276272E+02  0.20000023833E+02 0.  0.
         12    1    1    2    0    0 -0.25799591090E+02 -0.10346362339E+02  0.33331017178E+02  0.43400723728E+02  0.00000000000E+00 0. -1.
         11    1    3    3    0    0  0.82594992386E+01 -0.61963800287E-01 -0.74533211617E+01  0.11125428701E+02  0.51100000000E-03 0. -1.
        -11    1    3    3    0    0  0.11759876004E+02  0.58056905431E+01 -0.42179639428E+01  0.13776499787E+02  0.51100000000E-03 0.  1.
         12    1    3    3    0    0  0.57802158475E+01  0.46026355958E+01 -0.21659732073E+02  0.22885347783E+02  0.00000000000E+00 0. -1.
</event>
<event>
 7    1  0.4005571E-009  0.4778727E+02  0.7816164E-02  0.1312668E+00
        -11   -1    0    0    0    0  0.00000000000E+00  0.00000000000E+00  0.45593999997E+02  0.45594000000E+02  0.51100000000E-03 0. -1.
         11   -1    0    0    0    0 -0.00000000000E+00 -0.00000000000E+00 -0.45593999997E+02  0.45594000000E+02  0.51100000000E-03 0.  1.
    9900012    2    1    2    0    0  0.69984631895E+01 -0.57015122022E+01 -0.42451588361E+02  0.47787273246E+02  0.20000010039E+02 0.  0.
         12    1    1    2    0    0 -0.69984631895E+01  0.57015122022E+01  0.42451588361E+02  0.43400726754E+02  0.00000000000E+00 0. -1.
         11    1    3    3    0    0 -0.55273929148E+00 -0.26540695520E+01 -0.27592684078E+02  0.27725544554E+02  0.51100000000E-03 0. -1.
        -11    1    3    3    0    0  0.29738448403E+01 -0.52763080216E+01 -0.13493775234E+02  0.14790711605E+02  0.51100000000E-03 0.  1.
         12    1    3    3    0    0  0.45773576406E+01  0.22288653714E+01 -0.13651290491E+01  0.52710170873E+01  0.00000000000E+00 0. -1.
</event>
<event>
 7    1  0.4005571E-009  0.4778727E+02  0.7816164E-02  0.1312668E+00
        -11   -1    0    0    0    0  0.00000000000E+00  0.00000000000E+00  0.45593999997E+02  0.45594000000E+02  0.51100000000E-03 0.  1.
         11   -1    0    0    0    0 -0.00000000000E+00 -0.00000000000E+00 -0.45593999997E+02  0.45594000000E+02  0.51100000000E-03 0. -1.
    9900012    2    1    2    0    0  0.22998717411E+02  0.12475057981E+02  0.34627373349E+02  0.47787273517E+02  0.20000011276E+02 0.  0.
         12    1    1    2    0    0 -0.22998717411E+02 -0.12475057981E+02 -0.34627373349E+02  0.43400726483E+02  0.00000000000E+00 0. -1.
         11    1    3    3    0    0  0.30388459466E+01  0.52185677544E+01  0.48254552564E+01  0.77300098827E+01  0.51100000000E-03 0. -1.
        -11    1    3    3    0    0  0.11163183518E+02 -0.13133693364E+01  0.48402459836E+01  0.12238038516E+02  0.51100000000E-03 0.  1.
        -12    1    3    3    0    0  0.87966879463E+01  0.85698595631E+01  0.24961672109E+02  0.27819225119E+02  0.00000000000E+00 0.  1.
</event>
<event>
 7    1  0.4005571E-009  0.4778727E+02  0.7816164E-02  0.1312668E+00
        -11   -1    0    0    0    0  0.00000000000E+00  0.00000000000E+00  0.45593999997E+02  0.45594000000E+02  0.51100000000E-03 0. -1.
         11   -1    0    0    0    0 -0.00000000000E+00 -0.00000000000E+00 -0.45593999997E+02  0.45594000000E+02  0.51100000000E-03 0.  1.
    9900012    2    1    2    0    0  0.31271619530E+02  0.24813935910E+02 -0.17028734796E+02  0.47787269452E+02  0.19999992737E+02 0.  0.
         12    1    1    2    0    0 -0.31271619530E+02 -0.24813935910E+02  0.17028734796E+02  0.43400730548E+02  0.00000000000E+00 0. -1.
         11    1    3    3    0    0 -0.56704987914E+00  0.16586816686E+00 -0.50455471209E+00  0.77693856438E+00  0.51100000000E-03 0. -1.
        -11    1    3    3    0    0  0.31267503195E+02  0.16072929279E+02 -0.11186650597E+02  0.36893589735E+02  0.51100000000E-03 0.  1.
         12    1    3    3    0    0  0.57116621391E+00  0.85751384641E+01 -0.53375294867E+01  0.10116741152E+02  0.00000000000E+00 0. -1.
</event>
<event>
 7    1  0.4005571E-009  0.4778727E+02  0.7816164E-02  0.1312668E+00
        -11   -1    0    0    0    0  0.00000000000E+00  0.00000000000E+00  0.45593999997E+02  0.45594000000E+02  0.51100000000E-03 0.  1.
         11   -1    0    0    0    0 -0.00000000000E+00 -0.00000000000E+00 -0.45593999997E+02  0.45594000000E+02  0.51100000000E-03 0. -1.
    9900012    2    1    2    0    0 -0.15557478277E+02 -0.40433411827E+02 -0.25937170016E+01  0.47787270857E+02  0.19999999145E+02 0.  0.
         12    1    1    2    0    0  0.15557478277E+02  0.40433411827E+02  0.25937170016E+01  0.43400729143E+02  0.00000000000E+00 0. -1.
         11    1    3    3    0    0 -0.65593287216E+01 -0.52967044673E+01 -0.72641834236E+00  0.84621247545E+01  0.51100000000E-03 0. -1.
        -11    1    3    3    0    0 -0.12135752446E+02 -0.27048908650E+02  0.22316080208E+01  0.29730456122E+02  0.51100000000E-03 0.  1.
         12    1    3    3    0    0  0.31376028901E+01 -0.80877987089E+01 -0.40989066800E+01  0.95946899805E+01  0.00000000000E+00 0. -1.
</event>
<event>
 7    1  0.4005571E-009  0.4778727E+02  0.7816164E-02  0.1312668E+00
        -11   -1    0    0    0    0  0.00000000000E+00  0.00000000000E+00  0.45593999997E+02  0.45594000000E+02  0.51100000000E-03 0.  1.
         11   -1    0    0    0    0 -0.00000000000E+00 -0.00000000000E+00 -0.45593999997E+02  0.45594000000E+02  0.51100000000E-03 0. -1.
    9900012    2    1    2    0    0  0.45439118245E+01 -0.19543018481E+01  0.43117942531E+02  0.47787269609E+02  0.19999993456E+02 0.  0.
         12    1    1    2    0    0 -0.45439118245E+01  0.19543018481E+01 -0.43117942531E+02  0.43400730391E+02  0.00000000000E+00 0. -1.
         11    1    3    3    0    0  0.42105306412E+00 -0.50502121225E+01  0.18186109935E+02  0.18878996874E+02  0.51100000000E-03 0. -1.
        -11    1    3    3    0    0  0.89746153233E+01  0.39043444215E+00  0.16955290407E+02  0.19187965820E+02  0.51100000000E-03 0.  1.
         12    1    3    3    0    0 -0.48517565630E+01  0.27054758323E+01  0.79765421888E+01  0.97203069147E+01  0.00000000000E+00 0. -1.
</event>
<event>
 7    1  0.4005571E-009  0.4778727E+02  0.7816164E-02  0.1312668E+00
        -11   -1    0    0    0    0  0.00000000000E+00  0.00000000000E+00  0.45593999997E+02  0.45594000000E+02  0.51100000000E-03 0.  1.
         11   -1    0    0    0    0 -0.00000000000E+00 -0.00000000000E+00 -0.45593999997E+02  0.45594000000E+02  0.51100000000E-03 0. -1.
    9900012    2    1    2    0    0 -0.29211904504E+02 -0.11132159344E+02  0.30105861295E+02  0.47787271656E+02  0.20000002790E+02 0.  0.
         12    1    1    2    0    0  0.29211904504E+02  0.11132159344E+02 -0.30105861295E+02  0.43400728344E+02  0.00000000000E+00 0. -1.
         11    1    3    3    0    0 -0.12083299832E+02 -0.10676845537E+02  0.14901186952E+02  0.21955558255E+02  0.51100000000E-03 0. -1.
        -11    1    3    3    0    0 -0.14549748499E+02 -0.52103326575E+01  0.11739358946E+02  0.19407609242E+02  0.51100000000E-03 0.  1.
         12    1    3    3    0    0 -0.25788561731E+01  0.47550188511E+01  0.34653153975E+01  0.64241041586E+01  0.00000000000E+00 0. -1.
</event>
<event>
 7    1  0.4005571E-009  0.4778727E+02  0.7816164E-02  0.1312668E+00
        -11   -1    0    0    0    0  0.00000000000E+00  0.00000000000E+00  0.45593999997E+02  0.45594000000E+02  0.51100000000E-03 0. -1.
         11   -1    0    0    0    0 -0.00000000000E+00 -0.00000000000E+00 -0.45593999997E+02  0.45594000000E+02  0.51100000000E-03 0.  1.
    9900012    2    1    2    0    0  0.31926985529E+02 -0.38705564114E+01 -0.29142920820E+02  0.47787269064E+02  0.19999990969E+02 0.  0.
         12    1    1    2    0    0 -0.31926985529E+02  0.38705564114E+01  0.29142920820E+02  0.43400730936E+02  0.00000000000E+00 0. -1.
         11    1    3    3    0    0  0.59027544431E+01  0.32845807354E+01 -0.13471507611E+01  0.68880908862E+01  0.51100000000E-03 0. -1.
        -11    1    3    3    0    0  0.13975208563E+02 -0.32568673608E+01 -0.57175632536E+01  0.15446817446E+02  0.51100000000E-03 0.  1.
         12    1    3    3    0    0  0.12049022522E+02 -0.38982697859E+01 -0.22078206805E+02  0.25452360731E+02  0.00000000000E+00 0. -1.
</event>
<event>
 7    1  0.4005571E-009  0.4778727E+02  0.7816164E-02  0.1312668E+00
        -11   -1    0    0    0    0  0.00000000000E+00  0.00000000000E+00  0.45593999997E+02  0.45594000000E+02  0.51100000000E-03 0.  1.
         11   -1    0    0    0    0 -0.00000000000E+00 -0.00000000000E+00 -0.45593999997E+02  0.45594000000E+02  0.51100000000E-03 0. -1.
    9900012    2    1    2    0    0  0.19383583238E+02 -0.30661443173E+02  0.23828054533E+02  0.47787267524E+02  0.19999983951E+02 0.  0.
         12    1    1    2    0    0 -0.19383583238E+02  0.30661443173E+02 -0.23828054533E+02  0.43400732476E+02  0.00000000000E+00 0. -1.
         11    1    3    3    0    0  0.12545283551E+02 -0.10976320861E+02  0.12624121152E+02  0.20910097899E+02  0.51100000000E-03 0. -1.
        -11    1    3    3    0    0  0.67926870417E+01 -0.18730450281E+02  0.13716404410E+02  0.24189049489E+02  0.51100000000E-03 0.  1.
         12    1    3    3    0    0  0.45612644974E-01 -0.95467203087E+00 -0.25124710287E+01  0.26881201368E+01  0.00000000000E+00 0. -1.
</event>
<event>
 7    1  0.4005571E-009  0.4778727E+02  0.7816164E-02  0.1312668E+00
        -11   -1    0    0    0    0  0.00000000000E+00  0.00000000000E+00  0.45593999997E+02  0.45594000000E+02  0.51100000000E-03 0.  1.
         11   -1    0    0    0    0 -0.00000000000E+00 -0.00000000000E+00 -0.45593999997E+02  0.45594000000E+02  0.51100000000E-03 0. -1.
    9900012    2    1    2    0    0  0.22292312114E+02 -0.13029645151E+02  0.34884161148E+02  0.47787268081E+02  0.19999986487E+02 0.  0.
         12    1    1    2    0    0 -0.22292312114E+02  0.13029645151E+02 -0.34884161148E+02  0.43400731919E+02  0.00000000000E+00 0. -1.
         11    1    3    3    0    0  0.40320982960E+01  0.43514045938E+00  0.32432577250E+01  0.51928686503E+01  0.51100000000E-03 0. -1.
        -11    1    3    3    0    0  0.18700416346E+02 -0.10462771874E+02  0.32937821942E+02  0.39294723327E+02  0.51100000000E-03 0.  1.
         12    1    3    3    0    0 -0.44020252774E+00 -0.30020137365E+01 -0.12969185196E+01  0.32996761032E+01  0.00000000000E+00 0. -1.
</event>
<event>
 7    1  0.4005571E-009  0.4778727E+02  0.7816164E-02  0.1312668E+00
        -11   -1    0    0    0    0  0.00000000000E+00  0.00000000000E+00  0.45593999997E+02  0.45594000000E+02  0.51100000000E-03 0. -1.
         11   -1    0    0    0    0 -0.00000000000E+00 -0.00000000000E+00 -0.45593999997E+02  0.45594000000E+02  0.51100000000E-03 0.  1.
    9900012    2    1    2    0    0  0.37204533815E+01 -0.31028039156E+02 -0.30117139834E+02  0.47787273059E+02  0.20000009186E+02 0.  0.
         12    1    1    2    0    0 -0.37204533815E+01  0.31028039156E+02  0.30117139834E+02  0.43400726941E+02  0.00000000000E+00 0. -1.
         11    1    3    3    0    0  0.51086668894E+01 -0.50155464580E+01 -0.93203001652E+01  0.11752539261E+02  0.51100000000E-03 0. -1.
        -11    1    3    3    0    0  0.34316216909E+01 -0.11167450095E+02 -0.24317098956E+01  0.11933196652E+02  0.51100000000E-03 0.  1.
         12    1    3    3    0    0 -0.48198351988E+01 -0.14845042603E+02 -0.18365129773E+02  0.24101537146E+02  0.00000000000E+00 0. -1.
</event>
<event>
 7    1  0.4005571E-009  0.4778727E+02  0.7816164E-02  0.1312668E+00
        -11   -1    0    0    0    0  0.00000000000E+00  0.00000000000E+00  0.45593999997E+02  0.45594000000E+02  0.51100000000E-03 0.  1.
         11   -1    0    0    0    0 -0.00000000000E+00 -0.00000000000E+00 -0.45593999997E+02  0.45594000000E+02  0.51100000000E-03 0. -1.
    9900012    2    1    2    0    0 -0.10551147150E+02 -0.27632421330E+02  0.31760755676E+02  0.47787274017E+02  0.20000013555E+02 0.  0.
         12    1    1    2    0    0  0.10551147150E+02  0.27632421330E+02 -0.31760755676E+02  0.43400725983E+02  0.00000000000E+00 0. -1.
         11    1    3    3    0    0  0.35423618223E+01 -0.53115617007E+01  0.41474064337E+01  0.76132775707E+01  0.51100000000E-03 0. -1.
        -11    1    3    3    0    0 -0.10451278036E+02 -0.18030183203E+02  0.27551355226E+02  0.34545533632E+02  0.51100000000E-03 0.  1.
         12    1    3    3    0    0 -0.36422309368E+01 -0.42906764263E+01  0.61994016130E-01  0.56284628142E+01  0.00000000000E+00 0. -1.
</event>
<event>
 7    1  0.4005571E-009  0.4778727E+02  0.7816164E-02  0.1312668E+00
        -11   -1    0    0    0    0  0.00000000000E+00  0.00000000000E+00  0.45593999997E+02  0.45594000000E+02  0.51100000000E-03 0.  1.
         11   -1    0    0    0    0 -0.00000000000E+00 -0.00000000000E+00 -0.45593999997E+02  0.45594000000E+02  0.51100000000E-03 0. -1.
    9900012    2    1    2    0    0  0.12567094186E+02  0.24529962405E+02  0.33525697061E+02  0.47787271028E+02  0.19999999926E+02 0.  0.
         12    1    1    2    0    0 -0.12567094186E+02 -0.24529962405E+02 -0.33525697061E+02  0.43400728972E+02  0.00000000000E+00 0. -1.
         11    1    3    3    0    0  0.27756182020E+00 -0.57790163097E+00  0.44589750440E+01  0.45048273622E+01  0.51100000000E-03 0. -1.
        -11    1    3    3    0    0  0.40753700488E+01  0.21212230793E+02  0.25738723446E+02  0.33601328264E+02  0.51100000000E-03 0.  1.
         12    1    3    3    0    0  0.82141623168E+01  0.38956332429E+01  0.33279985710E+01  0.96811154016E+01  0.00000000000E+00 0. -1.
</event>
<event>
 7    1  0.4005571E-009  0.4778727E+02  0.7816164E-02  0.1312668E+00
        -11   -1    0    0    0    0  0.00000000000E+00  0.00000000000E+00  0.45593999997E+02  0.45594000000E+02  0.51100000000E-03 0.  1.
         11   -1    0    0    0    0 -0.00000000000E+00 -0.00000000000E+00 -0.45593999997E+02  0.45594000000E+02  0.51100000000E-03 0. -1.
    9900012    2    1    2    0    0 -0.23484571685E+02 -0.32930468271E+02  0.15737924679E+02  0.47787272807E+02  0.20000008034E+02 0.  0.
         12    1    1    2    0    0  0.23484571685E+02  0.32930468271E+02 -0.15737924679E+02  0.43400727193E+02  0.00000000000E+00 0. -1.
         11    1    3    3    0    0 -0.27740539237E+01 -0.13866054761E+01  0.49650141312E+00  0.31407903197E+01  0.51100000000E-03 0. -1.
        -11    1    3    3    0    0  0.17442619540E+01 -0.99409461883E+01  0.31806058244E+00  0.10097822720E+02  0.51100000000E-03 0.  1.
        -12    1    3    3    0    0 -0.22454779715E+02 -0.21602916606E+02  0.14923362683E+02  0.34548659767E+02  0.00000000000E+00 0.  1.
</event>
<event>
 7    1  0.4005571E-009  0.4778725E+02  0.7816164E-02  0.1312668E+00
        -11   -1    0    0    0    0  0.00000000000E+00  0.00000000000E+00  0.45593999997E+02  0.45594000000E+02  0.51100000000E-03 0.  1.
         11   -1    0    0    0    0 -0.00000000000E+00 -0.00000000000E+00 -0.45593999997E+02  0.45594000000E+02  0.51100000000E-03 0. -1.
    9900012    2    1    2    0    0  0.30081471337E+02  0.16949893011E+02  0.26295075537E+02  0.47787253597E+02  0.19999920449E+02 0.  0.
         12    1    1    2    0    0 -0.30081471337E+02 -0.16949893011E+02 -0.26295075537E+02  0.43400746403E+02  0.00000000000E+00 0. -1.
         11    1    3    3    0    0  0.90913122383E+01  0.12355669529E+02  0.88697665934E+01  0.17719686437E+02  0.51100000000E-03 0. -1.
        -11    1    3    3    0    0  0.10732766340E+02  0.58972953116E+01  0.35253457606E+01  0.12743564191E+02  0.51100000000E-03 0.  1.
        -12    1    3    3    0    0  0.10257392759E+02 -0.13030718298E+01  0.13899963183E+02  0.17324002969E+02  0.00000000000E+00 0.  1.
</event>
<event>
 7    1  0.4005571E-009  0.4778728E+02  0.7816164E-02  0.1312668E+00
        -11   -1    0    0    0    0  0.00000000000E+00  0.00000000000E+00  0.45593999997E+02  0.45594000000E+02  0.51100000000E-03 0.  1.
         11   -1    0    0    0    0 -0.00000000000E+00 -0.00000000000E+00 -0.45593999997E+02  0.45594000000E+02  0.51100000000E-03 0. -1.
    9900012    2    1    2    0    0  0.24633285290E+02 -0.30621880996E+02  0.18415332406E+02  0.47787276417E+02  0.20000024495E+02 0.  0.
         12    1    1    2    0    0 -0.24633285290E+02  0.30621880996E+02 -0.18415332406E+02  0.43400723583E+02  0.00000000000E+00 0. -1.
         11    1    3    3    0    0  0.10277450739E+00 -0.23818881883E+01  0.64455522275E+01  0.68723429570E+01  0.51100000000E-03 0. -1.
        -11    1    3    3    0    0  0.13742752919E+02 -0.79411702181E+01  0.25648654745E+01  0.16078058881E+02  0.51100000000E-03 0.  1.
         12    1    3    3    0    0  0.10787757864E+02 -0.20298822590E+02  0.94049147045E+01  0.24836874579E+02  0.00000000000E+00 0. -1.
</event>
<event>
 7    1  0.4005571E-009  0.4778725E+02  0.7816164E-02  0.1312668E+00
        -11   -1    0    0    0    0  0.00000000000E+00  0.00000000000E+00  0.45593999997E+02  0.45594000000E+02  0.51100000000E-03 0.  1.
         11   -1    0    0    0    0 -0.00000000000E+00 -0.00000000000E+00 -0.45593999997E+02  0.45594000000E+02  0.51100000000E-03 0. -1.
    9900012    2    1    2    0    0 -0.24789246899E+02 -0.31106777237E+02  0.17363385546E+02  0.47787245289E+02  0.19999882571E+02 0.  0.
         12    1    1    2    0    0  0.24789246899E+02  0.31106777237E+02 -0.17363385546E+02  0.43400754711E+02  0.00000000000E+00 0. -1.
         11    1    3    3    0    0 -0.15057670095E+02 -0.24285299069E+02  0.35428863192E+01  0.28793423265E+02  0.51100000000E-03 0. -1.
        -11    1    3    3    0    0 -0.54404283909E+01 -0.29200668408E+01  0.33508801581E+01  0.70252010310E+01  0.51100000000E-03 0.  1.
         12    1    3    3    0    0 -0.42911484123E+01 -0.39014113268E+01  0.10469619069E+02  0.11968620993E+02  0.00000000000E+00 0. -1.
</event>
<event>
 7    1  0.4005571E-009  0.4778728E+02  0.7816164E-02  0.1312668E+00
        -11   -1    0    0    0    0  0.00000000000E+00  0.00000000000E+00  0.45593999997E+02  0.45594000000E+02  0.51100000000E-03 0.  1.
         11   -1    0    0    0    0 -0.00000000000E+00 -0.00000000000E+00 -0.45593999997E+02  0.45594000000E+02  0.51100000000E-03 0. -1.
    9900012    2    1    2    0    0 -0.88018863193E+01 -0.26631287959E+02  0.33119839044E+02  0.47787280658E+02  0.20000043830E+02 0.  0.
         12    1    1    2    0    0  0.88018863193E+01  0.26631287959E+02 -0.33119839044E+02  0.43400719342E+02  0.00000000000E+00 0. -1.
         11    1    3    3    0    0 -0.28956129849E+01  0.54104004721E+00  0.30007333800E+00  0.29609699695E+01  0.51100000000E-03 0. -1.
        -11    1    3    3    0    0 -0.18786415631E+01  0.85492117500E+00  0.35195949262E+01  0.40801633599E+01  0.51100000000E-03 0.  1.
        -12    1    3    3    0    0 -0.40276317713E+01 -0.28027249181E+02  0.29300170780E+02  0.40746147328E+02  0.00000000000E+00 0.  1.
</event>
<event>
 7    1  0.4005571E-009  0.4778727E+02  0.7816164E-02  0.1312668E+00
        -11   -1    0    0    0    0  0.00000000000E+00  0.00000000000E+00  0.45593999997E+02  0.45594000000E+02  0.51100000000E-03 0.  1.
         11   -1    0    0    0    0 -0.00000000000E+00 -0.00000000000E+00 -0.45593999997E+02  0.45594000000E+02  0.51100000000E-03 0. -1.
    9900012    2    1    2    0    0 -0.19538675153E+02  0.17595965141E+02  0.34528908256E+02  0.47787270498E+02  0.19999997508E+02 0.  0.
         12    1    1    2    0    0  0.19538675153E+02 -0.17595965141E+02 -0.34528908256E+02  0.43400729502E+02  0.00000000000E+00 0. -1.
         11    1    3    3    0    0  0.15114891315E+01  0.27813113678E+01  0.45549026750E+01  0.55468397271E+01  0.51100000000E-03 0. -1.
        -11    1    3    3    0    0 -0.15859125121E+02  0.17528508765E+02  0.26123103330E+02  0.35230341994E+02  0.51100000000E-03 0.  1.
        -12    1    3    3    0    0 -0.51910391637E+01 -0.27138549919E+01  0.38509022506E+01  0.70100887769E+01  0.00000000000E+00 0.  1.
</event>
<event>
 7    1  0.4005571E-009  0.4778727E+02  0.7816164E-02  0.1312668E+00
        -11   -1    0    0    0    0  0.00000000000E+00  0.00000000000E+00  0.45593999997E+02  0.45594000000E+02  0.51100000000E-03 0. -1.
         11   -1    0    0    0    0 -0.00000000000E+00 -0.00000000000E+00 -0.45593999997E+02  0.45594000000E+02  0.51100000000E-03 0.  1.
    9900012    2    1    2    0    0 -0.23374792675E+02 -0.36547530862E+02  0.12330292176E+01  0.47787270678E+02  0.19999998327E+02 0.  0.
         12    1    1    2    0    0  0.23374792675E+02  0.36547530862E+02 -0.12330292176E+01  0.43400729322E+02  0.00000000000E+00 0. -1.
         11    1    3    3    0    0 -0.36543538119E+01 -0.74886288213E+01  0.76214300150E+01  0.11292477989E+02  0.51100000000E-03 0.  1.
        -11    1    3    3    0    0 -0.59978367891E+01 -0.40112220668E+01  0.58681026083E-01  0.72157738561E+01  0.51100000000E-03 0. -1.
        -12    1    3    3    0    0 -0.13722602074E+02 -0.25047679973E+02 -0.64470818235E+01  0.29279018832E+02  0.00000000000E+00 0.  1.
</event>
<event>
 7    1  0.4005571E-009  0.4778726E+02  0.7816164E-02  0.1312668E+00
        -11   -1    0    0    0    0  0.00000000000E+00  0.00000000000E+00  0.45593999997E+02  0.45594000000E+02  0.51100000000E-03 0.  1.
         11   -1    0    0    0    0 -0.00000000000E+00 -0.00000000000E+00 -0.45593999997E+02  0.45594000000E+02  0.51100000000E-03 0. -1.
    9900012    2    1    2    0    0  0.59992415646E+01  0.31867719624E+02  0.28845828952E+02  0.47787259208E+02  0.19999946032E+02 0.  0.
         12    1    1    2    0    0 -0.59992415646E+01 -0.31867719624E+02 -0.28845828952E+02  0.43400740792E+02  0.00000000000E+00 0. -1.
         11    1    3    3    0    0  0.10996481644E+02  0.19653513824E+02  0.11453675076E+02  0.25265982806E+02  0.51100000000E-03 0. -1.
        -11    1    3    3    0    0  0.74703051343E+00  0.43799166988E+01  0.40123377450E+01  0.59867002028E+01  0.51100000000E-03 0.  1.
        -12    1    3    3    0    0 -0.57442705929E+01  0.78342891015E+01  0.13379816131E+02  0.16534576199E+02  0.00000000000E+00 0.  1.
</event>
<event>
 7    1  0.4005571E-009  0.4778727E+02  0.7816164E-02  0.1312668E+00
        -11   -1    0    0    0    0  0.00000000000E+00  0.00000000000E+00  0.45593999997E+02  0.45594000000E+02  0.51100000000E-03 0.  1.
         11   -1    0    0    0    0 -0.00000000000E+00 -0.00000000000E+00 -0.45593999997E+02  0.45594000000E+02  0.51100000000E-03 0. -1.
    9900012    2    1    2    0    0 -0.42594056302E+02 -0.72597086468E+01  0.40824098212E+01  0.47787273372E+02  0.20000010612E+02 0.  0.
         12    1    1    2    0    0  0.42594056302E+02  0.72597086468E+01 -0.40824098212E+01  0.43400726628E+02  0.00000000000E+00 0. -1.
         11    1    3    3    0    0 -0.12830825548E+01 -0.31831898125E+01  0.32472350542E+00  0.34473821721E+01  0.51100000000E-03 0. -1.
        -11    1    3    3    0    0 -0.30993931971E+02 -0.95704382463E+01  0.37260918114E+01  0.32651200095E+02  0.51100000000E-03 0.  1.
         12    1    3    3    0    0 -0.10317041777E+02  0.54939194119E+01  0.31594504351E-01  0.11688691104E+02  0.00000000000E+00 0. -1.
</event>
<event>
 7    1  0.4005571E-009  0.4778727E+02  0.7816164E-02  0.1312668E+00
        -11   -1    0    0    0    0  0.00000000000E+00  0.00000000000E+00  0.45593999997E+02  0.45594000000E+02  0.51100000000E-03 0. -1.
         11   -1    0    0    0    0 -0.00000000000E+00 -0.00000000000E+00 -0.45593999997E+02  0.45594000000E+02  0.51100000000E-03 0.  1.
    9900012    2    1    2    0    0  0.20123008947E+00 -0.20764892603E+02 -0.38110392551E+02  0.47787270988E+02  0.19999999744E+02 0.  0.
         12    1    1    2    0    0 -0.20123008947E+00  0.20764892603E+02  0.38110392551E+02  0.43400729012E+02  0.00000000000E+00 0. -1.
         11    1    3    3    0    0  0.23675093092E+01 -0.15298648622E+01 -0.78482558435E+01  0.83391070788E+01  0.51100000000E-03 0. -1.
        -11    1    3    3    0    0  0.56532597579E+01 -0.15683287967E+02 -0.21080570022E+02  0.26875924171E+02  0.51100000000E-03 0.  1.
         12    1    3    3    0    0 -0.78195389776E+01 -0.35517397743E+01 -0.91815666858E+01  0.12572239739E+02  0.00000000000E+00 0. -1.
</event>
<event>
 7    1  0.4005571E-009  0.4778727E+02  0.7816164E-02  0.1312668E+00
        -11   -1    0    0    0    0  0.00000000000E+00  0.00000000000E+00  0.45593999997E+02  0.45594000000E+02  0.51100000000E-03 0.  1.
         11   -1    0    0    0    0 -0.00000000000E+00 -0.00000000000E+00 -0.45593999997E+02  0.45594000000E+02  0.51100000000E-03 0. -1.
    9900012    2    1    2    0    0  0.10070934984E+02  0.17441327717E+02  0.38444760923E+02  0.47787270900E+02  0.19999999340E+02 0.  0.
         12    1    1    2    0    0 -0.10070934984E+02 -0.17441327717E+02 -0.38444760923E+02  0.43400729100E+02  0.00000000000E+00 0. -1.
         11    1    3    3    0    0  0.87393232932E+01  0.56179068509E+01  0.88271899742E+01  0.13632898889E+02  0.51100000000E-03 0. -1.
        -11    1    3    3    0    0  0.67197361274E+01  0.69166791984E+01  0.15227459508E+02  0.18024173437E+02  0.51100000000E-03 0.  1.
        -12    1    3    3    0    0 -0.53881244370E+01  0.49067416682E+01  0.14390111441E+02  0.16130198574E+02  0.00000000000E+00 0.  1.
</event>
<event>
 7    1  0.4005571E-009  0.4778727E+02  0.7816164E-02  0.1312668E+00
        -11   -1    0    0    0    0  0.00000000000E+00  0.00000000000E+00  0.45593999997E+02  0.45594000000E+02  0.51100000000E-03 0.  1.
         11   -1    0    0    0    0 -0.00000000000E+00 -0.00000000000E+00 -0.45593999997E+02  0.45594000000E+02  0.51100000000E-03 0. -1.
    9900012    2    1    2    0    0  0.19266054410E+02 -0.11214498109E+02  0.37238118706E+02  0.47787270684E+02  0.19999998357E+02 0.  0.
         12    1    1    2    0    0 -0.19266054410E+02  0.11214498109E+02 -0.37238118706E+02  0.43400729316E+02  0.00000000000E+00 0. -1.
         11    1    3    3    0    0  0.83414141737E+01  0.12787237520E+01  0.87403716875E+01  0.12149420659E+02  0.51100000000E-03 0. -1.
        -11    1    3    3    0    0  0.96769625996E+01 -0.55908433330E+01  0.25810985321E+02  0.28126643913E+02  0.51100000000E-03 0.  1.
         12    1    3    3    0    0  0.12476776367E+01 -0.69023785283E+01  0.26867616981E+01  0.75112061119E+01  0.00000000000E+00 0. -1.
</event>
<event>
 7    1  0.4005571E-009  0.4778727E+02  0.7816164E-02  0.1312668E+00
        -11   -1    0    0    0    0  0.00000000000E+00  0.00000000000E+00  0.45593999997E+02  0.45594000000E+02  0.51100000000E-03 0. -1.
         11   -1    0    0    0    0 -0.00000000000E+00 -0.00000000000E+00 -0.45593999997E+02  0.45594000000E+02  0.51100000000E-03 0.  1.
    9900012    2    1    2    0    0 -0.22462678792E+02 -0.28245046024E+02 -0.24109522575E+02  0.47787266801E+02  0.19999980653E+02 0.  0.
         12    1    1    2    0    0  0.22462678792E+02  0.28245046024E+02  0.24109522575E+02  0.43400733199E+02  0.00000000000E+00 0. -1.
         11    1    3    3    0    0 -0.13578968703E+02 -0.10802727489E+02 -0.66494707726E+01  0.18582324237E+02  0.51100000000E-03 0. -1.
        -11    1    3    3    0    0 -0.23170070532E+01 -0.97548601623E+01 -0.12548286024E+01  0.10104474927E+02  0.51100000000E-03 0.  1.
         12    1    3    3    0    0 -0.65667030357E+01 -0.76874583733E+01 -0.16205223200E+02  0.19100467637E+02  0.00000000000E+00 0. -1.
</event>
<event>
 7    1  0.4005571E-009  0.4778727E+02  0.7816164E-02  0.1312668E+00
        -11   -1    0    0    0    0  0.00000000000E+00  0.00000000000E+00  0.45593999997E+02  0.45594000000E+02  0.51100000000E-03 0.  1.
         11   -1    0    0    0    0 -0.00000000000E+00 -0.00000000000E+00 -0.45593999997E+02  0.45594000000E+02  0.51100000000E-03 0. -1.
    9900012    2    1    2    0    0 -0.14322070779E+02  0.42341880524E+01  0.40750130218E+02  0.47787272211E+02  0.20000005319E+02 0.  0.
         12    1    1    2    0    0  0.14322070779E+02 -0.42341880524E+01 -0.40750130218E+02  0.43400727789E+02  0.00000000000E+00 0. -1.
         11    1    3    3    0    0  0.15353317778E+01  0.94343169673E+00  0.52583827827E+00  0.18771822475E+01  0.51100000000E-03 0. -1.
        -11    1    3    3    0    0 -0.48823229072E+00  0.59138990413E+01  0.67799886521E+01  0.90100399014E+01  0.51100000000E-03 0.  1.
        -12    1    3    3    0    0 -0.15369170266E+02 -0.26231426856E+01  0.33444303287E+02  0.36900050062E+02  0.00000000000E+00 0.  1.
</event>
<event>
 7    1  0.4005571E-009  0.4778727E+02  0.7816164E-02  0.1312668E+00
        -11   -1    0    0    0    0  0.00000000000E+00  0.00000000000E+00  0.45593999997E+02  0.45594000000E+02  0.51100000000E-03 0.  1.
         11   -1    0    0    0    0 -0.00000000000E+00 -0.00000000000E+00 -0.45593999997E+02  0.45594000000E+02  0.51100000000E-03 0. -1.
    9900012    2    1    2    0    0  0.22249136619E+02 -0.25770040747E+02  0.26916617547E+02  0.47787269815E+02  0.19999994396E+02 0.  0.
         12    1    1    2    0    0 -0.22249136619E+02  0.25770040747E+02 -0.26916617547E+02  0.43400730185E+02  0.00000000000E+00 0. -1.
         11    1    3    3    0    0  0.91062014379E+00  0.11612852196E+01  0.20466311465E+01  0.25231947444E+01  0.51100000000E-03 0. -1.
        -11    1    3    3    0    0  0.57575573979E+01 -0.45056943808E+00  0.63740571671E-01  0.57755123695E+01  0.51100000000E-03 0.  1.
        -12    1    3    3    0    0  0.15580959077E+02 -0.26480756529E+02  0.24806245829E+02  0.39488562701E+02  0.00000000000E+00 0.  1.
</event>
<event>
 7    1  0.4005571E-009  0.4778727E+02  0.7816164E-02  0.1312668E+00
        -11   -1    0    0    0    0  0.00000000000E+00  0.00000000000E+00  0.45593999997E+02  0.45594000000E+02  0.51100000000E-03 0.  1.
         11   -1    0    0    0    0 -0.00000000000E+00 -0.00000000000E+00 -0.45593999997E+02  0.45594000000E+02  0.51100000000E-03 0. -1.
    9900012    2    1    2    0    0 -0.19926389882E+02  0.11681413580E+01  0.38538266106E+02  0.47787268181E+02  0.19999986943E+02 0.  0.
         12    1    1    2    0    0  0.19926389882E+02 -0.11681413580E+01 -0.38538266106E+02  0.43400731819E+02  0.00000000000E+00 0. -1.
         11    1    3    3    0    0 -0.11882047899E+01  0.62780771600E+01  0.28684204496E+01  0.70038503401E+01  0.51100000000E-03 0. -1.
        -11    1    3    3    0    0 -0.42160852774E+01 -0.23812859459E+01  0.67470539026E+01  0.83047356639E+01  0.51100000000E-03 0.  1.
         12    1    3    3    0    0 -0.14522099815E+02 -0.27286498561E+01  0.28922791754E+02  0.32478682177E+02  0.00000000000E+00 0. -1.
</event>
<event>
 7    1  0.4005571E-009  0.4778727E+02  0.7816164E-02  0.1312668E+00
        -11   -1    0    0    0    0  0.00000000000E+00  0.00000000000E+00  0.45593999997E+02  0.45594000000E+02  0.51100000000E-03 0.  1.
         11   -1    0    0    0    0 -0.00000000000E+00 -0.00000000000E+00 -0.45593999997E+02  0.45594000000E+02  0.51100000000E-03 0. -1.
    9900012    2    1    2    0    0 -0.89189215341E+01  0.17055652036E+02  0.38899629935E+02  0.47787266864E+02  0.19999980939E+02 0.  0.
         12    1    1    2    0    0  0.89189215341E+01 -0.17055652036E+02 -0.38899629935E+02  0.43400733136E+02  0.00000000000E+00 0. -1.
         11    1    3    3    0    0  0.23137544875E+01 -0.12825131286E+00  0.26152598830E+01  0.34942084575E+01  0.51100000000E-03 0.  1.
        -11    1    3    3    0    0  0.62197948870E+00  0.81974143127E+01  0.49225683409E+01  0.95820738481E+01  0.51100000000E-03 0. -1.
         12    1    3    3    0    0 -0.11854655510E+02  0.89864890363E+01  0.31361801711E+02  0.34710984558E+02  0.00000000000E+00 0. -1.
</event>
<event>
 7    1  0.4005571E-009  0.4778727E+02  0.7816164E-02  0.1312668E+00
        -11   -1    0    0    0    0  0.00000000000E+00  0.00000000000E+00  0.45593999997E+02  0.45594000000E+02  0.51100000000E-03 0. -1.
         11   -1    0    0    0    0 -0.00000000000E+00 -0.00000000000E+00 -0.45593999997E+02  0.45594000000E+02  0.51100000000E-03 0.  1.
    9900012    2    1    2    0    0 -0.13926999846E+02  0.25995825536E+02 -0.31841464287E+02  0.47787272841E+02  0.20000008191E+02 0.  0.
         12    1    1    2    0    0  0.13926999846E+02 -0.25995825536E+02  0.31841464287E+02  0.43400727159E+02  0.00000000000E+00 0. -1.
         11    1    3    3    0    0 -0.48228755144E+01  0.13399926192E+02 -0.15838289811E+02  0.21299520524E+02  0.51100000000E-03 0. -1.
        -11    1    3    3    0    0 -0.80135998016E+01  0.12663978335E+02 -0.18472711638E+02  0.23787290820E+02  0.51100000000E-03 0.  1.
         12    1    3    3    0    0 -0.10905245300E+01 -0.68078990128E-01  0.24695371621E+01  0.27004614966E+01  0.00000000000E+00 0. -1.
</event>
<event>
 7    1  0.4005571E-009  0.4778727E+02  0.7816164E-02  0.1312668E+00
        -11   -1    0    0    0    0  0.00000000000E+00  0.00000000000E+00  0.45593999997E+02  0.45594000000E+02  0.51100000000E-03 0. -1.
         11   -1    0    0    0    0 -0.00000000000E+00 -0.00000000000E+00 -0.45593999997E+02  0.45594000000E+02  0.51100000000E-03 0.  1.
    9900012    2    1    2    0    0 -0.15841376075E+02 -0.27121009275E+02 -0.29952045345E+02  0.47787270048E+02  0.19999995457E+02 0.  0.
         12    1    1    2    0    0  0.15841376075E+02  0.27121009275E+02  0.29952045345E+02  0.43400729952E+02  0.00000000000E+00 0. -1.
         11    1    3    3    0    0 -0.25883486094E+01 -0.79256828723E+01 -0.53300385817E+01  0.98957217553E+01  0.51100000000E-03 0. -1.
        -11    1    3    3    0    0 -0.15731120392E+01 -0.16765181535E+02 -0.13518520432E+02  0.21593897016E+02  0.51100000000E-03 0.  1.
         12    1    3    3    0    0 -0.11679915426E+02 -0.24301448673E+01 -0.11103486331E+02  0.16297651277E+02  0.00000000000E+00 0. -1.
</event>
<event>
 7    1  0.4005571E-009  0.4778728E+02  0.7816164E-02  0.1312668E+00
        -11   -1    0    0    0    0  0.00000000000E+00  0.00000000000E+00  0.45593999997E+02  0.45594000000E+02  0.51100000000E-03 0.  1.
         11   -1    0    0    0    0 -0.00000000000E+00 -0.00000000000E+00 -0.45593999997E+02  0.45594000000E+02  0.51100000000E-03 0. -1.
    9900012    2    1    2    0    0 -0.21071450226E+02  0.37274116400E+02  0.70892048301E+01  0.47787278887E+02  0.20000035756E+02 0.  0.
         12    1    1    2    0    0  0.21071450226E+02 -0.37274116400E+02 -0.70892048301E+01  0.43400721113E+02  0.00000000000E+00 0. -1.
         11    1    3    3    0    0 -0.26300380385E+01 -0.19285416766E+00 -0.23975657896E+01  0.35640727813E+01  0.51100000000E-03 0. -1.
        -11    1    3    3    0    0 -0.28134780616E+01  0.57869015526E+01  0.58764246717E+01  0.87141411261E+01  0.51100000000E-03 0.  1.
        -12    1    3    3    0    0 -0.15627934126E+02  0.31680069015E+02  0.36103459480E+01  0.35509064979E+02  0.00000000000E+00 0.  1.
</event>
<event>
 7    1  0.4005571E-009  0.4778727E+02  0.7816164E-02  0.1312668E+00
        -11   -1    0    0    0    0  0.00000000000E+00  0.00000000000E+00  0.45593999997E+02  0.45594000000E+02  0.51100000000E-03 0.  1.
         11   -1    0    0    0    0 -0.00000000000E+00 -0.00000000000E+00 -0.45593999997E+02  0.45594000000E+02  0.51100000000E-03 0. -1.
    9900012    2    1    2    0    0  0.17349776541E+02 -0.38849425448E+02 -0.85633323323E+01  0.47787271155E+02  0.20000000504E+02 0.  0.
         12    1    1    2    0    0 -0.17349776541E+02  0.38849425448E+02  0.85633323323E+01  0.43400728845E+02  0.00000000000E+00 0. -1.
         11    1    3    3    0    0  0.60837267101E+01 -0.11135980744E+02 -0.91165607960E+01  0.15624771320E+02  0.51100000000E-03 0. -1.
        -11    1    3    3    0    0  0.93510435809E+00 -0.18727282562E+01 -0.34613992481E+01  0.40450978107E+01  0.51100000000E-03 0.  1.
        -12    1    3    3    0    0  0.10330945473E+02 -0.25840716448E+02  0.40146277117E+01  0.28117402024E+02  0.00000000000E+00 0.  1.
</event>
<event>
 7    1  0.4005571E-009  0.4778727E+02  0.7816164E-02  0.1312668E+00
        -11   -1    0    0    0    0  0.00000000000E+00  0.00000000000E+00  0.45593999997E+02  0.45594000000E+02  0.51100000000E-03 0. -1.
         11   -1    0    0    0    0 -0.00000000000E+00 -0.00000000000E+00 -0.45593999997E+02  0.45594000000E+02  0.51100000000E-03 0.  1.
    9900012    2    1    2    0    0  0.31871271811E+02 -0.23803318427E+02 -0.17356483501E+02  0.47787268964E+02  0.19999990514E+02 0.  0.
         12    1    1    2    0    0 -0.31871271811E+02  0.23803318427E+02  0.17356483501E+02  0.43400731036E+02  0.00000000000E+00 0. -1.
         11    1    3    3    0    0  0.11021931225E+02 -0.24200530307E+00 -0.25618149039E+01  0.11318322771E+02  0.51100000000E-03 0. -1.
        -11    1    3    3    0    0  0.14460062626E+02 -0.85297740774E+01 -0.54461286485E+01  0.17649667829E+02  0.51100000000E-03 0.  1.
         12    1    3    3    0    0  0.63892779595E+01 -0.15031539046E+02 -0.93485399486E+01  0.18819278363E+02  0.00000000000E+00 0. -1.
</event>
<event>
 7    1  0.4005571E-009  0.4778727E+02  0.7816164E-02  0.1312668E+00
        -11   -1    0    0    0    0  0.00000000000E+00  0.00000000000E+00  0.45593999997E+02  0.45594000000E+02  0.51100000000E-03 0.  1.
         11   -1    0    0    0    0 -0.00000000000E+00 -0.00000000000E+00 -0.45593999997E+02  0.45594000000E+02  0.51100000000E-03 0. -1.
    9900012    2    1    2    0    0 -0.93287799511E+00  0.10394156993E+02  0.42127356797E+02  0.47787274757E+02  0.20000016927E+02 0.  0.
         12    1    1    2    0    0  0.93287799511E+00 -0.10394156993E+02 -0.42127356797E+02  0.43400725243E+02  0.00000000000E+00 0. -1.
         11    1    3    3    0    0  0.61786176255E+00 -0.71048866051E+00  0.25048752435E+02  0.25066442630E+02  0.51100000000E-03 0.  1.
        -11    1    3    3    0    0 -0.47745573041E+01  0.52813352340E+01  0.13251294031E+02  0.15042795387E+02  0.51100000000E-03 0. -1.
        -12    1    3    3    0    0  0.32238175465E+01  0.58233104196E+01  0.38273103301E+01  0.76780367399E+01  0.00000000000E+00 0.  1.
</event>
<event>
 7    1  0.4005571E-009  0.4778727E+02  0.7816164E-02  0.1312668E+00
        -11   -1    0    0    0    0  0.00000000000E+00  0.00000000000E+00  0.45593999997E+02  0.45594000000E+02  0.51100000000E-03 0.  1.
         11   -1    0    0    0    0 -0.00000000000E+00 -0.00000000000E+00 -0.45593999997E+02  0.45594000000E+02  0.51100000000E-03 0. -1.
    9900012    2    1    2    0    0  0.35796802337E+02  0.19061607214E+02  0.15455348731E+02  0.47787265772E+02  0.19999975962E+02 0.  0.
         12    1    1    2    0    0 -0.35796802337E+02 -0.19061607214E+02 -0.15455348731E+02  0.43400734228E+02  0.00000000000E+00 0. -1.
         11    1    3    3    0    0 -0.76556147101E+00  0.40820023821E+00  0.60124343824E+00  0.10555594410E+01  0.51100000000E-03 0. -1.
        -11    1    3    3    0    0  0.11142609967E+02  0.10249227367E+02  0.12895515677E+02  0.19887150207E+02  0.51100000000E-03 0.  1.
         12    1    3    3    0    0  0.25419753841E+02  0.84041796083E+01  0.19585896150E+01  0.26844556125E+02  0.00000000000E+00 0. -1.
</event>
<event>
 7    1  0.4005571E-009  0.4778727E+02  0.7816164E-02  0.1312668E+00
        -11   -1    0    0    0    0  0.00000000000E+00  0.00000000000E+00  0.45593999997E+02  0.45594000000E+02  0.51100000000E-03 0.  1.
         11   -1    0    0    0    0 -0.00000000000E+00 -0.00000000000E+00 -0.45593999997E+02  0.45594000000E+02  0.51100000000E-03 0. -1.
    9900012    2    1    2    0    0 -0.23642976889E+02 -0.16627063663E+02  0.32375511422E+02  0.47787270259E+02  0.19999996420E+02 0.  0.
         12    1    1    2    0    0  0.23642976889E+02  0.16627063663E+02 -0.32375511422E+02  0.43400729741E+02  0.00000000000E+00 0. -1.
         11    1    3    3    0    0 -0.12336101387E+02 -0.10982766141E+01  0.23312214350E+02  0.26397820878E+02  0.51100000000E-03 0. -1.
        -11    1    3    3    0    0 -0.34637600984E+01 -0.42593748455E+01  0.38388777126E+01  0.66990216037E+01  0.51100000000E-03 0.  1.
        -12    1    3    3    0    0 -0.78431154032E+01 -0.11269412203E+02  0.52244193589E+01  0.14690427777E+02  0.00000000000E+00 0.  1.
</event>
<event>
 7    1  0.4005571E-009  0.4778727E+02  0.7816164E-02  0.1312668E+00
        -11   -1    0    0    0    0  0.00000000000E+00  0.00000000000E+00  0.45593999997E+02  0.45594000000E+02  0.51100000000E-03 0.  1.
         11   -1    0    0    0    0 -0.00000000000E+00 -0.00000000000E+00 -0.45593999997E+02  0.45594000000E+02  0.51100000000E-03 0. -1.
    9900012    2    1    2    0    0  0.19639255095E+02 -0.29318918305E+02  0.25265077652E+02  0.47787268900E+02  0.19999990221E+02 0.  0.
         12    1    1    2    0    0 -0.19639255095E+02  0.29318918305E+02 -0.25265077652E+02  0.43400731100E+02  0.00000000000E+00 0. -1.
         11    1    3    3    0    0  0.80284610009E+01 -0.31829079415E+01  0.10827034331E+02  0.13849612329E+02  0.51100000000E-03 0. -1.
        -11    1    3    3    0    0  0.89113985626E+01 -0.11333631854E+02  0.11866647736E+02  0.18673017006E+02  0.51100000000E-03 0.  1.
         12    1    3    3    0    0  0.26993955311E+01 -0.14802378509E+02  0.25713955851E+01  0.15264639564E+02  0.00000000000E+00 0. -1.
</event>
<event>
 7    1 -0.4005571E-009  0.4778728E+02  0.7816164E-02  0.1312668E+00
        -11   -1    0    0    0    0  0.00000000000E+00  0.00000000000E+00  0.45593999997E+02  0.45594000000E+02  0.51100000000E-03 0. -1.
         11   -1    0    0    0    0 -0.00000000000E+00 -0.00000000000E+00 -0.45593999997E+02  0.45594000000E+02  0.51100000000E-03 0.  1.
    9900012    2    1    2    0    0 -0.14666824082E+02  0.40785267243E+02 -0.22513539012E+01  0.47787281721E+02  0.20000048678E+02 0.  0.
         12    1    1    2    0    0  0.14666824082E+02 -0.40785267243E+02  0.22513539012E+01  0.43400718279E+02  0.00000000000E+00 0. -1.
         11    1    3    3    0    0  0.18725456032E+01  0.36808580989E+00 -0.19679072262E+01  0.27412722068E+01  0.51100000000E-03 0. -1.
        -11    1    3    3    0    0 -0.48009887991E+01  0.89066738384E+01  0.45142421672E+01  0.11079562939E+02  0.51100000000E-03 0.  1.
         12    1    3    3    0    0 -0.11738380886E+02  0.31510507595E+02 -0.47976888422E+01  0.33966446575E+02  0.00000000000E+00 0. -1.
</event>
<event>
 7    1  0.4005571E-009  0.4778724E+02  0.7816164E-02  0.1312668E+00
        -11   -1    0    0    0    0  0.00000000000E+00  0.00000000000E+00  0.45593999997E+02  0.45594000000E+02  0.51100000000E-03 0.  1.
         11   -1    0    0    0    0 -0.00000000000E+00 -0.00000000000E+00 -0.45593999997E+02  0.45594000000E+02  0.51100000000E-03 0. -1.
    9900012    2    1    2    0    0  0.31540302877E+02 -0.29685907992E+02 -0.27536323476E+01  0.47787235836E+02  0.19999839472E+02 0.  0.
         12    1    1    2    0    0 -0.31540302877E+02  0.29685907992E+02  0.27536323476E+01  0.43400764164E+02  0.00000000000E+00 0. -1.
         11    1    3    3    0    0 -0.10176376865E+01 -0.24867391691E+01 -0.12431195216E+01  0.29605412617E+01  0.51100000000E-03 0. -1.
        -11    1    3    3    0    0  0.47603880413E+01 -0.12276522601E+02  0.80719797327E+00  0.13191886533E+02  0.51100000000E-03 0.  1.
        -12    1    3    3    0    0  0.27797552522E+02 -0.14922646222E+02 -0.23177107993E+01  0.31634808042E+02  0.00000000000E+00 0.  1.
</event>
<event>
 7    1  0.4005571E-009  0.4778727E+02  0.7816164E-02  0.1312668E+00
        -11   -1    0    0    0    0  0.00000000000E+00  0.00000000000E+00  0.45593999997E+02  0.45594000000E+02  0.51100000000E-03 0.  1.
         11   -1    0    0    0    0 -0.00000000000E+00 -0.00000000000E+00 -0.45593999997E+02  0.45594000000E+02  0.51100000000E-03 0. -1.
    9900012    2    1    2    0    0 -0.43350766098E+01 -0.36452584222E+02  0.23152529674E+02  0.47787269407E+02  0.19999992536E+02 0.  0.
         12    1    1    2    0    0  0.43350766098E+01  0.36452584222E+02 -0.23152529674E+02  0.43400730593E+02  0.00000000000E+00 0. -1.
         11    1    3    3    0    0  0.23209531870E+01 -0.19031703791E+01  0.37423570966E+01  0.47973032099E+01  0.51100000000E-03 0. -1.
        -11    1    3    3    0    0 -0.37423664012E+01 -0.52138174230E+01  0.10297473443E+02  0.12133719873E+02  0.51100000000E-03 0.  1.
         12    1    3    3    0    0 -0.29136633956E+01 -0.29335596420E+02  0.91126991350E+01  0.30856246324E+02  0.00000000000E+00 0. -1.
</event>
<event>
 7    1  0.4005571E-009  0.4778728E+02  0.7816164E-02  0.1312668E+00
        -11   -1    0    0    0    0  0.00000000000E+00  0.00000000000E+00  0.45593999997E+02  0.45594000000E+02  0.51100000000E-03 0.  1.
         11   -1    0    0    0    0 -0.00000000000E+00 -0.00000000000E+00 -0.45593999997E+02  0.45594000000E+02  0.51100000000E-03 0. -1.
    9900012    2    1    2    0    0  0.11743695238E+02 -0.27577685120E+02  0.31387572331E+02  0.47787276604E+02  0.20000025350E+02 0.  0.
         12    1    1    2    0    0 -0.11743695238E+02  0.27577685120E+02 -0.31387572331E+02  0.43400723396E+02  0.00000000000E+00 0. -1.
         11    1    3    3    0    0 -0.36887328364E+01 -0.43872846940E+01  0.27515159053E+00  0.57385299148E+01  0.51100000000E-03 0. -1.
        -11    1    3    3    0    0  0.16674784583E+01 -0.81663515897E+00  0.33368657032E+01  0.38186450966E+01  0.51100000000E-03 0.  1.
        -12    1    3    3    0    0  0.13764949616E+02 -0.22373765267E+02  0.27775555037E+02  0.38230101593E+02  0.00000000000E+00 0.  1.
</event>
<event>
 7    1  0.4005571E-009  0.4778727E+02  0.7816164E-02  0.1312668E+00
        -11   -1    0    0    0    0  0.00000000000E+00  0.00000000000E+00  0.45593999997E+02  0.45594000000E+02  0.51100000000E-03 0.  1.
         11   -1    0    0    0    0 -0.00000000000E+00 -0.00000000000E+00 -0.45593999997E+02  0.45594000000E+02  0.51100000000E-03 0. -1.
    9900012    2    1    2    0    0  0.29102805850E+02 -0.26748183988E+02 -0.17921632315E+02  0.47787267750E+02  0.19999984979E+02 0.  0.
         12    1    1    2    0    0 -0.29102805850E+02  0.26748183988E+02  0.17921632315E+02  0.43400732250E+02  0.00000000000E+00 0. -1.
         11    1    3    3    0    0  0.72510552612E+01 -0.15827355113E+02 -0.52343902503E+01  0.18179158776E+02  0.51100000000E-03 0. -1.
        -11    1    3    3    0    0  0.14163544974E+02 -0.11708747185E+02 -0.11776197602E+02  0.21826121897E+02  0.51100000000E-03 0.  1.
         12    1    3    3    0    0  0.76882056148E+01  0.78791830947E+00 -0.91104446310E+00  0.77819870760E+01  0.00000000000E+00 0. -1.
</event>
<event>
 7    1  0.4005571E-009  0.4778727E+02  0.7816164E-02  0.1312668E+00
        -11   -1    0    0    0    0  0.00000000000E+00  0.00000000000E+00  0.45593999997E+02  0.45594000000E+02  0.51100000000E-03 0.  1.
         11   -1    0    0    0    0 -0.00000000000E+00 -0.00000000000E+00 -0.45593999997E+02  0.45594000000E+02  0.51100000000E-03 0. -1.
    9900012    2    1    2    0    0  0.43924005921E+01  0.36329195492E+02  0.23334947067E+02  0.47787269791E+02  0.19999994284E+02 0.  0.
         12    1    1    2    0    0 -0.43924005921E+01 -0.36329195492E+02 -0.23334947067E+02  0.43400730209E+02  0.00000000000E+00 0. -1.
         11    1    3    3    0    0  0.56287265466E+01  0.69639663026E+01  0.10404505084E+02  0.13727094212E+02  0.51100000000E-03 0. -1.
        -11    1    3    3    0    0  0.20670384184E+01  0.18729950470E+02  0.13053000892E+02  0.22923013000E+02  0.51100000000E-03 0.  1.
        -12    1    3    3    0    0 -0.33033643728E+01  0.10635278720E+02 -0.12255890962E+00  0.11137162579E+02  0.00000000000E+00 0.  1.
</event>
<event>
 7    1  0.4005571E-009  0.4778727E+02  0.7816164E-02  0.1312668E+00
        -11   -1    0    0    0    0  0.00000000000E+00  0.00000000000E+00  0.45593999997E+02  0.45594000000E+02  0.51100000000E-03 0.  1.
         11   -1    0    0    0    0 -0.00000000000E+00 -0.00000000000E+00 -0.45593999997E+02  0.45594000000E+02  0.51100000000E-03 0. -1.
    9900012    2    1    2    0    0 -0.43336111888E+02 -0.17287103444E+01 -0.16175031907E+01  0.47787270172E+02  0.19999996022E+02 0.  0.
         12    1    1    2    0    0  0.43336111888E+02  0.17287103444E+01  0.16175031907E+01  0.43400729828E+02  0.00000000000E+00 0. -1.
         11    1    3    3    0    0 -0.14558088350E+02  0.48585235450E+01 -0.21969083788E+01  0.15503857396E+02  0.51100000000E-03 0. -1.
        -11    1    3    3    0    0 -0.10199562162E+02  0.27294660228E+01  0.38610565241E+01  0.11242277830E+02  0.51100000000E-03 0.  1.
         12    1    3    3    0    0 -0.18578461376E+02 -0.93166999122E+01 -0.32816513360E+01  0.21041134947E+02  0.00000000000E+00 0. -1.
</event>
<event>
 7    1  0.4005571E-009  0.4778727E+02  0.7816164E-02  0.1312668E+00
        -11   -1    0    0    0    0  0.00000000000E+00  0.00000000000E+00  0.45593999997E+02  0.45594000000E+02  0.51100000000E-03 0.  1.
         11   -1    0    0    0    0 -0.00000000000E+00 -0.00000000000E+00 -0.45593999997E+02  0.45594000000E+02  0.51100000000E-03 0. -1.
    9900012    2    1    2    0    0 -0.21682129710E+01  0.23707523614E+02  0.36288775937E+02  0.47787273250E+02  0.20000010056E+02 0.  0.
         12    1    1    2    0    0  0.21682129710E+01 -0.23707523614E+02 -0.36288775937E+02  0.43400726750E+02  0.00000000000E+00 0. -1.
         11    1    3    3    0    0 -0.72079289336E+00  0.19121913797E+02  0.11626383547E+02  0.22390621347E+02  0.51100000000E-03 0. -1.
        -11    1    3    3    0    0  0.17617562162E-01  0.32787134480E+01  0.84169632187E+01  0.90330250934E+01  0.51100000000E-03 0.  1.
         12    1    3    3    0    0 -0.14650376398E+01  0.13068963694E+01  0.16245429171E+02  0.16363626810E+02  0.00000000000E+00 0. -1.
</event>
<event>
 7    1  0.4005571E-009  0.4778727E+02  0.7816164E-02  0.1312668E+00
        -11   -1    0    0    0    0  0.00000000000E+00  0.00000000000E+00  0.45593999997E+02  0.45594000000E+02  0.51100000000E-03 0. -1.
         11   -1    0    0    0    0 -0.00000000000E+00 -0.00000000000E+00 -0.45593999997E+02  0.45594000000E+02  0.51100000000E-03 0.  1.
    9900012    2    1    2    0    0  0.38446461707E+02 -0.45058813193E+01 -0.19626261174E+02  0.47787268302E+02  0.19999987498E+02 0.  0.
         12    1    1    2    0    0 -0.38446461707E+02  0.45058813193E+01  0.19626261174E+02  0.43400731698E+02  0.00000000000E+00 0. -1.
         11    1    3    3    0    0  0.14737068366E+02  0.15555262171E+01 -0.46427771384E+01  0.15529205571E+02  0.51100000000E-03 0. -1.
        -11    1    3    3    0    0  0.63651554180E+01  0.30619298939E+01  0.78182337252E+00  0.71064665071E+01  0.51100000000E-03 0.  1.
         12    1    3    3    0    0  0.17344237922E+02 -0.91233374302E+01 -0.15765307408E+02  0.25151596224E+02  0.00000000000E+00 0. -1.
</event>
<event>
 7    1  0.4005571E-009  0.4778727E+02  0.7816164E-02  0.1312668E+00
        -11   -1    0    0    0    0  0.00000000000E+00  0.00000000000E+00  0.45593999997E+02  0.45594000000E+02  0.51100000000E-03 0.  1.
         11   -1    0    0    0    0 -0.00000000000E+00 -0.00000000000E+00 -0.45593999997E+02  0.45594000000E+02  0.51100000000E-03 0. -1.
    9900012    2    1    2    0    0  0.18028055742E+02  0.20025988582E+02  0.34023117648E+02  0.47787267898E+02  0.19999985652E+02 0.  0.
         12    1    1    2    0    0 -0.18028055742E+02 -0.20025988582E+02 -0.34023117648E+02  0.43400732102E+02  0.00000000000E+00 0. -1.
         11    1    3    3    0    0  0.21505158216E+01  0.13876211019E+02  0.13286574055E+02  0.19331502810E+02  0.51100000000E-03 0. -1.
        -11    1    3    3    0    0  0.59385886710E+00 -0.42769004860E+00  0.65477821771E+01  0.65885536221E+01  0.51100000000E-03 0.  1.
         12    1    3    3    0    0  0.15283681054E+02  0.65774676118E+01  0.14188761416E+02  0.21867211465E+02  0.00000000000E+00 0. -1.
</event>
<event>
 7    1  0.4005571E-009  0.4778727E+02  0.7816164E-02  0.1312668E+00
        -11   -1    0    0    0    0  0.00000000000E+00  0.00000000000E+00  0.45593999997E+02  0.45594000000E+02  0.51100000000E-03 0.  1.
         11   -1    0    0    0    0 -0.00000000000E+00 -0.00000000000E+00 -0.45593999997E+02  0.45594000000E+02  0.51100000000E-03 0. -1.
    9900012    2    1    2    0    0 -0.31101672571E+02  0.55638118940E+01  0.29754880447E+02  0.47787274777E+02  0.20000017016E+02 0.  0.
         12    1    1    2    0    0  0.31101672571E+02 -0.55638118940E+01 -0.29754880447E+02  0.43400725223E+02  0.00000000000E+00 0. -1.
         11    1    3    3    0    0 -0.14325023275E+02  0.10580241801E+02  0.14838015937E+02  0.23180045850E+02  0.51100000000E-03 0. -1.
        -11    1    3    3    0    0 -0.10042450682E+01  0.81741442126E+00  0.48228957461E+01  0.49936958389E+01  0.51100000000E-03 0.  1.
        -12    1    3    3    0    0 -0.15772404227E+02 -0.58338443287E+01  0.10093968764E+02  0.19613533087E+02  0.00000000000E+00 0.  1.
</event>
<event>
 7    1  0.4005571E-009  0.4778727E+02  0.7816164E-02  0.1312668E+00
        -11   -1    0    0    0    0  0.00000000000E+00  0.00000000000E+00  0.45593999997E+02  0.45594000000E+02  0.51100000000E-03 0.  1.
         11   -1    0    0    0    0 -0.00000000000E+00 -0.00000000000E+00 -0.45593999997E+02  0.45594000000E+02  0.51100000000E-03 0. -1.
    9900012    2    1    2    0    0  0.20505137715E+02  0.39526091289E+01  0.38046542264E+02  0.47787272243E+02  0.20000005463E+02 0.  0.
         12    1    1    2    0    0 -0.20505137715E+02 -0.39526091289E+01 -0.38046542264E+02  0.43400727757E+02  0.00000000000E+00 0. -1.
         11    1    3    3    0    0  0.84262568235E+01  0.39529777050E+01  0.11864080230E+02  0.15079265127E+02  0.51100000000E-03 0. -1.
        -11    1    3    3    0    0  0.85530260903E+01  0.67255057472E+01  0.20551598500E+02  0.23254136923E+02  0.51100000000E-03 0.  1.
         12    1    3    3    0    0  0.35258548009E+01 -0.67258743233E+01  0.56308635335E+01  0.94538701928E+01  0.00000000000E+00 0. -1.
</event>
<event>
 7    1  0.4005571E-009  0.4778727E+02  0.7816164E-02  0.1312668E+00
        -11   -1    0    0    0    0  0.00000000000E+00  0.00000000000E+00  0.45593999997E+02  0.45594000000E+02  0.51100000000E-03 0. -1.
         11   -1    0    0    0    0 -0.00000000000E+00 -0.00000000000E+00 -0.45593999997E+02  0.45594000000E+02  0.51100000000E-03 0.  1.
    9900012    2    1    2    0    0 -0.23790903739E+02 -0.30453050927E+02 -0.19754189784E+02  0.47787269297E+02  0.19999992034E+02 0.  0.
         12    1    1    2    0    0  0.23790903739E+02  0.30453050927E+02  0.19754189784E+02  0.43400730703E+02  0.00000000000E+00 0. -1.
         11    1    3    3    0    0  0.96776046263E+00 -0.54694680379E+00 -0.12319749716E+01  0.16593594279E+01  0.51100000000E-03 0. -1.
        -11    1    3    3    0    0  0.68716930748E+00 -0.57110391449E+01 -0.72407522330E+01  0.92475219887E+01  0.51100000000E-03 0.  1.
        -12    1    3    3    0    0 -0.25445833509E+02 -0.24195064978E+02 -0.11281462580E+02  0.36880387881E+02  0.00000000000E+00 0.  1.
</event>
<event>
 7    1  0.4005571E-009  0.4778728E+02  0.7816164E-02  0.1312668E+00
        -11   -1    0    0    0    0  0.00000000000E+00  0.00000000000E+00  0.45593999997E+02  0.45594000000E+02  0.51100000000E-03 0.  1.
         11   -1    0    0    0    0 -0.00000000000E+00 -0.00000000000E+00 -0.45593999997E+02  0.45594000000E+02  0.51100000000E-03 0. -1.
    9900012    2    1    2    0    0 -0.25592456237E+02 -0.30955748692E+02  0.16443561195E+02  0.47787275374E+02  0.20000019738E+02 0.  0.
         12    1    1    2    0    0  0.25592456237E+02  0.30955748692E+02 -0.16443561195E+02  0.43400724626E+02  0.00000000000E+00 0. -1.
         11    1    3    3    0    0 -0.39526790498E+01 -0.89256922216E+01 -0.26506569969E+00  0.97653424616E+01  0.51100000000E-03 0. -1.
        -11    1    3    3    0    0 -0.12793361916E+02 -0.19031901208E+02  0.57875406135E+01  0.23651194459E+02  0.51100000000E-03 0.  1.
        -12    1    3    3    0    0 -0.88464152713E+01 -0.29981552621E+01  0.10921086281E+02  0.14370738453E+02  0.00000000000E+00 0.  1.
</event>
<event>
 7    1  0.4005571E-009  0.4778727E+02  0.7816164E-02  0.1312668E+00
        -11   -1    0    0    0    0  0.00000000000E+00  0.00000000000E+00  0.45593999997E+02  0.45594000000E+02  0.51100000000E-03 0.  1.
         11   -1    0    0    0    0 -0.00000000000E+00 -0.00000000000E+00 -0.45593999997E+02  0.45594000000E+02  0.51100000000E-03 0. -1.
    9900012    2    1    2    0    0 -0.61206183454E+01 -0.29351143056E+02  0.31379478345E+02  0.47787271563E+02  0.20000002364E+02 0.  0.
         12    1    1    2    0    0  0.61206183454E+01  0.29351143056E+02 -0.31379478345E+02  0.43400728437E+02  0.00000000000E+00 0. -1.
         11    1    3    3    0    0 -0.55539585701E+01 -0.77266656100E+01  0.16718988873E+01  0.96614213964E+01  0.51100000000E-03 0. -1.
        -11    1    3    3    0    0 -0.10538653613E+01  0.69702736776E+00  0.49231289809E+00  0.13560426254E+01  0.51100000000E-03 0.  1.
        -12    1    3    3    0    0  0.48720558613E+00 -0.22321504814E+02  0.29215266560E+02  0.36769807541E+02  0.00000000000E+00 0.  1.
</event>
<event>
 7    1  0.4005571E-009  0.4778730E+02  0.7816164E-02  0.1312668E+00
        -11   -1    0    0    0    0  0.00000000000E+00  0.00000000000E+00  0.45593999997E+02  0.45594000000E+02  0.51100000000E-03 0.  1.
         11   -1    0    0    0    0 -0.00000000000E+00 -0.00000000000E+00 -0.45593999997E+02  0.45594000000E+02  0.51100000000E-03 0. -1.
    9900012    2    1    2    0    0  0.42197127692E+02  0.35247113257E+01  0.95183634585E+01  0.47787303942E+02  0.20000149991E+02 0.  0.
         12    1    1    2    0    0 -0.42197127692E+02 -0.35247113257E+01 -0.95183634585E+01  0.43400696058E+02  0.00000000000E+00 0. -1.
         11    1    3    3    0    0  0.15065625505E+02 -0.53351341236E+00  0.71714446240E+01  0.16693930834E+02  0.51100000000E-03 0. -1.
        -11    1    3    3    0    0  0.82448803341E+01  0.68360948575E+01  0.50003025045E+01  0.11820036803E+02  0.51100000000E-03 0.  1.
         12    1    3    3    0    0  0.18886621853E+02 -0.27778701195E+01 -0.26533836699E+01  0.19273336305E+02  0.00000000000E+00 0. -1.
</event>
<event>
 7    1  0.4005571E-009  0.4778729E+02  0.7816164E-02  0.1312668E+00
        -11   -1    0    0    0    0  0.00000000000E+00  0.00000000000E+00  0.45593999997E+02  0.45594000000E+02  0.51100000000E-03 0. -1.
         11   -1    0    0    0    0 -0.00000000000E+00 -0.00000000000E+00 -0.45593999997E+02  0.45594000000E+02  0.51100000000E-03 0.  1.
    9900012    2    1    2    0    0  0.54518135168E+00 -0.26188842574E+02 -0.34604468846E+02  0.47787286156E+02  0.20000068899E+02 0.  0.
         12    1    1    2    0    0 -0.54518135168E+00  0.26188842574E+02  0.34604468846E+02  0.43400713844E+02  0.00000000000E+00 0. -1.
         11    1    3    3    0    0  0.37401183786E+01 -0.55468425340E+00 -0.59805490902E+00  0.38280321371E+01  0.51100000000E-03 0. -1.
        -11    1    3    3    0    0  0.19170854788E+01 -0.16608659525E+01 -0.72073091682E+01  0.76406150376E+01  0.51100000000E-03 0.  1.
        -12    1    3    3    0    0 -0.51120225058E+01 -0.23973292368E+02 -0.26799104769E+02  0.36318638981E+02  0.00000000000E+00 0.  1.
</event>
<event>
 7    1  0.4005571E-009  0.4778728E+02  0.7816164E-02  0.1312668E+00
        -11   -1    0    0    0    0  0.00000000000E+00  0.00000000000E+00  0.45593999997E+02  0.45594000000E+02  0.51100000000E-03 0.  1.
         11   -1    0    0    0    0 -0.00000000000E+00 -0.00000000000E+00 -0.45593999997E+02  0.45594000000E+02  0.51100000000E-03 0. -1.
    9900012    2    1    2    0    0  0.61163132181E+01  0.84742763061E+01  0.42123630248E+02  0.47787275680E+02  0.20000021133E+02 0.  0.
         12    1    1    2    0    0 -0.61163132181E+01 -0.84742763061E+01 -0.42123630248E+02  0.43400724320E+02  0.00000000000E+00 0. -1.
         11    1    3    3    0    0  0.57300623657E+01 -0.74037680820E+00  0.95273113338E+01  0.11142326240E+02  0.51100000000E-03 0. -1.
        -11    1    3    3    0    0 -0.19108190541E+01 -0.30340018076E+01  0.35856317915E+01  0.50708137445E+01  0.51100000000E-03 0.  1.
        -12    1    3    3    0    0  0.22970699065E+01  0.12248654922E+02  0.29010687122E+02  0.31574135695E+02  0.00000000000E+00 0.  1.
</event>
<event>
 7    1  0.4005571E-009  0.4778728E+02  0.7816164E-02  0.1312668E+00
        -11   -1    0    0    0    0  0.00000000000E+00  0.00000000000E+00  0.45593999997E+02  0.45594000000E+02  0.51100000000E-03 0.  1.
         11   -1    0    0    0    0 -0.00000000000E+00 -0.00000000000E+00 -0.45593999997E+02  0.45594000000E+02  0.51100000000E-03 0. -1.
    9900012    2    1    2    0    0  0.33009447752E+02  0.23325815369E+02  0.15808397928E+02  0.47787277096E+02  0.20000027591E+02 0.  0.
         12    1    1    2    0    0 -0.33009447752E+02 -0.23325815369E+02 -0.15808397928E+02  0.43400722904E+02  0.00000000000E+00 0. -1.
         11    1    3    3    0    0  0.50243042917E+01 -0.34942386205E+01  0.22036901633E+01  0.65045820581E+01  0.51100000000E-03 0. -1.
        -11    1    3    3    0    0  0.32168606443E+01  0.30426847547E+01  0.29988288488E+01  0.53478124169E+01  0.51100000000E-03 0.  1.
         12    1    3    3    0    0  0.24768282816E+02  0.23777369235E+02  0.10605878916E+02  0.35934882621E+02  0.00000000000E+00 0. -1.
</event>
<event>
 7    1  0.4005571E-009  0.4778727E+02  0.7816164E-02  0.1312668E+00
        -11   -1    0    0    0    0  0.00000000000E+00  0.00000000000E+00  0.45593999997E+02  0.45594000000E+02  0.51100000000E-03 0.  1.
         11   -1    0    0    0    0 -0.00000000000E+00 -0.00000000000E+00 -0.45593999997E+02  0.45594000000E+02  0.51100000000E-03 0. -1.
    9900012    2    1    2    0    0  0.19611049459E+02  0.25039717565E+01  0.38636253060E+02  0.47787272057E+02  0.20000004618E+02 0.  0.
         12    1    1    2    0    0 -0.19611049459E+02 -0.25039717565E+01 -0.38636253060E+02  0.43400727943E+02  0.00000000000E+00 0. -1.
         11    1    3    3    0    0 -0.10529825551E+01 -0.17981706284E+01  0.87707832849E+01  0.90149226043E+01  0.51100000000E-03 0. -1.
        -11    1    3    3    0    0 -0.66684512449E+00 -0.19710655211E+01  0.50012787439E+01  0.54168783487E+01  0.51100000000E-03 0.  1.
         12    1    3    3    0    0  0.21330877139E+02  0.62732079061E+01  0.24864191031E+02  0.33355471104E+02  0.00000000000E+00 0. -1.
</event>
<event>
 7    1  0.4005571E-009  0.4778729E+02  0.7816164E-02  0.1312668E+00
        -11   -1    0    0    0    0  0.00000000000E+00  0.00000000000E+00  0.45593999997E+02  0.45594000000E+02  0.51100000000E-03 0.  1.
         11   -1    0    0    0    0 -0.00000000000E+00 -0.00000000000E+00 -0.45593999997E+02  0.45594000000E+02  0.51100000000E-03 0. -1.
    9900012    2    1    2    0    0  0.41108796600E+02  0.10164488419E+02 -0.95063943027E+01  0.47787291303E+02  0.20000092367E+02 0.  0.
         12    1    1    2    0    0 -0.41108796600E+02 -0.10164488419E+02  0.95063943027E+01  0.43400708697E+02  0.00000000000E+00 0. -1.
         11    1    3    3    0    0  0.28868955054E-01 -0.22951894423E+00  0.46408594252E+00  0.51854448748E+00  0.51100000000E-03 0. -1.
        -11    1    3    3    0    0  0.18416430928E+02  0.14064344280E+02 -0.36727388909E+01  0.23461878002E+02  0.51100000000E-03 0.  1.
        -12    1    3    3    0    0  0.22663496717E+02 -0.36703369171E+01 -0.62977413544E+01  0.23806868814E+02  0.00000000000E+00 0.  1.
</event>
<event>
 7    1  0.4005571E-009  0.4778725E+02  0.7816164E-02  0.1312668E+00
        -11   -1    0    0    0    0  0.00000000000E+00  0.00000000000E+00  0.45593999997E+02  0.45594000000E+02  0.51100000000E-03 0. -1.
         11   -1    0    0    0    0 -0.00000000000E+00 -0.00000000000E+00 -0.45593999997E+02  0.45594000000E+02  0.51100000000E-03 0.  1.
    9900012    2    1    2    0    0  0.36039197634E+00 -0.26645524016E+02 -0.34256549176E+02  0.47787251229E+02  0.19999909652E+02 0.  0.
         12    1    1    2    0    0 -0.36039197634E+00  0.26645524016E+02  0.34256549176E+02  0.43400748771E+02  0.00000000000E+00 0. -1.
         11    1    3    3    0    0  0.35164326138E-01 -0.62282650715E+01 -0.14786366253E+02  0.16044598766E+02  0.51100000000E-03 0.  1.
        -11    1    3    3    0    0 -0.47281325671E+01 -0.10488735637E+02 -0.16671296597E+02  0.20255886634E+02  0.51100000000E-03 0. -1.
         12    1    3    3    0    0  0.50533602173E+01 -0.99285233073E+01 -0.27988863266E+01  0.11486765829E+02  0.00000000000E+00 0. -1.
</event>
<event>
 7    1  0.4005571E-009  0.4778727E+02  0.7816164E-02  0.1312668E+00
        -11   -1    0    0    0    0  0.00000000000E+00  0.00000000000E+00  0.45593999997E+02  0.45594000000E+02  0.51100000000E-03 0.  1.
         11   -1    0    0    0    0 -0.00000000000E+00 -0.00000000000E+00 -0.45593999997E+02  0.45594000000E+02  0.51100000000E-03 0. -1.
    9900012    2    1    2    0    0 -0.21325769637E+02 -0.26830117732E+02  0.26626668875E+02  0.47787272316E+02  0.20000005798E+02 0.  0.
         12    1    1    2    0    0  0.21325769637E+02  0.26830117732E+02 -0.26626668875E+02  0.43400727684E+02  0.00000000000E+00 0. -1.
         11    1    3    3    0    0 -0.49592997025E+01 -0.16992633830E+00  0.50195961613E+01  0.70583195155E+01  0.51100000000E-03 0. -1.
        -11    1    3    3    0    0 -0.14657016003E+02 -0.20273426159E+02  0.22987866498E+02  0.33974724910E+02  0.51100000000E-03 0.  1.
        -12    1    3    3    0    0 -0.17094539313E+01 -0.63867652354E+01 -0.13807937849E+01  0.67542278902E+01  0.00000000000E+00 0.  1.
</event>
<event>
 7    1  0.4005571E-009  0.4778727E+02  0.7816164E-02  0.1312668E+00
        -11   -1    0    0    0    0  0.00000000000E+00  0.00000000000E+00  0.45593999997E+02  0.45594000000E+02  0.51100000000E-03 0. -1.
         11   -1    0    0    0    0 -0.00000000000E+00 -0.00000000000E+00 -0.45593999997E+02  0.45594000000E+02  0.51100000000E-03 0.  1.
    9900012    2    1    2    0    0 -0.21021198244E+01  0.36782446394E+02 -0.22940269358E+02  0.47787271565E+02  0.20000002372E+02 0.  0.
         12    1    1    2    0    0  0.21021198244E+01 -0.36782446394E+02  0.22940269358E+02  0.43400728435E+02  0.00000000000E+00 0. -1.
         11    1    3    3    0    0  0.47488067876E+01  0.22387394879E+02 -0.45023152726E+01  0.23324181839E+02  0.51100000000E-03 0. -1.
        -11    1    3    3    0    0 -0.20014331572E+01  0.34012781028E+01 -0.33610636553E+01  0.51837415610E+01  0.51100000000E-03 0.  1.
         12    1    3    3    0    0 -0.48494934548E+01  0.10993773412E+02 -0.15076890430E+02  0.19279348164E+02  0.00000000000E+00 0. -1.
</event>
<event>
 7    1  0.4005571E-009  0.4778727E+02  0.7816164E-02  0.1312668E+00
        -11   -1    0    0    0    0  0.00000000000E+00  0.00000000000E+00  0.45593999997E+02  0.45594000000E+02  0.51100000000E-03 0.  1.
         11   -1    0    0    0    0 -0.00000000000E+00 -0.00000000000E+00 -0.45593999997E+02  0.45594000000E+02  0.51100000000E-03 0. -1.
    9900012    2    1    2    0    0 -0.17223626782E+02 -0.35855336206E+02  0.17359866642E+02  0.47787269317E+02  0.19999992124E+02 0.  0.
         12    1    1    2    0    0  0.17223626782E+02  0.35855336206E+02 -0.17359866642E+02  0.43400730683E+02  0.00000000000E+00 0. -1.
         11    1    3    3    0    0  0.16423076996E+01 -0.67791296661E+01  0.34315790177E+01  0.77736419023E+01  0.51100000000E-03 0. -1.
        -11    1    3    3    0    0 -0.10932058931E+02 -0.16500751815E+02  0.15390391671E+02  0.25072871374E+02  0.51100000000E-03 0.  1.
        -12    1    3    3    0    0 -0.79338755511E+01 -0.12575454726E+02 -0.14621040466E+01  0.14940756040E+02  0.00000000000E+00 0.  1.
</event>
<event>
 7    1  0.4005571E-009  0.4778726E+02  0.7816164E-02  0.1312668E+00
        -11   -1    0    0    0    0  0.00000000000E+00  0.00000000000E+00  0.45593999997E+02  0.45594000000E+02  0.51100000000E-03 0.  1.
         11   -1    0    0    0    0 -0.00000000000E+00 -0.00000000000E+00 -0.45593999997E+02  0.45594000000E+02  0.51100000000E-03 0. -1.
    9900012    2    1    2    0    0  0.31503282020E+02  0.14914318810E+02  0.25859817444E+02  0.47787264501E+02  0.19999970167E+02 0.  0.
         12    1    1    2    0    0 -0.31503282020E+02 -0.14914318810E+02 -0.25859817444E+02  0.43400735499E+02  0.00000000000E+00 0. -1.
         11    1    3    3    0    0  0.14928885101E+02  0.72615309209E+01  0.56393824327E+01  0.17532942599E+02  0.51100000000E-03 0. -1.
        -11    1    3    3    0    0  0.11012097763E-01  0.48339526302E+01  0.14155536149E+01  0.50369645220E+01  0.51100000000E-03 0.  1.
        -12    1    3    3    0    0  0.16563384821E+02  0.28188352590E+01  0.18804881396E+02  0.25217357381E+02  0.00000000000E+00 0.  1.
</event>
<event>
 7    1  0.4005571E-009  0.4778729E+02  0.7816164E-02  0.1312668E+00
        -11   -1    0    0    0    0  0.00000000000E+00  0.00000000000E+00  0.45593999997E+02  0.45594000000E+02  0.51100000000E-03 0.  1.
         11   -1    0    0    0    0 -0.00000000000E+00 -0.00000000000E+00 -0.45593999997E+02  0.45594000000E+02  0.51100000000E-03 0. -1.
    9900012    2    1    2    0    0  0.34057696239E+02 -0.25889090079E+02  0.73109537765E+01  0.47787289138E+02  0.20000082495E+02 0.  0.
         12    1    1    2    0    0 -0.34057696239E+02  0.25889090079E+02 -0.73109537765E+01  0.43400710862E+02  0.00000000000E+00 0. -1.
         11    1    3    3    0    0  0.27451727802E+02 -0.26233631418E+02  0.11028443318E+02  0.39540199025E+02  0.51100000000E-03 0. -1.
        -11    1    3    3    0    0  0.27605621175E+01  0.33553779046E+00  0.16084058107E+00  0.27855266588E+01  0.51100000000E-03 0.  1.
         12    1    3    3    0    0  0.38454063199E+01  0.90035483183E-02 -0.38783301223E+01  0.54615634544E+01  0.00000000000E+00 0. -1.
</event>
<event>
 7    1  0.4005571E-009  0.4778727E+02  0.7816164E-02  0.1312668E+00
        -11   -1    0    0    0    0  0.00000000000E+00  0.00000000000E+00  0.45593999997E+02  0.45594000000E+02  0.51100000000E-03 0.  1.
         11   -1    0    0    0    0 -0.00000000000E+00 -0.00000000000E+00 -0.45593999997E+02  0.45594000000E+02  0.51100000000E-03 0. -1.
    9900012    2    1    2    0    0  0.97535119959E-01  0.39219586784E+02  0.18585951202E+02  0.47787273247E+02  0.20000010043E+02 0.  0.
         12    1    1    2    0    0 -0.97535119959E-01 -0.39219586784E+02 -0.18585951202E+02  0.43400726753E+02  0.00000000000E+00 0. -1.
         11    1    3    3    0    0  0.20776911479E+01  0.76043903722E+01  0.42049913260E+00  0.78943253809E+01  0.51100000000E-03 0. -1.
        -11    1    3    3    0    0 -0.86706589978E+01  0.19245249314E+02  0.81468086618E+01  0.22625879878E+02  0.51100000000E-03 0.  1.
        -12    1    3    3    0    0  0.66905029698E+01  0.12369947098E+02  0.10018643408E+02  0.17267067989E+02  0.00000000000E+00 0.  1.
</event>
<event>
 7    1  0.4005571E-009  0.4778727E+02  0.7816164E-02  0.1312668E+00
        -11   -1    0    0    0    0  0.00000000000E+00  0.00000000000E+00  0.45593999997E+02  0.45594000000E+02  0.51100000000E-03 0.  1.
         11   -1    0    0    0    0 -0.00000000000E+00 -0.00000000000E+00 -0.45593999997E+02  0.45594000000E+02  0.51100000000E-03 0. -1.
    9900012    2    1    2    0    0 -0.95612400206E+01 -0.26635280825E+02  0.32905441060E+02  0.47787267902E+02  0.19999985670E+02 0.  0.
         12    1    1    2    0    0  0.95612400206E+01  0.26635280825E+02 -0.32905441060E+02  0.43400732098E+02  0.00000000000E+00 0. -1.
         11    1    3    3    0    0  0.10351733802E+00 -0.59911327485E+01  0.27290572749E+01  0.65842343002E+01  0.51100000000E-03 0. -1.
        -11    1    3    3    0    0  0.39261356683E+01 -0.55342862613E+01  0.12700716172E+02  0.14399689484E+02  0.51100000000E-03 0.  1.
         12    1    3    3    0    0 -0.13590893027E+02 -0.15109861815E+02  0.17475667613E+02  0.26803344117E+02  0.00000000000E+00 0. -1.
</event>
<event>
 7    1  0.4005571E-009  0.4778727E+02  0.7816164E-02  0.1312668E+00
        -11   -1    0    0    0    0  0.00000000000E+00  0.00000000000E+00  0.45593999997E+02  0.45594000000E+02  0.51100000000E-03 0. -1.
         11   -1    0    0    0    0 -0.00000000000E+00 -0.00000000000E+00 -0.45593999997E+02  0.45594000000E+02  0.51100000000E-03 0.  1.
    9900012    2    1    2    0    0  0.26043745120E+01  0.42902128772E+02 -0.60206200242E+01  0.47787270914E+02  0.19999999403E+02 0.  0.
         12    1    1    2    0    0 -0.26043745120E+01 -0.42902128772E+02  0.60206200242E+01  0.43400729086E+02  0.00000000000E+00 0. -1.
         11    1    3    3    0    0  0.60832249589E+01  0.24120843129E+02 -0.52658950454E+01  0.25427354366E+02  0.51100000000E-03 0. -1.
        -11    1    3    3    0    0 -0.38370266876E+01  0.18561069156E+02 -0.37621031914E+01  0.19323288610E+02  0.51100000000E-03 0.  1.
        -12    1    3    3    0    0  0.35817624069E+00  0.22021648696E+00  0.30073782126E+01  0.30366279380E+01  0.00000000000E+00 0.  1.
</event>
<event>
 7    1  0.4005571E-009  0.4778727E+02  0.7816164E-02  0.1312668E+00
        -11   -1    0    0    0    0  0.00000000000E+00  0.00000000000E+00  0.45593999997E+02  0.45594000000E+02  0.51100000000E-03 0. -1.
         11   -1    0    0    0    0 -0.00000000000E+00 -0.00000000000E+00 -0.45593999997E+02  0.45594000000E+02  0.51100000000E-03 0.  1.
    9900012    2    1    2    0    0  0.25915975934E+02  0.30905372172E+02  0.16026341628E+02  0.47787268858E+02  0.19999990030E+02 0.  0.
         12    1    1    2    0    0 -0.25915975934E+02 -0.30905372172E+02 -0.16026341628E+02  0.43400731142E+02  0.00000000000E+00 0. -1.
         11    1    3    3    0    0  0.61176940597E+01  0.82785357156E+01  0.63070679420E+01  0.12072259129E+02  0.51100000000E-03 0. -1.
        -11    1    3    3    0    0  0.11665070032E+02  0.21419283471E+01  0.63868726616E+00  0.11877273996E+02  0.51100000000E-03 0.  1.
        -12    1    3    3    0    0  0.81332118427E+01  0.20484908109E+02  0.90805864199E+01  0.23837735732E+02  0.00000000000E+00 0.  1.
</event>
<event>
 7    1  0.4005571E-009  0.4778727E+02  0.7816164E-02  0.1312668E+00
        -11   -1    0    0    0    0  0.00000000000E+00  0.00000000000E+00  0.45593999997E+02  0.45594000000E+02  0.51100000000E-03 0.  1.
         11   -1    0    0    0    0 -0.00000000000E+00 -0.00000000000E+00 -0.45593999997E+02  0.45594000000E+02  0.51100000000E-03 0. -1.
    9900012    2    1    2    0    0  0.28479052841E+02 -0.15632801547E+02  0.28778159125E+02  0.47787269850E+02  0.19999994556E+02 0.  0.
         12    1    1    2    0    0 -0.28479052841E+02  0.15632801547E+02 -0.28778159125E+02  0.43400730150E+02  0.00000000000E+00 0. -1.
         11    1    3    3    0    0  0.12460616848E+02 -0.11798794069E+02  0.80735078332E+01  0.18964705183E+02  0.51100000000E-03 0. -1.
        -11    1    3    3    0    0  0.12306346974E+02 -0.11156946539E+01  0.66470604153E+01  0.14031192495E+02  0.51100000000E-03 0.  1.
         12    1    3    3    0    0  0.37120890192E+01 -0.27183128243E+01  0.14057590876E+02  0.14791372172E+02  0.00000000000E+00 0. -1.
</event>
<event>
 7    1  0.4005571E-009  0.4778727E+02  0.7816164E-02  0.1312668E+00
        -11   -1    0    0    0    0  0.00000000000E+00  0.00000000000E+00  0.45593999997E+02  0.45594000000E+02  0.51100000000E-03 0. -1.
         11   -1    0    0    0    0 -0.00000000000E+00 -0.00000000000E+00 -0.45593999997E+02  0.45594000000E+02  0.51100000000E-03 0.  1.
    9900012    2    1    2    0    0  0.23531610196E+02 -0.34813805491E+02  0.10857510490E+02  0.47787271144E+02  0.20000000455E+02 0.  0.
         12    1    1    2    0    0 -0.23531610196E+02  0.34813805491E+02 -0.10857510490E+02  0.43400728856E+02  0.00000000000E+00 0. -1.
         11    1    3    3    0    0  0.64091848259E+01 -0.73929866440E+01 -0.18483327876E+01  0.99574211524E+01  0.51100000000E-03 0. -1.
        -11    1    3    3    0    0  0.18877906594E+02 -0.26489224547E+02  0.92064694382E+01  0.33805524019E+02  0.51100000000E-03 0.  1.
        -12    1    3    3    0    0 -0.17554812235E+01 -0.93159430018E+00  0.34993738395E+01  0.40243259728E+01  0.00000000000E+00 0.  1.
</event>
<event>
 7    1  0.4005571E-009  0.4778727E+02  0.7816164E-02  0.1312668E+00
        -11   -1    0    0    0    0  0.00000000000E+00  0.00000000000E+00  0.45593999997E+02  0.45594000000E+02  0.51100000000E-03 0. -1.
         11   -1    0    0    0    0 -0.00000000000E+00 -0.00000000000E+00 -0.45593999997E+02  0.45594000000E+02  0.51100000000E-03 0.  1.
    9900012    2    1    2    0    0 -0.35692647449E+02  0.83987891229E+01 -0.23218937308E+02  0.47787265094E+02  0.19999972870E+02 0.  0.
         12    1    1    2    0    0  0.35692647449E+02 -0.83987891229E+01  0.23218937308E+02  0.43400734906E+02  0.00000000000E+00 0. -1.
         11    1    3    3    0    0 -0.31230398698E+01 -0.32094086072E+01 -0.40150428097E+01  0.60145033595E+01  0.51100000000E-03 0. -1.
        -11    1    3    3    0    0  0.13163109630E+01  0.74336354627E+00 -0.78382302354E+00  0.17028337284E+01  0.51100000000E-03 0.  1.
        -12    1    3    3    0    0 -0.33885918542E+02  0.10864834184E+02 -0.18420071475E+02  0.40069928006E+02  0.00000000000E+00 0.  1.
</event>
<event>
 7    1  0.4005571E-009  0.4778727E+02  0.7816164E-02  0.1312668E+00
        -11   -1    0    0    0    0  0.00000000000E+00  0.00000000000E+00  0.45593999997E+02  0.45594000000E+02  0.51100000000E-03 0. -1.
         11   -1    0    0    0    0 -0.00000000000E+00 -0.00000000000E+00 -0.45593999997E+02  0.45594000000E+02  0.51100000000E-03 0.  1.
    9900012    2    1    2    0    0  0.22634115922E+02 -0.34988785034E+02 -0.12128680242E+02  0.47787272286E+02  0.20000005661E+02 0.  0.
         12    1    1    2    0    0 -0.22634115922E+02  0.34988785034E+02  0.12128680242E+02  0.43400727714E+02  0.00000000000E+00 0. -1.
         11    1    3    3    0    0  0.86872695508E+01 -0.23473855822E+02 -0.14235803174E+02  0.28794941424E+02  0.51100000000E-03 0. -1.
        -11    1    3    3    0    0  0.26435013254E+01 -0.53689791506E+01  0.11196702030E+01  0.60883247287E+01  0.51100000000E-03 0.  1.
        -12    1    3    3    0    0  0.11303345046E+02 -0.61459500616E+01  0.98745272893E+00  0.12904006133E+02  0.00000000000E+00 0.  1.
</event>
<event>
 7    1  0.4005571E-009  0.4778727E+02  0.7816164E-02  0.1312668E+00
        -11   -1    0    0    0    0  0.00000000000E+00  0.00000000000E+00  0.45593999997E+02  0.45594000000E+02  0.51100000000E-03 0. -1.
         11   -1    0    0    0    0 -0.00000000000E+00 -0.00000000000E+00 -0.45593999997E+02  0.45594000000E+02  0.51100000000E-03 0.  1.
    9900012    2    1    2    0    0  0.96612318647E+01 -0.14050279083E+02 -0.39910819943E+02  0.47787270836E+02  0.19999999051E+02 0.  0.
         12    1    1    2    0    0 -0.96612318647E+01  0.14050279083E+02  0.39910819943E+02  0.43400729164E+02  0.00000000000E+00 0. -1.
         11    1    3    3    0    0 -0.90585913131E+00 -0.11069037508E+01  0.74485319551E+00  0.16126447914E+01  0.51100000000E-03 0.  1.
        -11    1    3    3    0    0 -0.34011222477E+01 -0.34812910191E+01 -0.11534327754E+02  0.12519094883E+02  0.51100000000E-03 0. -1.
        -12    1    3    3    0    0  0.13968213244E+02 -0.94620843128E+01 -0.29121345385E+02  0.33655531162E+02  0.00000000000E+00 0.  1.
</event>
<event>
 7    1  0.4005571E-009  0.4778727E+02  0.7816164E-02  0.1312668E+00
        -11   -1    0    0    0    0  0.00000000000E+00  0.00000000000E+00  0.45593999997E+02  0.45594000000E+02  0.51100000000E-03 0.  1.
         11   -1    0    0    0    0 -0.00000000000E+00 -0.00000000000E+00 -0.45593999997E+02  0.45594000000E+02  0.51100000000E-03 0. -1.
    9900012    2    1    2    0    0 -0.29407681152E+02  0.82804979780E+01  0.30826050479E+02  0.47787265610E+02  0.19999975220E+02 0.  0.
         12    1    1    2    0    0  0.29407681152E+02 -0.82804979780E+01 -0.30826050479E+02  0.43400734390E+02  0.00000000000E+00 0. -1.
         11    1    3    3    0    0 -0.42010344920E+01  0.30558478253E+00  0.61179584381E+01  0.74277512461E+01  0.51100000000E-03 0. -1.
        -11    1    3    3    0    0  0.23741579765E+01  0.40824844001E+00 -0.22203527000E+00  0.24192132623E+01  0.51100000000E-03 0.  1.
        -12    1    3    3    0    0 -0.27580804636E+02  0.75666647554E+01  0.24930127311E+02  0.37940301101E+02  0.00000000000E+00 0.  1.
</event>
<event>
 7    1  0.4005571E-009  0.4778727E+02  0.7816164E-02  0.1312668E+00
        -11   -1    0    0    0    0  0.00000000000E+00  0.00000000000E+00  0.45593999997E+02  0.45594000000E+02  0.51100000000E-03 0.  1.
         11   -1    0    0    0    0 -0.00000000000E+00 -0.00000000000E+00 -0.45593999997E+02  0.45594000000E+02  0.51100000000E-03 0. -1.
    9900012    2    1    2    0    0 -0.36546836529E+02  0.21901974103E+01  0.23305688750E+02  0.47787270132E+02  0.19999995839E+02 0.  0.
         12    1    1    2    0    0  0.36546836529E+02 -0.21901974103E+01 -0.23305688750E+02  0.43400729868E+02  0.00000000000E+00 0. -1.
         11    1    3    3    0    0 -0.37048170179E+01  0.26882715288E+01  0.53977754956E+01  0.70773196558E+01  0.51100000000E-03 0. -1.
        -11    1    3    3    0    0 -0.20131518426E+02 -0.28571751883E+01  0.18878518929E+02  0.27745990005E+02  0.51100000000E-03 0.  1.
         12    1    3    3    0    0 -0.12710501086E+02  0.23591010698E+01 -0.97060567427E+00  0.12963960470E+02  0.00000000000E+00 0. -1.
</event>
<event>
 7    1  0.4005571E-009  0.4778728E+02  0.7816164E-02  0.1312668E+00
        -11   -1    0    0    0    0  0.00000000000E+00  0.00000000000E+00  0.45593999997E+02  0.45594000000E+02  0.51100000000E-03 0. -1.
         11   -1    0    0    0    0 -0.00000000000E+00 -0.00000000000E+00 -0.45593999997E+02  0.45594000000E+02  0.51100000000E-03 0.  1.
    9900012    2    1    2    0    0 -0.40772732800E+02 -0.72954673371E+01  0.12960833329E+02  0.47787276685E+02  0.20000025718E+02 0.  0.
         12    1    1    2    0    0  0.40772732800E+02  0.72954673371E+01 -0.12960833329E+02  0.43400723315E+02  0.00000000000E+00 0. -1.
         11    1    3    3    0    0 -0.22514024241E+02 -0.59668397685E+01  0.11615630847E+02  0.26027050247E+02  0.51100000000E-03 0. -1.
        -11    1    3    3    0    0 -0.14810575368E+02 -0.16095999611E+01  0.59145888074E+01  0.16028921230E+02  0.51100000000E-03 0.  1.
         12    1    3    3    0    0 -0.34481331919E+01  0.28097239245E+00 -0.45693863259E+01  0.57313052082E+01  0.00000000000E+00 0. -1.
</event>
<event>
 7    1  0.4005571E-009  0.4778727E+02  0.7816164E-02  0.1312668E+00
        -11   -1    0    0    0    0  0.00000000000E+00  0.00000000000E+00  0.45593999997E+02  0.45594000000E+02  0.51100000000E-03 0. -1.
         11   -1    0    0    0    0 -0.00000000000E+00 -0.00000000000E+00 -0.45593999997E+02  0.45594000000E+02  0.51100000000E-03 0.  1.
    9900012    2    1    2    0    0  0.30080319561E+02 -0.14513254495E+02 -0.27715756371E+02  0.47787270373E+02  0.19999996939E+02 0.  0.
         12    1    1    2    0    0 -0.30080319561E+02  0.14513254495E+02  0.27715756371E+02  0.43400729627E+02  0.00000000000E+00 0. -1.
         11    1    3    3    0    0  0.11860153986E+01 -0.92456886055E+00  0.17854660971E+01  0.23343841905E+01  0.51100000000E-03 0. -1.
        -11    1    3    3    0    0  0.56735330247E+01 -0.77042906749E+01 -0.37338353957E+01  0.10270666912E+02  0.51100000000E-03 0.  1.
         12    1    3    3    0    0  0.23220771138E+02 -0.58843949591E+01 -0.25767387072E+02  0.35182219271E+02  0.00000000000E+00 0. -1.
</event>
<event>
 7    1  0.4005571E-009  0.4778727E+02  0.7816164E-02  0.1312668E+00
        -11   -1    0    0    0    0  0.00000000000E+00  0.00000000000E+00  0.45593999997E+02  0.45594000000E+02  0.51100000000E-03 0.  1.
         11   -1    0    0    0    0 -0.00000000000E+00 -0.00000000000E+00 -0.45593999997E+02  0.45594000000E+02  0.51100000000E-03 0. -1.
    9900012    2    1    2    0    0 -0.40966722749E+02  0.11826646322E+02  0.80920448571E+01  0.47787272748E+02  0.20000007769E+02 0.  0.
         12    1    1    2    0    0  0.40966722749E+02 -0.11826646322E+02 -0.80920448571E+01  0.43400727252E+02  0.00000000000E+00 0. -1.
         11    1    3    3    0    0 -0.17961759161E+02  0.59058632882E+01  0.14711599119E+01  0.18964923545E+02  0.51100000000E-03 0. -1.
        -11    1    3    3    0    0 -0.24520894964E+02  0.72120562782E+01  0.75122607776E+01  0.26640610125E+02  0.51100000000E-03 0.  1.
         12    1    3    3    0    0  0.15159313763E+01 -0.12912732441E+01 -0.89137583241E+00  0.21817390777E+01  0.00000000000E+00 0. -1.
</event>
<event>
 7    1  0.4005571E-009  0.4778727E+02  0.7816164E-02  0.1312668E+00
        -11   -1    0    0    0    0  0.00000000000E+00  0.00000000000E+00  0.45593999997E+02  0.45594000000E+02  0.51100000000E-03 0.  1.
         11   -1    0    0    0    0 -0.00000000000E+00 -0.00000000000E+00 -0.45593999997E+02  0.45594000000E+02  0.51100000000E-03 0. -1.
    9900012    2    1    2    0    0 -0.51297028130E+01 -0.25979992832E+01  0.43018132928E+02  0.47787271759E+02  0.20000003258E+02 0.  0.
         12    1    1    2    0    0  0.51297028130E+01  0.25979992832E+01 -0.43018132928E+02  0.43400728241E+02  0.00000000000E+00 0. -1.
         11    1    3    3    0    0 -0.48330287870E+00  0.23316360285E+01  0.15653725282E+01  0.28496490407E+01  0.51100000000E-03 0. -1.
        -11    1    3    3    0    0 -0.50637961066E+01  0.50786662298E+01  0.14335654105E+02  0.16029530890E+02  0.51100000000E-03 0.  1.
        -12    1    3    3    0    0  0.41739617238E+00 -0.10008301542E+02  0.27117106295E+02  0.28908091828E+02  0.00000000000E+00 0.  1.
</event>
<event>
 7    1  0.4005571E-009  0.4778727E+02  0.7816164E-02  0.1312668E+00
        -11   -1    0    0    0    0  0.00000000000E+00  0.00000000000E+00  0.45593999997E+02  0.45594000000E+02  0.51100000000E-03 0.  1.
         11   -1    0    0    0    0 -0.00000000000E+00 -0.00000000000E+00 -0.45593999997E+02  0.45594000000E+02  0.51100000000E-03 0. -1.
    9900012    2    1    2    0    0  0.11320874278E+02  0.19049582962E+02  0.37317213371E+02  0.47787271674E+02  0.20000002872E+02 0.  0.
         12    1    1    2    0    0 -0.11320874278E+02 -0.19049582962E+02 -0.37317213371E+02  0.43400728326E+02  0.00000000000E+00 0. -1.
         11    1    3    3    0    0 -0.96093369665E+00  0.12090294739E+01 -0.12258024277E+00  0.15492488552E+01  0.51100000000E-03 0. -1.
        -11    1    3    3    0    0  0.84391486852E+01  0.20691304459E+02  0.31076124721E+02  0.38276296042E+02  0.51100000000E-03 0.  1.
        -12    1    3    3    0    0  0.38426592893E+01 -0.28507509704E+01  0.63636688923E+01  0.79617267775E+01  0.00000000000E+00 0.  1.
</event>
<event>
 7    1  0.4005571E-009  0.4778727E+02  0.7816164E-02  0.1312668E+00
        -11   -1    0    0    0    0  0.00000000000E+00  0.00000000000E+00  0.45593999997E+02  0.45594000000E+02  0.51100000000E-03 0.  1.
         11   -1    0    0    0    0 -0.00000000000E+00 -0.00000000000E+00 -0.45593999997E+02  0.45594000000E+02  0.51100000000E-03 0. -1.
    9900012    2    1    2    0    0 -0.97519131210E+01 -0.12705836205E+02  0.40337149841E+02  0.47787265669E+02  0.19999975490E+02 0.  0.
         12    1    1    2    0    0  0.97519131210E+01  0.12705836205E+02 -0.40337149841E+02  0.43400734331E+02  0.00000000000E+00 0. -1.
         11    1    3    3    0    0  0.33657490594E+00 -0.51624999989E+01  0.10140078974E+01  0.52718973039E+01  0.51100000000E-03 0. -1.
        -11    1    3    3    0    0  0.18488405730E+01  0.12208326288E+00  0.64697577338E+01  0.67298500119E+01  0.51100000000E-03 0.  1.
        -12    1    3    3    0    0 -0.11937328600E+02 -0.76654194691E+01  0.32853384210E+02  0.35785518353E+02  0.00000000000E+00 0.  1.
</event>
<event>
 7    1  0.4005571E-009  0.4778727E+02  0.7816164E-02  0.1312668E+00
        -11   -1    0    0    0    0  0.00000000000E+00  0.00000000000E+00  0.45593999997E+02  0.45594000000E+02  0.51100000000E-03 0. -1.
         11   -1    0    0    0    0 -0.00000000000E+00 -0.00000000000E+00 -0.45593999997E+02  0.45594000000E+02  0.51100000000E-03 0.  1.
    9900012    2    1    2    0    0  0.39641137438E+02 -0.12379175476E+02 -0.12607916370E+02  0.47787270536E+02  0.19999997680E+02 0.  0.
         12    1    1    2    0    0 -0.39641137438E+02  0.12379175476E+02  0.12607916370E+02  0.43400729464E+02  0.00000000000E+00 0. -1.
         11    1    3    3    0    0  0.87793662107E+00 -0.25747095775E+01  0.30608051205E+00  0.27374418094E+01  0.51100000000E-03 0. -1.
        -11    1    3    3    0    0  0.12865204450E+02  0.35037127939E+01 -0.35217175279E+00  0.13338422474E+02  0.51100000000E-03 0.  1.
         12    1    3    3    0    0  0.25897996367E+02 -0.13308178692E+02 -0.12561825129E+02  0.31711406252E+02  0.00000000000E+00 0. -1.
</event>
<event>
 7    1  0.4005571E-009  0.4778727E+02  0.7816164E-02  0.1312668E+00
        -11   -1    0    0    0    0  0.00000000000E+00  0.00000000000E+00  0.45593999997E+02  0.45594000000E+02  0.51100000000E-03 0.  1.
         11   -1    0    0    0    0 -0.00000000000E+00 -0.00000000000E+00 -0.45593999997E+02  0.45594000000E+02  0.51100000000E-03 0. -1.
    9900012    2    1    2    0    0 -0.16127859498E+02  0.26732196777E+02  0.30148055404E+02  0.47787269117E+02  0.19999991212E+02 0.  0.
         12    1    1    2    0    0  0.16127859498E+02 -0.26732196777E+02 -0.30148055404E+02  0.43400730883E+02  0.00000000000E+00 0. -1.
         11    1    3    3    0    0 -0.37086271049E+01  0.76470505515E+00  0.88810903706E+01  0.96546597691E+01  0.51100000000E-03 0. -1.
        -11    1    3    3    0    0 -0.74372243203E+01  0.34156206113E+01  0.82526942522E+01  0.11622638790E+02  0.51100000000E-03 0.  1.
        -12    1    3    3    0    0 -0.49820080726E+01  0.22551871111E+02  0.13014270781E+02  0.26509970558E+02  0.00000000000E+00 0.  1.
</event>
<event>
 7    1  0.4005571E-009  0.4778727E+02  0.7816164E-02  0.1312668E+00
        -11   -1    0    0    0    0  0.00000000000E+00  0.00000000000E+00  0.45593999997E+02  0.45594000000E+02  0.51100000000E-03 0.  1.
         11   -1    0    0    0    0 -0.00000000000E+00 -0.00000000000E+00 -0.45593999997E+02  0.45594000000E+02  0.51100000000E-03 0. -1.
    9900012    2    1    2    0    0  0.39739056487E+02 -0.15682419793E+02  0.76480467920E+01  0.47787268200E+02  0.19999987032E+02 0.  0.
         12    1    1    2    0    0 -0.39739056487E+02  0.15682419793E+02 -0.76480467920E+01  0.43400731800E+02  0.00000000000E+00 0. -1.
         11    1    3    3    0    0  0.33761828901E+02 -0.95023618881E+01  0.94238649471E+01  0.36317560532E+02  0.51100000000E-03 0. -1.
        -11    1    3    3    0    0  0.70663321714E+01 -0.59592987268E+01  0.15151869341E+00  0.92449580771E+01  0.51100000000E-03 0.  1.
         12    1    3    3    0    0 -0.10891045862E+01 -0.22075917839E+00 -0.19273368485E+01  0.22247495909E+01  0.00000000000E+00 0. -1.
</event>
<event>
 7    1  0.4005571E-009  0.4778729E+02  0.7816164E-02  0.1312668E+00
        -11   -1    0    0    0    0  0.00000000000E+00  0.00000000000E+00  0.45593999997E+02  0.45594000000E+02  0.51100000000E-03 0. -1.
         11   -1    0    0    0    0 -0.00000000000E+00 -0.00000000000E+00 -0.45593999997E+02  0.45594000000E+02  0.51100000000E-03 0.  1.
    9900012    2    1    2    0    0  0.48303292733E+01 -0.39143317462E+02  0.18113268592E+02  0.47787287080E+02  0.20000073114E+02 0.  0.
         12    1    1    2    0    0 -0.48303292733E+01  0.39143317462E+02 -0.18113268592E+02  0.43400712920E+02  0.00000000000E+00 0. -1.
         11    1    3    3    0    0 -0.25028156473E+01 -0.40117275551E+01  0.17035665057E+01  0.50259509788E+01  0.51100000000E-03 0. -1.
        -11    1    3    3    0    0  0.49856359953E+01 -0.27688856874E+02  0.19644013885E+02  0.34313505257E+02  0.51100000000E-03 0.  1.
         12    1    3    3    0    0  0.23475089253E+01 -0.74427330333E+01 -0.32343117990E+01  0.84478308442E+01  0.00000000000E+00 0. -1.
</event>
<event>
 7    1  0.4005571E-009  0.4778728E+02  0.7816164E-02  0.1312668E+00
        -11   -1    0    0    0    0  0.00000000000E+00  0.00000000000E+00  0.45593999997E+02  0.45594000000E+02  0.51100000000E-03 0.  1.
         11   -1    0    0    0    0 -0.00000000000E+00 -0.00000000000E+00 -0.45593999997E+02  0.45594000000E+02  0.51100000000E-03 0. -1.
    9900012    2    1    2    0    0  0.12980503532E+02  0.34114497866E+02  0.23480426617E+02  0.47787275689E+02  0.20000021176E+02 0.  0.
         12    1    1    2    0    0 -0.12980503532E+02 -0.34114497866E+02 -0.23480426617E+02  0.43400724311E+02  0.00000000000E+00 0. -1.
         11    1    3    3    0    0  0.78478512364E+01  0.34894138036E+01  0.21933903721E+01  0.88642957592E+01  0.51100000000E-03 0. -1.
        -11    1    3    3    0    0  0.45763048169E+01  0.61844215998E+01  0.79976663367E+01  0.11097400749E+02  0.51100000000E-03 0.  1.
        -12    1    3    3    0    0  0.55634747821E+00  0.24440662463E+02  0.13289369908E+02  0.27825579180E+02  0.00000000000E+00 0.  1.
</event>
<event>
 7    1  0.4005571E-009  0.4778727E+02  0.7816164E-02  0.1312668E+00
        -11   -1    0    0    0    0  0.00000000000E+00  0.00000000000E+00  0.45593999997E+02  0.45594000000E+02  0.51100000000E-03 0. -1.
         11   -1    0    0    0    0 -0.00000000000E+00 -0.00000000000E+00 -0.45593999997E+02  0.45594000000E+02  0.51100000000E-03 0.  1.
    9900012    2    1    2    0    0 -0.24984696665E+02  0.29127026094E+02 -0.20273249257E+02  0.47787270144E+02  0.19999995896E+02 0.  0.
         12    1    1    2    0    0  0.24984696665E+02 -0.29127026094E+02  0.20273249257E+02  0.43400729856E+02  0.00000000000E+00 0. -1.
         11    1    3    3    0    0 -0.83388297141E+01  0.74076207183E+01 -0.71276943089E+01  0.13236802942E+02  0.51100000000E-03 0. -1.
        -11    1    3    3    0    0 -0.26227251403E+01  0.14848097987E+02 -0.11265254862E+02  0.18821547980E+02  0.51100000000E-03 0.  1.
         12    1    3    3    0    0 -0.14023141811E+02  0.68713073889E+01 -0.18803000863E+01  0.15728919222E+02  0.00000000000E+00 0. -1.
</event>
<event>
 7    1  0.4005571E-009  0.4778727E+02  0.7816164E-02  0.1312668E+00
        -11   -1    0    0    0    0  0.00000000000E+00  0.00000000000E+00  0.45593999997E+02  0.45594000000E+02  0.51100000000E-03 0.  1.
         11   -1    0    0    0    0 -0.00000000000E+00 -0.00000000000E+00 -0.45593999997E+02  0.45594000000E+02  0.51100000000E-03 0. -1.
    9900012    2    1    2    0    0 -0.39737202465E+02 -0.57698388014E+00  0.17442621654E+02  0.47787271662E+02  0.20000002816E+02 0.  0.
         12    1    1    2    0    0  0.39737202465E+02  0.57698388014E+00 -0.17442621654E+02  0.43400728338E+02  0.00000000000E+00 0. -1.
         11    1    3    3    0    0  0.43276210377E+00  0.98813345187E+00 -0.13561786275E+00  0.10872365074E+01  0.51100000000E-03 0. -1.
        -11    1    3    3    0    0 -0.13148416584E+02  0.69541257659E+01  0.49043084650E+01  0.15661831490E+02  0.51100000000E-03 0.  1.
        -12    1    3    3    0    0 -0.27021547984E+02 -0.85192430979E+01  0.12673931052E+02  0.31038203664E+02  0.00000000000E+00 0.  1.
</event>
<event>
 7    1  0.4005571E-009  0.4778727E+02  0.7816164E-02  0.1312668E+00
        -11   -1    0    0    0    0  0.00000000000E+00  0.00000000000E+00  0.45593999997E+02  0.45594000000E+02  0.51100000000E-03 0. -1.
         11   -1    0    0    0    0 -0.00000000000E+00 -0.00000000000E+00 -0.45593999997E+02  0.45594000000E+02  0.51100000000E-03 0.  1.
    9900012    2    1    2    0    0  0.40949478617E+02 -0.12203419168E+02  0.76052438788E+01  0.47787274512E+02  0.20000015812E+02 0.  0.
         12    1    1    2    0    0 -0.40949478617E+02  0.12203419168E+02 -0.76052438788E+01  0.43400725488E+02  0.00000000000E+00 0. -1.
         11    1    3    3    0    0  0.13361199378E+02  0.34086710818E+01  0.24546001199E+01  0.14005918369E+02  0.51100000000E-03 0. -1.
        -11    1    3    3    0    0  0.83155578569E+01  0.38600593604E+00  0.85684525650E+00  0.83684937180E+01  0.51100000000E-03 0.  1.
         12    1    3    3    0    0  0.19272721382E+02 -0.15998096186E+02  0.42937985024E+01  0.25412862425E+02  0.00000000000E+00 0. -1.
</event>
<event>
 7    1  0.4005571E-009  0.4778727E+02  0.7816164E-02  0.1312668E+00
        -11   -1    0    0    0    0  0.00000000000E+00  0.00000000000E+00  0.45593999997E+02  0.45594000000E+02  0.51100000000E-03 0.  1.
         11   -1    0    0    0    0 -0.00000000000E+00 -0.00000000000E+00 -0.45593999997E+02  0.45594000000E+02  0.51100000000E-03 0. -1.
    9900012    2    1    2    0    0 -0.24167882545E+01 -0.36774657801E+02  0.22921762675E+02  0.47787268140E+02  0.19999986758E+02 0.  0.
         12    1    1    2    0    0  0.24167882545E+01  0.36774657801E+02 -0.22921762675E+02  0.43400731860E+02  0.00000000000E+00 0. -1.
         11    1    3    3    0    0  0.15121469939E+01 -0.21277529559E+01 -0.19444152486E+01  0.32549457894E+01  0.51100000000E-03 0. -1.
        -11    1    3    3    0    0 -0.60988330721E+01 -0.78256844240E+01  0.82775786834E+01  0.12921122655E+02  0.51100000000E-03 0.  1.
         12    1    3    3    0    0  0.21698978237E+01 -0.26821220421E+02  0.16588599240E+02  0.31611199696E+02  0.00000000000E+00 0. -1.
</event>
<event>
 7    1  0.4005571E-009  0.4778727E+02  0.7816164E-02  0.1312668E+00
        -11   -1    0    0    0    0  0.00000000000E+00  0.00000000000E+00  0.45593999997E+02  0.45594000000E+02  0.51100000000E-03 0. -1.
         11   -1    0    0    0    0 -0.00000000000E+00 -0.00000000000E+00 -0.45593999997E+02  0.45594000000E+02  0.51100000000E-03 0.  1.
    9900012    2    1    2    0    0 -0.40651507096E+02 -0.11802110069E+02 -0.95806252967E+01  0.47787271753E+02  0.20000003232E+02 0.  0.
         12    1    1    2    0    0  0.40651507096E+02  0.11802110069E+02  0.95806252967E+01  0.43400728247E+02  0.00000000000E+00 0. -1.
         11    1    3    3    0    0 -0.32070654829E+01  0.17654385706E+01 -0.30857420211E+00  0.36738618180E+01  0.51100000000E-03 0. -1.
        -11    1    3    3    0    0 -0.24484863588E+02 -0.14273172797E+02 -0.31355453396E+00  0.28343082460E+02  0.51100000000E-03 0.  1.
        -12    1    3    3    0    0 -0.12959578025E+02  0.70562415805E+00 -0.89584965606E+01  0.15770327475E+02  0.00000000000E+00 0.  1.
</event>
<event>
 7    1  0.4005571E-009  0.4778727E+02  0.7816164E-02  0.1312668E+00
        -11   -1    0    0    0    0  0.00000000000E+00  0.00000000000E+00  0.45593999997E+02  0.45594000000E+02  0.51100000000E-03 0.  1.
         11   -1    0    0    0    0 -0.00000000000E+00 -0.00000000000E+00 -0.45593999997E+02  0.45594000000E+02  0.51100000000E-03 0. -1.
    9900012    2    1    2    0    0 -0.64711078811E+01 -0.27296139887E+02  0.33115990129E+02  0.47787270834E+02  0.19999999040E+02 0.  0.
         12    1    1    2    0    0  0.64711078811E+01  0.27296139887E+02 -0.33115990129E+02  0.43400729166E+02  0.00000000000E+00 0. -1.
         11    1    3    3    0    0 -0.93473881680E+00 -0.67443999790E+01  0.69358845964E+01  0.97194219544E+01  0.51100000000E-03 0. -1.
        -11    1    3    3    0    0 -0.42145244528E+01 -0.10883992879E+02  0.25783425469E+02  0.28302094384E+02  0.51100000000E-03 0.  1.
         12    1    3    3    0    0 -0.13218446115E+01 -0.96677470288E+01  0.39668006365E+00  0.97657544953E+01  0.00000000000E+00 0. -1.
</event>
<event>
 7    1  0.4005571E-009  0.4778727E+02  0.7816164E-02  0.1312668E+00
        -11   -1    0    0    0    0  0.00000000000E+00  0.00000000000E+00  0.45593999997E+02  0.45594000000E+02  0.51100000000E-03 0.  1.
         11   -1    0    0    0    0 -0.00000000000E+00 -0.00000000000E+00 -0.45593999997E+02  0.45594000000E+02  0.51100000000E-03 0. -1.
    9900012    2    1    2    0    0  0.19008099648E+02 -0.27608388257E+02  0.27569768688E+02  0.47787273049E+02  0.20000009141E+02 0.  0.
         12    1    1    2    0    0 -0.19008099648E+02  0.27608388257E+02 -0.27569768688E+02  0.43400726951E+02  0.00000000000E+00 0. -1.
         11    1    3    3    0    0 -0.53150749093E+00 -0.10767707914E+02  0.10203109224E+02  0.14843499319E+02  0.51100000000E-03 0.  1.
        -11    1    3    3    0    0  0.51230138025E+01 -0.88390214301E+01  0.20108799113E+01  0.10412358452E+02  0.51100000000E-03 0. -1.
         12    1    3    3    0    0  0.14416593336E+02 -0.80016589132E+01  0.15355779552E+02  0.22531415278E+02  0.00000000000E+00 0. -1.
</event>
<event>
 7    1  0.4005571E-009  0.4778727E+02  0.7816164E-02  0.1312668E+00
        -11   -1    0    0    0    0  0.00000000000E+00  0.00000000000E+00  0.45593999997E+02  0.45594000000E+02  0.51100000000E-03 0.  1.
         11   -1    0    0    0    0 -0.00000000000E+00 -0.00000000000E+00 -0.45593999997E+02  0.45594000000E+02  0.51100000000E-03 0. -1.
    9900012    2    1    2    0    0  0.82525775736E+01 -0.14411930967E+02  0.40097562079E+02  0.47787271026E+02  0.19999999915E+02 0.  0.
         12    1    1    2    0    0 -0.82525775736E+01  0.14411930967E+02 -0.40097562079E+02  0.43400728974E+02  0.00000000000E+00 0. -1.
         11    1    3    3    0    0 -0.99104516251E+00  0.62120472258E+00  0.52119260659E+01  0.53415577690E+01  0.51100000000E-03 0. -1.
        -11    1    3    3    0    0  0.11497452387E+02 -0.90601928472E+01  0.12764885226E+02  0.19422172919E+02  0.51100000000E-03 0.  1.
        -12    1    3    3    0    0 -0.22538296505E+01 -0.59729428422E+01  0.22120750787E+02  0.23023540338E+02  0.00000000000E+00 0.  1.
</event>
<event>
 7    1  0.4005571E-009  0.4778727E+02  0.7816164E-02  0.1312668E+00
        -11   -1    0    0    0    0  0.00000000000E+00  0.00000000000E+00  0.45593999997E+02  0.45594000000E+02  0.51100000000E-03 0. -1.
         11   -1    0    0    0    0 -0.00000000000E+00 -0.00000000000E+00 -0.45593999997E+02  0.45594000000E+02  0.51100000000E-03 0.  1.
    9900012    2    1    2    0    0 -0.35914495313E+02 -0.17344719926E+02 -0.17115282625E+02  0.47787272100E+02  0.20000004814E+02 0.  0.
         12    1    1    2    0    0  0.35914495313E+02  0.17344719926E+02  0.17115282625E+02  0.43400727900E+02  0.00000000000E+00 0. -1.
         11    1    3    3    0    0 -0.33482587460E+01 -0.92932061902E+01 -0.55146609720E+01  0.11313089933E+02  0.51100000000E-03 0. -1.
        -11    1    3    3    0    0 -0.21084744556E+01  0.15702503358E+01 -0.11160810072E+01  0.28560440688E+01  0.51100000000E-03 0.  1.
        -12    1    3    3    0    0 -0.30457762111E+02 -0.96217640716E+01 -0.10484540646E+02  0.33618138099E+02  0.00000000000E+00 0.  1.
</event>
<event>
 7    1  0.4005571E-009  0.4778727E+02  0.7816164E-02  0.1312668E+00
        -11   -1    0    0    0    0  0.00000000000E+00  0.00000000000E+00  0.45593999997E+02  0.45594000000E+02  0.51100000000E-03 0. -1.
         11   -1    0    0    0    0 -0.00000000000E+00 -0.00000000000E+00 -0.45593999997E+02  0.45594000000E+02  0.51100000000E-03 0.  1.
    9900012    2    1    2    0    0  0.17709017326E+02 -0.37613510131E+02 -0.12459443381E+02  0.47787272260E+02  0.20000005541E+02 0.  0.
         12    1    1    2    0    0 -0.17709017326E+02  0.37613510131E+02  0.12459443381E+02  0.43400727740E+02  0.00000000000E+00 0. -1.
         11    1    3    3    0    0  0.76958003754E+01 -0.78733522346E+01 -0.44444349072E+01  0.11872995441E+02  0.51100000000E-03 0. -1.
        -11    1    3    3    0    0  0.30797985274E+01 -0.20357114717E+02 -0.11698015569E+02  0.23679967211E+02  0.51100000000E-03 0.  1.
         12    1    3    3    0    0  0.69334184237E+01 -0.93830431789E+01  0.36830070950E+01  0.12234309609E+02  0.00000000000E+00 0. -1.
</event>
<event>
 7    1  0.4005571E-009  0.4778727E+02  0.7816164E-02  0.1312668E+00
        -11   -1    0    0    0    0  0.00000000000E+00  0.00000000000E+00  0.45593999997E+02  0.45594000000E+02  0.51100000000E-03 0.  1.
         11   -1    0    0    0    0 -0.00000000000E+00 -0.00000000000E+00 -0.45593999997E+02  0.45594000000E+02  0.51100000000E-03 0. -1.
    9900012    2    1    2    0    0  0.36823129329E+02 -0.30414213722E+01  0.22769058290E+02  0.47787272898E+02  0.20000008453E+02 0.  0.
         12    1    1    2    0    0 -0.36823129329E+02  0.30414213722E+01 -0.22769058290E+02  0.43400727102E+02  0.00000000000E+00 0. -1.
         11    1    3    3    0    0  0.59239370443E+01 -0.66119926413E+01  0.48282519321E+01  0.10105616942E+02  0.51100000000E-03 0. -1.
        -11    1    3    3    0    0  0.19361060792E+02 -0.25194167503E+01  0.72946610414E+01  0.20842509823E+02  0.51100000000E-03 0.  1.
         12    1    3    3    0    0  0.11538131493E+02  0.60899880194E+01  0.10646145316E+02  0.16839146134E+02  0.00000000000E+00 0. -1.
</event>
<event>
 7    1  0.4005571E-009  0.4778727E+02  0.7816164E-02  0.1312668E+00
        -11   -1    0    0    0    0  0.00000000000E+00  0.00000000000E+00  0.45593999997E+02  0.45594000000E+02  0.51100000000E-03 0. -1.
         11   -1    0    0    0    0 -0.00000000000E+00 -0.00000000000E+00 -0.45593999997E+02  0.45594000000E+02  0.51100000000E-03 0.  1.
    9900012    2    1    2    0    0 -0.29101657614E+01  0.30863773204E+02 -0.30374030576E+02  0.47787270806E+02  0.19999998914E+02 0.  0.
         12    1    1    2    0    0  0.29101657614E+01 -0.30863773204E+02  0.30374030576E+02  0.43400729194E+02  0.00000000000E+00 0. -1.
         11    1    3    3    0    0  0.10307887329E+01  0.22419043794E+01 -0.45555885401E+01  0.51809311775E+01  0.51100000000E-03 0. -1.
        -11    1    3    3    0    0 -0.12987335080E+01  0.28701716916E+02 -0.27251469901E+02  0.39599468111E+02  0.51100000000E-03 0.  1.
         12    1    3    3    0    0 -0.26422209862E+01 -0.79848091903E-01  0.14330278657E+01  0.30068715173E+01  0.00000000000E+00 0. -1.
</event>
<event>
 7    1  0.4005571E-009  0.4778727E+02  0.7816164E-02  0.1312668E+00
        -11   -1    0    0    0    0  0.00000000000E+00  0.00000000000E+00  0.45593999997E+02  0.45594000000E+02  0.51100000000E-03 0.  1.
         11   -1    0    0    0    0 -0.00000000000E+00 -0.00000000000E+00 -0.45593999997E+02  0.45594000000E+02  0.51100000000E-03 0. -1.
    9900012    2    1    2    0    0 -0.20126440609E+02  0.35945167148E+02  0.13656306613E+02  0.47787270015E+02  0.19999995307E+02 0.  0.
         12    1    1    2    0    0  0.20126440609E+02 -0.35945167148E+02 -0.13656306613E+02  0.43400729985E+02  0.00000000000E+00 0. -1.
         11    1    3    3    0    0  0.85087304554E+00  0.10556448982E+01 -0.16548726689E+01  0.21393865714E+01  0.51100000000E-03 0. -1.
        -11    1    3    3    0    0 -0.67630765743E+01  0.18613242958E+02  0.12019399595E+01  0.19840279184E+02  0.51100000000E-03 0.  1.
        -12    1    3    3    0    0 -0.14214237080E+02  0.16276279292E+02  0.14109239322E+02  0.25807604259E+02  0.00000000000E+00 0.  1.
</event>
<event>
 7    1  0.4005571E-009  0.4778728E+02  0.7816164E-02  0.1312668E+00
        -11   -1    0    0    0    0  0.00000000000E+00  0.00000000000E+00  0.45593999997E+02  0.45594000000E+02  0.51100000000E-03 0.  1.
         11   -1    0    0    0    0 -0.00000000000E+00 -0.00000000000E+00 -0.45593999997E+02  0.45594000000E+02  0.51100000000E-03 0. -1.
    9900012    2    1    2    0    0 -0.31299368785E+01  0.26981185044E+02  0.33850287692E+02  0.47787276181E+02  0.20000023418E+02 0.  0.
         12    1    1    2    0    0  0.31299368785E+01 -0.26981185044E+02 -0.33850287692E+02  0.43400723819E+02  0.00000000000E+00 0. -1.
         11    1    3    3    0    0  0.12195466849E+01  0.37504714596E+01  0.10708342824E+02  0.11411482664E+02  0.51100000000E-03 0. -1.
        -11    1    3    3    0    0  0.28716182122E-02 -0.18503005039E+01  0.43740691071E+01  0.47493263750E+01  0.51100000000E-03 0.  1.
        -12    1    3    3    0    0 -0.43523551815E+01  0.25081014088E+02  0.18767875760E+02  0.31626467142E+02  0.00000000000E+00 0.  1.
</event>
<event>
 7    1  0.4005571E-009  0.4778727E+02  0.7816164E-02  0.1312668E+00
        -11   -1    0    0    0    0  0.00000000000E+00  0.00000000000E+00  0.45593999997E+02  0.45594000000E+02  0.51100000000E-03 0.  1.
         11   -1    0    0    0    0 -0.00000000000E+00 -0.00000000000E+00 -0.45593999997E+02  0.45594000000E+02  0.51100000000E-03 0. -1.
    9900012    2    1    2    0    0 -0.18834949940E+02 -0.77240072907E+01  0.38330244749E+02  0.47787270854E+02  0.19999999132E+02 0.  0.
         12    1    1    2    0    0  0.18834949940E+02  0.77240072907E+01 -0.38330244749E+02  0.43400729146E+02  0.00000000000E+00 0. -1.
         11    1    3    3    0    0 -0.22376458991E+01 -0.45570712672E+01  0.92270355097E+01  0.10531483384E+02  0.51100000000E-03 0. -1.
        -11    1    3    3    0    0 -0.19381220147E+02 -0.82893208942E+00  0.26218667929E+02  0.32614986909E+02  0.51100000000E-03 0.  1.
         12    1    3    3    0    0  0.27839161063E+01 -0.23380039341E+01  0.28845413099E+01  0.46408005614E+01  0.00000000000E+00 0. -1.
</event>
<event>
 7    1  0.4005571E-009  0.4778727E+02  0.7816164E-02  0.1312668E+00
        -11   -1    0    0    0    0  0.00000000000E+00  0.00000000000E+00  0.45593999997E+02  0.45594000000E+02  0.51100000000E-03 0. -1.
         11   -1    0    0    0    0 -0.00000000000E+00 -0.00000000000E+00 -0.45593999997E+02  0.45594000000E+02  0.51100000000E-03 0.  1.
    9900012    2    1    2    0    0 -0.38341366881E+02 -0.58960503986E+01  0.19462773420E+02  0.47787269894E+02  0.19999994753E+02 0.  0.
         12    1    1    2    0    0  0.38341366881E+02  0.58960503986E+01 -0.19462773420E+02  0.43400730106E+02  0.00000000000E+00 0. -1.
         11    1    3    3    0    0 -0.24485653776E+02 -0.12214846304E+02  0.84778671245E+01  0.28646534560E+02  0.51100000000E-03 0. -1.
        -11    1    3    3    0    0 -0.42748935870E+01  0.42244989467E+00  0.19766612713E+01  0.47286751989E+01  0.51100000000E-03 0.  1.
         12    1    3    3    0    0 -0.95808195179E+01  0.58963460107E+01  0.90082450237E+01  0.14412060135E+02  0.00000000000E+00 0. -1.
</event>
<event>
 7    1  0.4005571E-009  0.4778727E+02  0.7816164E-02  0.1312668E+00
        -11   -1    0    0    0    0  0.00000000000E+00  0.00000000000E+00  0.45593999997E+02  0.45594000000E+02  0.51100000000E-03 0. -1.
         11   -1    0    0    0    0 -0.00000000000E+00 -0.00000000000E+00 -0.45593999997E+02  0.45594000000E+02  0.51100000000E-03 0.  1.
    9900012    2    1    2    0    0 -0.32113367080E+02 -0.12757005137E+01 -0.29167239600E+02  0.47787267023E+02  0.19999981665E+02 0.  0.
         12    1    1    2    0    0  0.32113367080E+02  0.12757005137E+01  0.29167239600E+02  0.43400732977E+02  0.00000000000E+00 0. -1.
         11    1    3    3    0    0 -0.19323363474E+02 -0.87769276470E-01 -0.14996101330E+02  0.24459826957E+02  0.51100000000E-03 0. -1.
        -11    1    3    3    0    0 -0.13773347359E+02  0.30488907749E+01 -0.99198632132E+01  0.17245420228E+02  0.51100000000E-03 0.  1.
         12    1    3    3    0    0  0.98334375239E+00 -0.42368220122E+01 -0.42512750572E+01  0.60820198380E+01  0.00000000000E+00 0. -1.
</event>
<event>
 7    1  0.4005571E-009  0.4778727E+02  0.7816164E-02  0.1312668E+00
        -11   -1    0    0    0    0  0.00000000000E+00  0.00000000000E+00  0.45593999997E+02  0.45594000000E+02  0.51100000000E-03 0. -1.
         11   -1    0    0    0    0 -0.00000000000E+00 -0.00000000000E+00 -0.45593999997E+02  0.45594000000E+02  0.51100000000E-03 0.  1.
    9900012    2    1    2    0    0  0.24980990711E+02  0.33999751842E+02 -0.10177915658E+02  0.47787274322E+02  0.20000014945E+02 0.  0.
         12    1    1    2    0    0 -0.24980990711E+02 -0.33999751842E+02  0.10177915658E+02  0.43400725678E+02  0.00000000000E+00 0. -1.
         11    1    3    3    0    0  0.18570260629E+02  0.15888895385E+02 -0.32621489691E+01  0.24656706847E+02  0.51100000000E-03 0. -1.
        -11    1    3    3    0    0  0.72889317046E+01  0.79003852025E+01 -0.70971976262E+01  0.12880792916E+02  0.51100000000E-03 0.  1.
         12    1    3    3    0    0 -0.87820162253E+00  0.10210471255E+02  0.18143093718E+00  0.10249774559E+02  0.00000000000E+00 0. -1.
</event>
<event>
 7    1  0.4005571E-009  0.4778727E+02  0.7816164E-02  0.1312668E+00
        -11   -1    0    0    0    0  0.00000000000E+00  0.00000000000E+00  0.45593999997E+02  0.45594000000E+02  0.51100000000E-03 0.  1.
         11   -1    0    0    0    0 -0.00000000000E+00 -0.00000000000E+00 -0.45593999997E+02  0.45594000000E+02  0.51100000000E-03 0. -1.
    9900012    2    1    2    0    0 -0.36134144282E+02 -0.21940229742E+02  0.98271680254E+01  0.47787270795E+02  0.19999998862E+02 0.  0.
         12    1    1    2    0    0  0.36134144282E+02  0.21940229742E+02 -0.98271680254E+01  0.43400729205E+02  0.00000000000E+00 0. -1.
         11    1    3    3    0    0 -0.14177309472E+02 -0.50771789696E+01  0.16495454607E+01  0.15149087452E+02  0.51100000000E-03 0. -1.
        -11    1    3    3    0    0 -0.88578559260E+01 -0.11202038476E+01  0.82527265740E+01  0.12158287891E+02  0.51100000000E-03 0.  1.
        -12    1    3    3    0    0 -0.13098978885E+02 -0.15742846925E+02 -0.75104009328E-01  0.20479895452E+02  0.00000000000E+00 0.  1.
</event>
<event>
 7    1  0.4005571E-009  0.4778732E+02  0.7816164E-02  0.1312668E+00
        -11   -1    0    0    0    0  0.00000000000E+00  0.00000000000E+00  0.45593999997E+02  0.45594000000E+02  0.51100000000E-03 0.  1.
         11   -1    0    0    0    0 -0.00000000000E+00 -0.00000000000E+00 -0.45593999997E+02  0.45594000000E+02  0.51100000000E-03 0. -1.
    9900012    2    1    2    0    0  0.17914752972E+02 -0.37866437632E+02  0.11349588541E+02  0.47787324509E+02  0.20000243766E+02 0.  0.
         12    1    1    2    0    0 -0.17914752972E+02  0.37866437632E+02 -0.11349588541E+02  0.43400675491E+02  0.00000000000E+00 0. -1.
         11    1    3    3    0    0  0.63455346609E+01 -0.12928742215E+02  0.52622961432E+01  0.15333295352E+02  0.51100000000E-03 0. -1.
        -11    1    3    3    0    0  0.10100134053E+02 -0.21334461927E+02  0.11119838663E+02  0.26092581048E+02  0.51100000000E-03 0.  1.
         12    1    3    3    0    0  0.14690842585E+01 -0.36032334903E+01 -0.50325462644E+01  0.63614481093E+01  0.00000000000E+00 0. -1.
</event>
<event>
 7    1  0.4005571E-009  0.4778728E+02  0.7816164E-02  0.1312668E+00
        -11   -1    0    0    0    0  0.00000000000E+00  0.00000000000E+00  0.45593999997E+02  0.45594000000E+02  0.51100000000E-03 0. -1.
         11   -1    0    0    0    0 -0.00000000000E+00 -0.00000000000E+00 -0.45593999997E+02  0.45594000000E+02  0.51100000000E-03 0.  1.
    9900012    2    1    2    0    0 -0.23877257906E+02 -0.25309557863E+02 -0.25940809593E+02  0.47787276887E+02  0.20000026641E+02 0.  0.
         12    1    1    2    0    0  0.23877257906E+02  0.25309557863E+02  0.25940809593E+02  0.43400723113E+02  0.00000000000E+00 0. -1.
         11    1    3    3    0    0 -0.75878134220E+01 -0.47677761132E+01 -0.13512606038E+02  0.16214102621E+02  0.51100000000E-03 0. -1.
        -11    1    3    3    0    0 -0.62528313332E+00 -0.40244204563E+00 -0.49222409239E+01  0.49780914586E+01  0.51100000000E-03 0.  1.
        -12    1    3    3    0    0 -0.15664161351E+02 -0.20139339704E+02 -0.75059626311E+01  0.26595082808E+02  0.00000000000E+00 0.  1.
</event>
<event>
 7    1  0.4005571E-009  0.4778727E+02  0.7816164E-02  0.1312668E+00
        -11   -1    0    0    0    0  0.00000000000E+00  0.00000000000E+00  0.45593999997E+02  0.45594000000E+02  0.51100000000E-03 0.  1.
         11   -1    0    0    0    0 -0.00000000000E+00 -0.00000000000E+00 -0.45593999997E+02  0.45594000000E+02  0.51100000000E-03 0. -1.
    9900012    2    1    2    0    0 -0.21363947123E+01  0.41454790899E+02  0.12671212272E+02  0.47787268539E+02  0.19999988578E+02 0.  0.
         12    1    1    2    0    0  0.21363947123E+01 -0.41454790899E+02 -0.12671212272E+02  0.43400731461E+02  0.00000000000E+00 0. -1.
         11    1    3    3    0    0 -0.45231779527E+01  0.22256021864E+02  0.14888458655E+02  0.27156138337E+02  0.51100000000E-03 0. -1.
        -11    1    3    3    0    0  0.26751841155E+01  0.14566793921E+02  0.12131329864E+01  0.14860006296E+02  0.51100000000E-03 0.  1.
         12    1    3    3    0    0 -0.28840087501E+00  0.46319751143E+01 -0.34303793699E+01  0.57711239066E+01  0.00000000000E+00 0. -1.
</event>
<event>
 7    1  0.4005571E-009  0.4778727E+02  0.7816164E-02  0.1312668E+00
        -11   -1    0    0    0    0  0.00000000000E+00  0.00000000000E+00  0.45593999997E+02  0.45594000000E+02  0.51100000000E-03 0.  1.
         11   -1    0    0    0    0 -0.00000000000E+00 -0.00000000000E+00 -0.45593999997E+02  0.45594000000E+02  0.51100000000E-03 0. -1.
    9900012    2    1    2    0    0 -0.71862780563E+01 -0.20205014421E+02  0.37732456589E+02  0.47787268667E+02  0.19999989159E+02 0.  0.
         12    1    1    2    0    0  0.71862780563E+01  0.20205014421E+02 -0.37732456589E+02  0.43400731333E+02  0.00000000000E+00 0. -1.
         11    1    3    3    0    0 -0.41186955456E+01 -0.40922155562E+01  0.52849888342E+01  0.78511775164E+01  0.51100000000E-03 0. -1.
        -11    1    3    3    0    0 -0.37066995839E+01 -0.14574996683E+02  0.34295760517E+02  0.37448222119E+02  0.51100000000E-03 0.  1.
        -12    1    3    3    0    0  0.63911707324E+00 -0.15378021812E+01 -0.18482927628E+01  0.24878690317E+01  0.00000000000E+00 0.  1.
</event>
<event>
 7    1  0.4005571E-009  0.4778727E+02  0.7816164E-02  0.1312668E+00
        -11   -1    0    0    0    0  0.00000000000E+00  0.00000000000E+00  0.45593999997E+02  0.45594000000E+02  0.51100000000E-03 0.  1.
         11   -1    0    0    0    0 -0.00000000000E+00 -0.00000000000E+00 -0.45593999997E+02  0.45594000000E+02  0.51100000000E-03 0. -1.
    9900012    2    1    2    0    0 -0.29939545375E+02 -0.17396409010E+02  0.26165097122E+02  0.47787265777E+02  0.19999975982E+02 0.  0.
         12    1    1    2    0    0  0.29939545375E+02  0.17396409010E+02 -0.26165097122E+02  0.43400734223E+02  0.00000000000E+00 0. -1.
         11    1    3    3    0    0 -0.96989931894E+01 -0.39593965749E+01 -0.47130048656E+00  0.10486630275E+02  0.51100000000E-03 0. -1.
        -11    1    3    3    0    0 -0.13362489879E+02 -0.10415768669E+02  0.11725359753E+02  0.20604087807E+02  0.51100000000E-03 0.  1.
        -12    1    3    3    0    0 -0.68780623065E+01 -0.30212437658E+01  0.14911037855E+02  0.16696547694E+02  0.00000000000E+00 0.  1.
</event>
<event>
 7    1  0.4005571E-009  0.4778728E+02  0.7816164E-02  0.1312668E+00
        -11   -1    0    0    0    0  0.00000000000E+00  0.00000000000E+00  0.45593999997E+02  0.45594000000E+02  0.51100000000E-03 0.  1.
         11   -1    0    0    0    0 -0.00000000000E+00 -0.00000000000E+00 -0.45593999997E+02  0.45594000000E+02  0.51100000000E-03 0. -1.
    9900012    2    1    2    0    0 -0.10242777279E+02 -0.26894751868E+02  0.32486620316E+02  0.47787278071E+02  0.20000032036E+02 0.  0.
         12    1    1    2    0    0  0.10242777279E+02  0.26894751868E+02 -0.32486620316E+02  0.43400721929E+02  0.00000000000E+00 0. -1.
         11    1    3    3    0    0  0.10510430328E+01 -0.11742980360E+01  0.27302947045E+01  0.31524873939E+01  0.51100000000E-03 0. -1.
        -11    1    3    3    0    0  0.38221905013E+01 -0.12174862049E+02  0.90846619147E+01  0.15664210433E+02  0.51100000000E-03 0.  1.
         12    1    3    3    0    0 -0.15116010813E+02 -0.13545591784E+02  0.20671663697E+02  0.28970580244E+02  0.00000000000E+00 0. -1.
</event>
<event>
 7    1  0.4005571E-009  0.4778730E+02  0.7816164E-02  0.1312668E+00
        -11   -1    0    0    0    0  0.00000000000E+00  0.00000000000E+00  0.45593999997E+02  0.45594000000E+02  0.51100000000E-03 0.  1.
         11   -1    0    0    0    0 -0.00000000000E+00 -0.00000000000E+00 -0.45593999997E+02  0.45594000000E+02  0.51100000000E-03 0. -1.
    9900012    2    1    2    0    0 -0.13949020108E+02 -0.38683431726E+02  0.13879404529E+02  0.47787298138E+02  0.20000123528E+02 0.  0.
         12    1    1    2    0    0  0.13949020108E+02  0.38683431726E+02 -0.13879404529E+02  0.43400701862E+02  0.00000000000E+00 0. -1.
         11    1    3    3    0    0 -0.36289838050E+01 -0.19893712489E+02  0.14781929184E+02  0.25048647683E+02  0.51100000000E-03 0. -1.
        -11    1    3    3    0    0  0.72770193478E+00 -0.46090134901E+01  0.57694096794E+00  0.47016397777E+01  0.51100000000E-03 0.  1.
         12    1    3    3    0    0 -0.11047738238E+02 -0.14180705746E+02 -0.14794656229E+01  0.18037010677E+02  0.00000000000E+00 0. -1.
</event>
<event>
 7    1  0.4005571E-009  0.4778727E+02  0.7816164E-02  0.1312668E+00
        -11   -1    0    0    0    0  0.00000000000E+00  0.00000000000E+00  0.45593999997E+02  0.45594000000E+02  0.51100000000E-03 0. -1.
         11   -1    0    0    0    0 -0.00000000000E+00 -0.00000000000E+00 -0.45593999997E+02  0.45594000000E+02  0.51100000000E-03 0.  1.
    9900012    2    1    2    0    0  0.10360965620E+02 -0.22537248608E+02 -0.35613844751E+02  0.47787272802E+02  0.20000008011E+02 0.  0.
         12    1    1    2    0    0 -0.10360965620E+02  0.22537248608E+02  0.35613844751E+02  0.43400727198E+02  0.00000000000E+00 0. -1.
         11    1    3    3    0    0  0.56140270529E+01 -0.19665040671E+02 -0.14695298823E+02  0.25182988943E+02  0.51100000000E-03 0. -1.
        -11    1    3    3    0    0  0.30568433032E+01 -0.44623779220E+01 -0.18404853153E+02  0.19183214734E+02  0.51100000000E-03 0.  1.
        -12    1    3    3    0    0  0.16900952637E+01  0.15901699854E+01 -0.25136927762E+01  0.34210691247E+01  0.00000000000E+00 0.  1.
</event>
<event>
 7    1  0.4005571E-009  0.4778728E+02  0.7816164E-02  0.1312668E+00
        -11   -1    0    0    0    0  0.00000000000E+00  0.00000000000E+00  0.45593999997E+02  0.45594000000E+02  0.51100000000E-03 0. -1.
         11   -1    0    0    0    0 -0.00000000000E+00 -0.00000000000E+00 -0.45593999997E+02  0.45594000000E+02  0.51100000000E-03 0.  1.
    9900012    2    1    2    0    0 -0.22266531083E+02  0.37146169736E+02 -0.28259656314E+01  0.47787280947E+02  0.20000045150E+02 0.  0.
         12    1    1    2    0    0  0.22266531083E+02 -0.37146169736E+02  0.28259656314E+01  0.43400719053E+02  0.00000000000E+00 0. -1.
         11    1    3    3    0    0 -0.32703170023E+00  0.16401541600E+02  0.12444432976E+01  0.16451934718E+02  0.51100000000E-03 0. -1.
        -11    1    3    3    0    0 -0.10474491935E+02  0.50552242321E+01 -0.11967598839E+01  0.11691984768E+02  0.51100000000E-03 0.  1.
        -12    1    3    3    0    0 -0.11465007447E+02  0.15689403904E+02 -0.28736490450E+01  0.19643361461E+02  0.00000000000E+00 0.  1.
</event>
<event>
 7    1  0.4005571E-009  0.4778727E+02  0.7816164E-02  0.1312668E+00
        -11   -1    0    0    0    0  0.00000000000E+00  0.00000000000E+00  0.45593999997E+02  0.45594000000E+02  0.51100000000E-03 0.  1.
         11   -1    0    0    0    0 -0.00000000000E+00 -0.00000000000E+00 -0.45593999997E+02  0.45594000000E+02  0.51100000000E-03 0. -1.
    9900012    2    1    2    0    0  0.23315125569E+02  0.35867722000E+02 -0.73167302662E+01  0.47787273006E+02  0.20000008945E+02 0.  0.
         12    1    1    2    0    0 -0.23315125569E+02 -0.35867722000E+02  0.73167302662E+01  0.43400726994E+02  0.00000000000E+00 0. -1.
         11    1    3    3    0    0  0.75252174578E+00  0.29119357343E+01  0.35725225874E+01  0.46699653743E+01  0.51100000000E-03 0. -1.
        -11    1    3    3    0    0  0.13225041539E+00  0.66759824855E+01  0.60551917575E+00  0.67046913465E+01  0.51100000000E-03 0.  1.
        -12    1    3    3    0    0  0.22430353408E+02  0.26279803780E+02 -0.11494772029E+02  0.36412616286E+02  0.00000000000E+00 0.  1.
</event>
<event>
 7    1  0.4005571E-009  0.4778727E+02  0.7816164E-02  0.1312668E+00
        -11   -1    0    0    0    0  0.00000000000E+00  0.00000000000E+00  0.45593999997E+02  0.45594000000E+02  0.51100000000E-03 0.  1.
         11   -1    0    0    0    0 -0.00000000000E+00 -0.00000000000E+00 -0.45593999997E+02  0.45594000000E+02  0.51100000000E-03 0. -1.
    9900012    2    1    2    0    0  0.37155663982E+02  0.70629248488E+01  0.21288372367E+02  0.47787273377E+02  0.20000010636E+02 0.  0.
         12    1    1    2    0    0 -0.37155663982E+02 -0.70629248488E+01 -0.21288372367E+02  0.43400726623E+02  0.00000000000E+00 0. -1.
         11    1    3    3    0    0  0.23466098144E+02  0.55896138674E+01  0.13768564111E+02  0.27775437048E+02  0.51100000000E-03 0. -1.
        -11    1    3    3    0    0  0.32801065049E+01  0.42969462451E+01  0.74765287287E+01  0.92261220352E+01  0.51100000000E-03 0.  1.
         12    1    3    3    0    0  0.10409459333E+02 -0.28236352638E+01  0.43279527528E-01  0.10785714294E+02  0.00000000000E+00 0. -1.
</event>
<event>
 7    1  0.4005571E-009  0.4778727E+02  0.7816164E-02  0.1312668E+00
        -11   -1    0    0    0    0  0.00000000000E+00  0.00000000000E+00  0.45593999997E+02  0.45594000000E+02  0.51100000000E-03 0.  1.
         11   -1    0    0    0    0 -0.00000000000E+00 -0.00000000000E+00 -0.45593999997E+02  0.45594000000E+02  0.51100000000E-03 0. -1.
    9900012    2    1    2    0    0 -0.36965839138E+02 -0.15221879596E+02  0.16895107649E+02  0.47787267931E+02  0.19999985806E+02 0.  0.
         12    1    1    2    0    0  0.36965839138E+02  0.15221879596E+02 -0.16895107649E+02  0.43400732069E+02  0.00000000000E+00 0. -1.
         11    1    3    3    0    0 -0.42337317452E+01 -0.82904311802E+01  0.58072319067E+01  0.10971767238E+02  0.51100000000E-03 0. -1.
        -11    1    3    3    0    0 -0.14091715572E+01 -0.27897198004E+01  0.26881915720E+01  0.41224598520E+01  0.51100000000E-03 0.  1.
        -12    1    3    3    0    0 -0.31322935836E+02 -0.41417286149E+01  0.83996841702E+01  0.32693040841E+02  0.00000000000E+00 0.  1.
</event>
<event>
 7    1  0.4005571E-009  0.4778727E+02  0.7816164E-02  0.1312668E+00
        -11   -1    0    0    0    0  0.00000000000E+00  0.00000000000E+00  0.45593999997E+02  0.45594000000E+02  0.51100000000E-03 0. -1.
         11   -1    0    0    0    0 -0.00000000000E+00 -0.00000000000E+00 -0.45593999997E+02  0.45594000000E+02  0.51100000000E-03 0.  1.
    9900012    2    1    2    0    0 -0.37466353362E+02  0.78603681455E+00 -0.21892413311E+02  0.47787271334E+02  0.20000001320E+02 0.  0.
         12    1    1    2    0    0  0.37466353362E+02 -0.78603681455E+00  0.21892413311E+02  0.43400728666E+02  0.00000000000E+00 0. -1.
         11    1    3    3    0    0 -0.16946497086E+02  0.47647388446E+01 -0.78712963681E+01  0.19283251970E+02  0.51100000000E-03 0. -1.
        -11    1    3    3    0    0 -0.18669274426E+02 -0.27729278946E+01 -0.54388667811E+01  0.19642102964E+02  0.51100000000E-03 0.  1.
         12    1    3    3    0    0 -0.18505818498E+01 -0.12057741354E+01 -0.85822501621E+01  0.88619164007E+01  0.00000000000E+00 0. -1.
</event>
<event>
 7    1  0.4005571E-009  0.4778727E+02  0.7816164E-02  0.1312668E+00
        -11   -1    0    0    0    0  0.00000000000E+00  0.00000000000E+00  0.45593999997E+02  0.45594000000E+02  0.51100000000E-03 0. -1.
         11   -1    0    0    0    0 -0.00000000000E+00 -0.00000000000E+00 -0.45593999997E+02  0.45594000000E+02  0.51100000000E-03 0.  1.
    9900012    2    1    2    0    0  0.34189453818E+02  0.90080381624E+01 -0.25170611012E+02  0.47787272326E+02  0.20000005841E+02 0.  0.
         12    1    1    2    0    0 -0.34189453818E+02 -0.90080381624E+01  0.25170611012E+02  0.43400727674E+02  0.00000000000E+00 0. -1.
         11    1    3    3    0    0  0.26402361116E+01 -0.34677371397E+01 -0.46858932257E+01  0.63995033540E+01  0.51100000000E-03 0. -1.
        -11    1    3    3    0    0  0.86800614303E+00  0.35628360925E+01 -0.49570743497E+00  0.37004002227E+01  0.51100000000E-03 0.  1.
         12    1    3    3    0    0  0.30681211564E+02  0.89129392096E+01 -0.19989010352E+02  0.37687368749E+02  0.00000000000E+00 0. -1.
</event>
<event>
 7    1  0.4005571E-009  0.4778727E+02  0.7816164E-02  0.1312668E+00
        -11   -1    0    0    0    0  0.00000000000E+00  0.00000000000E+00  0.45593999997E+02  0.45594000000E+02  0.51100000000E-03 0.  1.
         11   -1    0    0    0    0 -0.00000000000E+00 -0.00000000000E+00 -0.45593999997E+02  0.45594000000E+02  0.51100000000E-03 0. -1.
    9900012    2    1    2    0    0 -0.38979692894E+02 -0.22333048120E+01  0.18953079629E+02  0.47787270329E+02  0.19999996740E+02 0.  0.
         12    1    1    2    0    0  0.38979692894E+02  0.22333048120E+01 -0.18953079629E+02  0.43400729671E+02  0.00000000000E+00 0. -1.
         11    1    3    3    0    0  0.14148601188E+00 -0.19399138983E+01 -0.17751843670E+01  0.26333560379E+01  0.51100000000E-03 0. -1.
        -11    1    3    3    0    0 -0.76459818505E-01  0.85358978327E+00 -0.13856231076E+00  0.86813673867E+00  0.51100000000E-03 0.  1.
        -12    1    3    3    0    0 -0.39044719088E+02 -0.11469806970E+01  0.20866826307E+02  0.44285777553E+02  0.00000000000E+00 0.  1.
</event>
<event>
 7    1  0.4005571E-009  0.4778727E+02  0.7816164E-02  0.1312668E+00
        -11   -1    0    0    0    0  0.00000000000E+00  0.00000000000E+00  0.45593999997E+02  0.45594000000E+02  0.51100000000E-03 0.  1.
         11   -1    0    0    0    0 -0.00000000000E+00 -0.00000000000E+00 -0.45593999997E+02  0.45594000000E+02  0.51100000000E-03 0. -1.
    9900012    2    1    2    0    0 -0.88381437208E+01  0.72139448117E+01  0.41874448691E+02  0.47787271465E+02  0.20000001919E+02 0.  0.
         12    1    1    2    0    0  0.88381437208E+01 -0.72139448117E+01 -0.41874448691E+02  0.43400728535E+02  0.00000000000E+00 0. -1.
         11    1    3    3    0    0 -0.50886469715E+01 -0.27440409181E+01  0.39262316358E+01  0.69885179888E+01  0.51100000000E-03 0. -1.
        -11    1    3    3    0    0  0.32995190612E+01  0.77441041320E+00  0.78220138702E+01  0.85246958169E+01  0.51100000000E-03 0.  1.
        -12    1    3    3    0    0 -0.70490158105E+01  0.91835753166E+01  0.30126203185E+02  0.32274057660E+02  0.00000000000E+00 0.  1.
</event>
<event>
 7    1  0.4005571E-009  0.4778727E+02  0.7816164E-02  0.1312668E+00
        -11   -1    0    0    0    0  0.00000000000E+00  0.00000000000E+00  0.45593999997E+02  0.45594000000E+02  0.51100000000E-03 0. -1.
         11   -1    0    0    0    0 -0.00000000000E+00 -0.00000000000E+00 -0.45593999997E+02  0.45594000000E+02  0.51100000000E-03 0.  1.
    9900012    2    1    2    0    0  0.38970255542E+02 -0.12443768412E+02 -0.14494661394E+02  0.47787269612E+02  0.19999993467E+02 0.  0.
         12    1    1    2    0    0 -0.38970255542E+02  0.12443768412E+02  0.14494661394E+02  0.43400730388E+02  0.00000000000E+00 0. -1.
         11    1    3    3    0    0  0.17692691396E+01  0.17535815737E+01  0.12171756310E+01  0.27725220291E+01  0.51100000000E-03 0. -1.
        -11    1    3    3    0    0  0.15149728507E+01 -0.50237347008E+01 -0.10088973033E+01  0.53433067582E+01  0.51100000000E-03 0.  1.
        -12    1    3    3    0    0  0.35686013552E+02 -0.91736152847E+01 -0.14702939721E+02  0.39671440824E+02  0.00000000000E+00 0.  1.
</event>
<event>
 7    1  0.4005571E-009  0.4778727E+02  0.7816164E-02  0.1312668E+00
        -11   -1    0    0    0    0  0.00000000000E+00  0.00000000000E+00  0.45593999997E+02  0.45594000000E+02  0.51100000000E-03 0.  1.
         11   -1    0    0    0    0 -0.00000000000E+00 -0.00000000000E+00 -0.45593999997E+02  0.45594000000E+02  0.51100000000E-03 0. -1.
    9900012    2    1    2    0    0  0.23209160281E+02  0.12219385881E+02  0.34578099629E+02  0.47787268598E+02  0.19999988848E+02 0.  0.
         12    1    1    2    0    0 -0.23209160281E+02 -0.12219385881E+02 -0.34578099629E+02  0.43400731402E+02  0.00000000000E+00 0. -1.
         11    1    3    3    0    0  0.38839884191E+01  0.13926626287E+01  0.56511011555E+01  0.69971293948E+01  0.51100000000E-03 0. -1.
        -11    1    3    3    0    0  0.22640062425E+02  0.10703626292E+02  0.23020674001E+02  0.34016047303E+02  0.51100000000E-03 0.  1.
         12    1    3    3    0    0 -0.33148905629E+01  0.12309696056E+00  0.59063244726E+01  0.67740919009E+01  0.00000000000E+00 0. -1.
</event>
<event>
 7    1  0.4005571E-009  0.4778727E+02  0.7816164E-02  0.1312668E+00
        -11   -1    0    0    0    0  0.00000000000E+00  0.00000000000E+00  0.45593999997E+02  0.45594000000E+02  0.51100000000E-03 0. -1.
         11   -1    0    0    0    0 -0.00000000000E+00 -0.00000000000E+00 -0.45593999997E+02  0.45594000000E+02  0.51100000000E-03 0.  1.
    9900012    2    1    2    0    0  0.98770183387E+01  0.28263244839E+02 -0.31420643897E+02  0.47787270018E+02  0.19999995320E+02 0.  0.
         12    1    1    2    0    0 -0.98770183387E+01 -0.28263244839E+02  0.31420643897E+02  0.43400729982E+02  0.00000000000E+00 0. -1.
         11    1    3    3    0    0  0.78803606094E+00  0.11721426198E+02 -0.19172668698E+02  0.22485641156E+02  0.51100000000E-03 0.  1.
        -11    1    3    3    0    0  0.36677886914E+01 -0.83874471355E+00 -0.33476540883E+01  0.50361646851E+01  0.51100000000E-03 0. -1.
         12    1    3    3    0    0  0.54211935864E+01  0.17380563355E+02 -0.89003211109E+01  0.20265464177E+02  0.00000000000E+00 0. -1.
</event>
<event>
 7    1  0.4005571E-009  0.4778727E+02  0.7816164E-02  0.1312668E+00
        -11   -1    0    0    0    0  0.00000000000E+00  0.00000000000E+00  0.45593999997E+02  0.45594000000E+02  0.51100000000E-03 0.  1.
         11   -1    0    0    0    0 -0.00000000000E+00 -0.00000000000E+00 -0.45593999997E+02  0.45594000000E+02  0.51100000000E-03 0. -1.
    9900012    2    1    2    0    0 -0.22302775973E+02  0.34984323253E+01  0.37067108069E+02  0.47787270220E+02  0.19999996242E+02 0.  0.
         12    1    1    2    0    0  0.22302775973E+02 -0.34984323253E+01 -0.37067108069E+02  0.43400729780E+02  0.00000000000E+00 0. -1.
         11    1    3    3    0    0 -0.28982436461E+01 -0.32708072884E+01  0.14899534969E+01  0.46171374502E+01  0.51100000000E-03 0. -1.
        -11    1    3    3    0    0 -0.22181453588E+01  0.77007561110E+00  0.16998771835E+02  0.17160169854E+02  0.51100000000E-03 0.  1.
        -12    1    3    3    0    0 -0.17186386968E+02  0.59991640026E+01  0.18578382737E+02  0.26009962916E+02  0.00000000000E+00 0.  1.
</event>
<event>
 7    1  0.4005571E-009  0.4778727E+02  0.7816164E-02  0.1312668E+00
        -11   -1    0    0    0    0  0.00000000000E+00  0.00000000000E+00  0.45593999997E+02  0.45594000000E+02  0.51100000000E-03 0.  1.
         11   -1    0    0    0    0 -0.00000000000E+00 -0.00000000000E+00 -0.45593999997E+02  0.45594000000E+02  0.51100000000E-03 0. -1.
    9900012    2    1    2    0    0 -0.88138315607E+01  0.41523383709E+02  0.90415003193E+01  0.47787265566E+02  0.19999975020E+02 0.  0.
         12    1    1    2    0    0  0.88138315607E+01 -0.41523383709E+02 -0.90415003193E+01  0.43400734434E+02  0.00000000000E+00 0. -1.
         11    1    3    3    0    0 -0.88489633934E+00  0.31418914432E+01  0.30780244900E+01  0.44865084859E+01  0.51100000000E-03 0. -1.
        -11    1    3    3    0    0 -0.55970460422E+01  0.38336965785E+02  0.86969233323E+01  0.39707509941E+02  0.51100000000E-03 0.  1.
         12    1    3    3    0    0 -0.23318891792E+01  0.44526481067E-01 -0.27334475030E+01  0.35932471392E+01  0.00000000000E+00 0. -1.
</event>
<event>
 7    1  0.4005571E-009  0.4778730E+02  0.7816164E-02  0.1312668E+00
        -11   -1    0    0    0    0  0.00000000000E+00  0.00000000000E+00  0.45593999997E+02  0.45594000000E+02  0.51100000000E-03 0.  1.
         11   -1    0    0    0    0 -0.00000000000E+00 -0.00000000000E+00 -0.45593999997E+02  0.45594000000E+02  0.51100000000E-03 0. -1.
    9900012    2    1    2    0    0  0.18061369014E+02 -0.21032825564E+02  0.33392035072E+02  0.47787299451E+02  0.20000129518E+02 0.  0.
         12    1    1    2    0    0 -0.18061369014E+02  0.21032825564E+02 -0.33392035072E+02  0.43400700549E+02  0.00000000000E+00 0. -1.
         11    1    3    3    0    0  0.33631626832E+00 -0.84421790477E+01  0.84611705654E+01  0.11957211351E+02  0.51100000000E-03 0. -1.
        -11    1    3    3    0    0  0.14667359024E+02 -0.13776052605E+02  0.25519181399E+02  0.32498302504E+02  0.51100000000E-03 0.  1.
         12    1    3    3    0    0  0.30576937218E+01  0.11854060893E+01 -0.58831689196E+00  0.33317855960E+01  0.00000000000E+00 0. -1.
</event>
<event>
 7    1  0.4005571E-009  0.4778727E+02  0.7816164E-02  0.1312668E+00
        -11   -1    0    0    0    0  0.00000000000E+00  0.00000000000E+00  0.45593999997E+02  0.45594000000E+02  0.51100000000E-03 0.  1.
         11   -1    0    0    0    0 -0.00000000000E+00 -0.00000000000E+00 -0.45593999997E+02  0.45594000000E+02  0.51100000000E-03 0. -1.
    9900012    2    1    2    0    0 -0.80270190121E+00 -0.42739875949E+02 -0.75021244934E+01  0.47787271914E+02  0.20000003965E+02 0.  0.
         12    1    1    2    0    0  0.80270190121E+00  0.42739875949E+02  0.75021244934E+01  0.43400728086E+02  0.00000000000E+00 0. -1.
         11    1    3    3    0    0  0.29344181900E+01 -0.34331782914E+01  0.12298176680E+01  0.46808092305E+01  0.51100000000E-03 0.  1.
        -11    1    3    3    0    0 -0.67340844722E+01 -0.70669628077E+01 -0.96525465824E+00  0.98092595959E+01  0.51100000000E-03 0. -1.
        -12    1    3    3    0    0  0.29969643810E+01 -0.32239734850E+02 -0.77666875032E+01  0.33297203088E+02  0.00000000000E+00 0.  1.
</event>
<event>
 7    1  0.4005571E-009  0.4778722E+02  0.7816164E-02  0.1312668E+00
        -11   -1    0    0    0    0  0.00000000000E+00  0.00000000000E+00  0.45593999997E+02  0.45594000000E+02  0.51100000000E-03 0. -1.
         11   -1    0    0    0    0 -0.00000000000E+00 -0.00000000000E+00 -0.45593999997E+02  0.45594000000E+02  0.51100000000E-03 0.  1.
    9900012    2    1    2    0    0 -0.10079624074E+01 -0.43350767975E+02 -0.18228155495E+01  0.47787219721E+02  0.19999765996E+02 0.  0.
         12    1    1    2    0    0  0.10079624074E+01  0.43350767975E+02  0.18228155495E+01  0.43400780279E+02  0.00000000000E+00 0. -1.
         11    1    3    3    0    0  0.47316229388E+00 -0.72097920404E+00  0.19934152050E+01  0.21719571841E+01  0.51100000000E-03 0. -1.
        -11    1    3    3    0    0  0.42941444662E+01 -0.82306608578E+01  0.35963480444E+01  0.99557608635E+01  0.51100000000E-03 0.  1.
        -12    1    3    3    0    0 -0.57752691675E+01 -0.34399127914E+02 -0.74125787990E+01  0.35659501674E+02  0.00000000000E+00 0.  1.
</event>
<event>
 7    1  0.4005571E-009  0.4778727E+02  0.7816164E-02  0.1312668E+00
        -11   -1    0    0    0    0  0.00000000000E+00  0.00000000000E+00  0.45593999997E+02  0.45594000000E+02  0.51100000000E-03 0.  1.
         11   -1    0    0    0    0 -0.00000000000E+00 -0.00000000000E+00 -0.45593999997E+02  0.45594000000E+02  0.51100000000E-03 0. -1.
    9900012    2    1    2    0    0  0.34471756140E+02 -0.37382779410E+01  0.26102615821E+02  0.47787271365E+02  0.20000001462E+02 0.  0.
         12    1    1    2    0    0 -0.34471756140E+02  0.37382779410E+01 -0.26102615821E+02  0.43400728635E+02  0.00000000000E+00 0. -1.
         11    1    3    3    0    0  0.12699497869E+02 -0.13058013786E+01  0.30309573842E+01  0.13121321058E+02  0.51100000000E-03 0. -1.
        -11    1    3    3    0    0  0.14231101028E+02 -0.22931992458E+00  0.52165022966E+01  0.15158783611E+02  0.51100000000E-03 0.  1.
         12    1    3    3    0    0  0.75411572429E+01 -0.22031566378E+01  0.17855156140E+02  0.19507166696E+02  0.00000000000E+00 0. -1.
</event>
<event>
 7    1  0.4005571E-009  0.4778727E+02  0.7816164E-02  0.1312668E+00
        -11   -1    0    0    0    0  0.00000000000E+00  0.00000000000E+00  0.45593999997E+02  0.45594000000E+02  0.51100000000E-03 0.  1.
         11   -1    0    0    0    0 -0.00000000000E+00 -0.00000000000E+00 -0.45593999997E+02  0.45594000000E+02  0.51100000000E-03 0. -1.
    9900012    2    1    2    0    0 -0.37285172186E+02  0.16420961734E+02  0.14959648301E+02  0.47787272743E+02  0.20000007743E+02 0.  0.
         12    1    1    2    0    0  0.37285172186E+02 -0.16420961734E+02 -0.14959648301E+02  0.43400727257E+02  0.00000000000E+00 0. -1.
         11    1    3    3    0    0 -0.95441519089E+01  0.10561229166E+01  0.11079541172E+02  0.14661598280E+02  0.51100000000E-03 0. -1.
        -11    1    3    3    0    0 -0.65673352861E+00  0.11430109255E+01 -0.15729439566E+01  0.20522977014E+01  0.51100000000E-03 0.  1.
        -12    1    3    3    0    0 -0.27084286748E+02  0.14221827891E+02  0.54530510858E+01  0.31073376762E+02  0.00000000000E+00 0.  1.
</event>
<event>
 7    1  0.4005571E-009  0.4778727E+02  0.7816164E-02  0.1312668E+00
        -11   -1    0    0    0    0  0.00000000000E+00  0.00000000000E+00  0.45593999997E+02  0.45594000000E+02  0.51100000000E-03 0. -1.
         11   -1    0    0    0    0 -0.00000000000E+00 -0.00000000000E+00 -0.45593999997E+02  0.45594000000E+02  0.51100000000E-03 0.  1.
    9900012    2    1    2    0    0 -0.28214794096E+02 -0.32883474267E+02 -0.24951250407E+01  0.47787272648E+02  0.20000007311E+02 0.  0.
         12    1    1    2    0    0  0.28214794096E+02  0.32883474267E+02  0.24951250407E+01  0.43400727352E+02  0.00000000000E+00 0. -1.
         11    1    3    3    0    0 -0.16583661450E+02 -0.85159830102E+01 -0.29947676890E+01  0.18881430759E+02  0.51100000000E-03 0. -1.
        -11    1    3    3    0    0 -0.10692492900E+02 -0.13710032780E+02 -0.30119414321E+01  0.17645571532E+02  0.51100000000E-03 0.  1.
         12    1    3    3    0    0 -0.93863974539E+00 -0.10657458477E+02  0.35115840804E+01  0.11260270357E+02  0.00000000000E+00 0. -1.
</event>
<event>
 7    1  0.4005571E-009  0.4778727E+02  0.7816164E-02  0.1312668E+00
        -11   -1    0    0    0    0  0.00000000000E+00  0.00000000000E+00  0.45593999997E+02  0.45594000000E+02  0.51100000000E-03 0. -1.
         11   -1    0    0    0    0 -0.00000000000E+00 -0.00000000000E+00 -0.45593999997E+02  0.45594000000E+02  0.51100000000E-03 0.  1.
    9900012    2    1    2    0    0  0.10088540608E+02 -0.29863328576E+02 -0.29833307351E+02  0.47787271058E+02  0.20000000062E+02 0.  0.
         12    1    1    2    0    0 -0.10088540608E+02  0.29863328576E+02  0.29833307351E+02  0.43400728942E+02  0.00000000000E+00 0. -1.
         11    1    3    3    0    0  0.99225927847E+00 -0.50947320003E+01 -0.77526296337E+01  0.93297448587E+01  0.51100000000E-03 0. -1.
        -11    1    3    3    0    0  0.43044879600E+00  0.23100856981E+01  0.16751705662E+00  0.23558107572E+01  0.51100000000E-03 0.  1.
        -12    1    3    3    0    0  0.86658325336E+01 -0.27078682273E+02 -0.22248194774E+02  0.36101715442E+02  0.00000000000E+00 0.  1.
</event>
<event>
 7    1  0.4005571E-009  0.4778727E+02  0.7816164E-02  0.1312668E+00
        -11   -1    0    0    0    0  0.00000000000E+00  0.00000000000E+00  0.45593999997E+02  0.45594000000E+02  0.51100000000E-03 0. -1.
         11   -1    0    0    0    0 -0.00000000000E+00 -0.00000000000E+00 -0.45593999997E+02  0.45594000000E+02  0.51100000000E-03 0.  1.
    9900012    2    1    2    0    0 -0.11760193805E+02 -0.25284712416E+02 -0.33256639969E+02  0.47787274864E+02  0.20000017414E+02 0.  0.
         12    1    1    2    0    0  0.11760193805E+02  0.25284712416E+02  0.33256639969E+02  0.43400725136E+02  0.00000000000E+00 0. -1.
         11    1    3    3    0    0 -0.35459228876E+01 -0.63800788186E+01 -0.22477389553E+01  0.76374934061E+01  0.51100000000E-03 0. -1.
        -11    1    3    3    0    0 -0.10635700201E+02 -0.81522731231E+01 -0.11130180735E+02  0.17420063125E+02  0.51100000000E-03 0.  1.
         12    1    3    3    0    0  0.24214292832E+01 -0.10752360475E+02 -0.19878720279E+02  0.22729718332E+02  0.00000000000E+00 0. -1.
</event>
<event>
 7    1  0.4005571E-009  0.4778727E+02  0.7816164E-02  0.1312668E+00
        -11   -1    0    0    0    0  0.00000000000E+00  0.00000000000E+00  0.45593999997E+02  0.45594000000E+02  0.51100000000E-03 0.  1.
         11   -1    0    0    0    0 -0.00000000000E+00 -0.00000000000E+00 -0.45593999997E+02  0.45594000000E+02  0.51100000000E-03 0. -1.
    9900012    2    1    2    0    0  0.17733159644E+02 -0.89083783404E+01  0.38597917822E+02  0.47787269410E+02  0.19999992546E+02 0.  0.
         12    1    1    2    0    0 -0.17733159644E+02  0.89083783404E+01 -0.38597917822E+02  0.43400730590E+02  0.00000000000E+00 0. -1.
         11    1    3    3    0    0  0.18995816422E+01  0.35435982203E+01  0.88327090159E+01  0.97047538651E+01  0.51100000000E-03 0. -1.
        -11    1    3    3    0    0  0.64183118913E+01  0.18027081236E+01  0.80024327578E+01  0.10415537164E+02  0.51100000000E-03 0.  1.
        -12    1    3    3    0    0  0.94152661108E+01 -0.14254684684E+02  0.21762776048E+02  0.27666978380E+02  0.00000000000E+00 0.  1.
</event>
<event>
 7    1  0.4005571E-009  0.4778727E+02  0.7816164E-02  0.1312668E+00
        -11   -1    0    0    0    0  0.00000000000E+00  0.00000000000E+00  0.45593999997E+02  0.45594000000E+02  0.51100000000E-03 0.  1.
         11   -1    0    0    0    0 -0.00000000000E+00 -0.00000000000E+00 -0.45593999997E+02  0.45594000000E+02  0.51100000000E-03 0. -1.
    9900012    2    1    2    0    0 -0.31768497691E+02  0.29554977145E+02 -0.94286790906E+00  0.47787272823E+02  0.20000008109E+02 0.  0.
         12    1    1    2    0    0  0.31768497691E+02 -0.29554977145E+02  0.94286790906E+00  0.43400727177E+02  0.00000000000E+00 0. -1.
         11    1    3    3    0    0 -0.13288640108E+02  0.20695891188E+02  0.26929600069E+01  0.24741865368E+02  0.51100000000E-03 0. -1.
        -11    1    3    3    0    0 -0.14745399567E+01  0.48427376542E+01 -0.21799793397E+01  0.55116863349E+01  0.51100000000E-03 0.  1.
        -12    1    3    3    0    0 -0.17005317626E+02  0.40163483025E+01 -0.14558485763E+01  0.17533721121E+02  0.00000000000E+00 0.  1.
</event>
<event>
 7    1  0.4005571E-009  0.4778727E+02  0.7816164E-02  0.1312668E+00
        -11   -1    0    0    0    0  0.00000000000E+00  0.00000000000E+00  0.45593999997E+02  0.45594000000E+02  0.51100000000E-03 0.  1.
         11   -1    0    0    0    0 -0.00000000000E+00 -0.00000000000E+00 -0.45593999997E+02  0.45594000000E+02  0.51100000000E-03 0. -1.
    9900012    2    1    2    0    0 -0.22118613311E+02  0.29165354868E+01  0.37227464067E+02  0.47787270572E+02  0.19999997846E+02 0.  0.
         12    1    1    2    0    0  0.22118613311E+02 -0.29165354868E+01 -0.37227464067E+02  0.43400729428E+02  0.00000000000E+00 0. -1.
         11    1    3    3    0    0 -0.48554617441E+00  0.28478478363E+01  0.28962927875E+01  0.40907828784E+01  0.51100000000E-03 0.  1.
        -11    1    3    3    0    0 -0.20285491003E+02  0.58369514384E+01  0.26720238362E+02  0.34052052592E+02  0.51100000000E-03 0. -1.
         12    1    3    3    0    0 -0.13475761335E+01 -0.57682637878E+01  0.76109329169E+01  0.96444351015E+01  0.00000000000E+00 0. -1.
</event>
<event>
 7    1  0.4005571E-009  0.4778730E+02  0.7816164E-02  0.1312668E+00
        -11   -1    0    0    0    0  0.00000000000E+00  0.00000000000E+00  0.45593999997E+02  0.45594000000E+02  0.51100000000E-03 0. -1.
         11   -1    0    0    0    0 -0.00000000000E+00 -0.00000000000E+00 -0.45593999997E+02  0.45594000000E+02  0.51100000000E-03 0.  1.
    9900012    2    1    2    0    0 -0.21442898493E+02  0.28344050319E+02 -0.24908593726E+02  0.47787295793E+02  0.20000112838E+02 0.  0.
         12    1    1    2    0    0  0.21442898493E+02 -0.28344050319E+02  0.24908593726E+02  0.43400704207E+02  0.00000000000E+00 0. -1.
         11    1    3    3    0    0 -0.10819376649E+02  0.64590531262E+01 -0.14742897689E+02  0.19394105055E+02  0.51100000000E-03 0. -1.
        -11    1    3    3    0    0 -0.43191847598E+01  0.82720881351E+01 -0.95889580150E+01  0.13380243465E+02  0.51100000000E-03 0.  1.
        -12    1    3    3    0    0 -0.63043370841E+01  0.13612909058E+02 -0.57673802230E+00  0.15012947273E+02  0.00000000000E+00 0.  1.
</event>
<event>
 7    1  0.4005571E-009  0.4778730E+02  0.7816164E-02  0.1312668E+00
        -11   -1    0    0    0    0  0.00000000000E+00  0.00000000000E+00  0.45593999997E+02  0.45594000000E+02  0.51100000000E-03 0.  1.
         11   -1    0    0    0    0 -0.00000000000E+00 -0.00000000000E+00 -0.45593999997E+02  0.45594000000E+02  0.51100000000E-03 0. -1.
    9900012    2    1    2    0    0 -0.17885485538E+01 -0.20182138227E+02  0.38381031442E+02  0.47787295122E+02  0.20000109781E+02 0.  0.
         12    1    1    2    0    0  0.17885485538E+01  0.20182138227E+02 -0.38381031442E+02  0.43400704878E+02  0.00000000000E+00 0. -1.
         11    1    3    3    0    0  0.56337846530E+01 -0.93085084001E+01  0.16229231484E+02  0.19539084241E+02  0.51100000000E-03 0. -1.
        -11    1    3    3    0    0 -0.12115889066E+00  0.16445762681E+01  0.73523851924E+01  0.75350433879E+01  0.51100000000E-03 0.  1.
        -12    1    3    3    0    0 -0.73011743162E+01 -0.12518206095E+02  0.14799414765E+02  0.20713167493E+02  0.00000000000E+00 0.  1.
</event>
<event>
 7    1  0.4005571E-009  0.4778727E+02  0.7816164E-02  0.1312668E+00
        -11   -1    0    0    0    0  0.00000000000E+00  0.00000000000E+00  0.45593999997E+02  0.45594000000E+02  0.51100000000E-03 0.  1.
         11   -1    0    0    0    0 -0.00000000000E+00 -0.00000000000E+00 -0.45593999997E+02  0.45594000000E+02  0.51100000000E-03 0. -1.
    9900012    2    1    2    0    0  0.12964696446E+01 -0.43235836000E+02  0.35503307767E+01  0.47787271932E+02  0.20000004048E+02 0.  0.
         12    1    1    2    0    0 -0.12964696446E+01  0.43235836000E+02 -0.35503307767E+01  0.43400728068E+02  0.00000000000E+00 0. -1.
         11    1    3    3    0    0  0.46880783742E+01 -0.27855377547E+01  0.79725615511E+00  0.55111629502E+01  0.51100000000E-03 0. -1.
        -11    1    3    3    0    0  0.15955576187E-01 -0.27264920775E+02 -0.31244030607E+01  0.27443360840E+02  0.51100000000E-03 0.  1.
        -12    1    3    3    0    0 -0.34075643058E+01 -0.13185377471E+02  0.58774776822E+01  0.14832748142E+02  0.00000000000E+00 0.  1.
</event>
<event>
 7    1  0.4005571E-009  0.4778727E+02  0.7816164E-02  0.1312668E+00
        -11   -1    0    0    0    0  0.00000000000E+00  0.00000000000E+00  0.45593999997E+02  0.45594000000E+02  0.51100000000E-03 0.  1.
         11   -1    0    0    0    0 -0.00000000000E+00 -0.00000000000E+00 -0.45593999997E+02  0.45594000000E+02  0.51100000000E-03 0. -1.
    9900012    2    1    2    0    0 -0.19731340554E+02 -0.11232588632E+02  0.36988194234E+02  0.47787270051E+02  0.19999995469E+02 0.  0.
         12    1    1    2    0    0  0.19731340554E+02  0.11232588632E+02 -0.36988194234E+02  0.43400729949E+02  0.00000000000E+00 0. -1.
         11    1    3    3    0    0 -0.58032246789E+01 -0.75562576237E+01  0.14440862195E+02  0.17300663199E+02  0.51100000000E-03 0. -1.
        -11    1    3    3    0    0 -0.56707416893E+01 -0.57656412760E+01  0.20035991715E+02  0.21606501218E+02  0.51100000000E-03 0.  1.
        -12    1    3    3    0    0 -0.82573741854E+01  0.20893102677E+01  0.25113403247E+01  0.88801056333E+01  0.00000000000E+00 0.  1.
</event>
<event>
 7    1  0.4005571E-009  0.4778728E+02  0.7816164E-02  0.1312668E+00
        -11   -1    0    0    0    0  0.00000000000E+00  0.00000000000E+00  0.45593999997E+02  0.45594000000E+02  0.51100000000E-03 0.  1.
         11   -1    0    0    0    0 -0.00000000000E+00 -0.00000000000E+00 -0.45593999997E+02  0.45594000000E+02  0.51100000000E-03 0. -1.
    9900012    2    1    2    0    0 -0.42970304313E+02  0.33577432645E+01 -0.50893197685E+01  0.47787278021E+02  0.20000031811E+02 0.  0.
         12    1    1    2    0    0  0.42970304313E+02 -0.33577432645E+01  0.50893197685E+01  0.43400721979E+02  0.00000000000E+00 0. -1.
         11    1    3    3    0    0 -0.19418697226E+00  0.37134749479E+01  0.61080456568E-01  0.37190503966E+01  0.51100000000E-03 0. -1.
        -11    1    3    3    0    0 -0.71706985924E+01  0.29958396875E+01 -0.26788548411E+01  0.82201117545E+01  0.51100000000E-03 0.  1.
        -12    1    3    3    0    0 -0.35605418748E+02 -0.33515713709E+01 -0.24715453839E+01  0.35848115870E+02  0.00000000000E+00 0.  1.
</event>
<event>
 7    1  0.4005571E-009  0.4778727E+02  0.7816164E-02  0.1312668E+00
        -11   -1    0    0    0    0  0.00000000000E+00  0.00000000000E+00  0.45593999997E+02  0.45594000000E+02  0.51100000000E-03 0.  1.
         11   -1    0    0    0    0 -0.00000000000E+00 -0.00000000000E+00 -0.45593999997E+02  0.45594000000E+02  0.51100000000E-03 0. -1.
    9900012    2    1    2    0    0  0.34850822068E+02  0.51750959263E+01  0.25342882371E+02  0.47787273007E+02  0.20000008946E+02 0.  0.
         12    1    1    2    0    0 -0.34850822068E+02 -0.51750959263E+01 -0.25342882371E+02  0.43400726993E+02  0.00000000000E+00 0. -1.
         11    1    3    3    0    0  0.21260114805E+02  0.16266260479E+01  0.42612085970E+01  0.21743879433E+02  0.51100000000E-03 0. -1.
        -11    1    3    3    0    0  0.31868651285E+01  0.28488176558E+01  0.31853322594E+01  0.53308735913E+01  0.51100000000E-03 0.  1.
        -12    1    3    3    0    0  0.10403842135E+02  0.69965222258E+00  0.17896341515E+02  0.20712519982E+02  0.00000000000E+00 0.  1.
</event>
<event>
 7    1  0.4005571E-009  0.4778729E+02  0.7816164E-02  0.1312668E+00
        -11   -1    0    0    0    0  0.00000000000E+00  0.00000000000E+00  0.45593999997E+02  0.45594000000E+02  0.51100000000E-03 0.  1.
         11   -1    0    0    0    0 -0.00000000000E+00 -0.00000000000E+00 -0.45593999997E+02  0.45594000000E+02  0.51100000000E-03 0. -1.
    9900012    2    1    2    0    0 -0.10102811171E+02  0.21636565185E+02  0.36241055350E+02  0.47787287570E+02  0.20000075347E+02 0.  0.
         12    1    1    2    0    0  0.10102811171E+02 -0.21636565185E+02 -0.36241055350E+02  0.43400712430E+02  0.00000000000E+00 0. -1.
         11    1    3    3    0    0 -0.46292124222E+00 -0.21992182503E+01  0.83004644087E+01  0.85993352447E+01  0.51100000000E-03 0. -1.
        -11    1    3    3    0    0  0.16410042849E+01  0.82601392443E+00  0.15671728014E+01  0.24147929346E+01  0.51100000000E-03 0.  1.
        -12    1    3    3    0    0 -0.11280894214E+02  0.23009769511E+02  0.26373418140E+02  0.36773159391E+02  0.00000000000E+00 0.  1.
</event>
<event>
 7    1  0.4005571E-009  0.4778727E+02  0.7816164E-02  0.1312668E+00
        -11   -1    0    0    0    0  0.00000000000E+00  0.00000000000E+00  0.45593999997E+02  0.45594000000E+02  0.51100000000E-03 0. -1.
         11   -1    0    0    0    0 -0.00000000000E+00 -0.00000000000E+00 -0.45593999997E+02  0.45594000000E+02  0.51100000000E-03 0.  1.
    9900012    2    1    2    0    0  0.13659074426E+02  0.34352479610E+01 -0.41051826939E+02  0.47787265700E+02  0.19999975634E+02 0.  0.
         12    1    1    2    0    0 -0.13659074426E+02 -0.34352479610E+01  0.41051826939E+02  0.43400734300E+02  0.00000000000E+00 0. -1.
         11    1    3    3    0    0 -0.91516419180E+00  0.99529996368E+00 -0.10971215637E+01  0.17412132272E+01  0.51100000000E-03 0. -1.
        -11    1    3    3    0    0 -0.35882193849E+01 -0.72216437068E+00 -0.29413468498E+01  0.46955682600E+01  0.51100000000E-03 0.  1.
        -12    1    3    3    0    0  0.18162458003E+02  0.31621123680E+01 -0.37013358525E+02  0.41350484213E+02  0.00000000000E+00 0.  1.
</event>
<event>
 7    1  0.4005571E-009  0.4778727E+02  0.7816164E-02  0.1312668E+00
        -11   -1    0    0    0    0  0.00000000000E+00  0.00000000000E+00  0.45593999997E+02  0.45594000000E+02  0.51100000000E-03 0. -1.
         11   -1    0    0    0    0 -0.00000000000E+00 -0.00000000000E+00 -0.45593999997E+02  0.45594000000E+02  0.51100000000E-03 0.  1.
    9900012    2    1    2    0    0 -0.42258178937E+02  0.54734771170E+01 -0.82407879476E+01  0.47787271609E+02  0.20000002575E+02 0.  0.
         12    1    1    2    0    0  0.42258178937E+02 -0.54734771170E+01  0.82407879476E+01  0.43400728391E+02  0.00000000000E+00 0. -1.
         11    1    3    3    0    0 -0.16845562028E+01  0.14258855656E+01 -0.65119436360E+01  0.68757755508E+01  0.51100000000E-03 0. -1.
        -11    1    3    3    0    0 -0.99935382905E+01  0.14099532234E+01  0.73434629350E+00  0.10119191687E+02  0.51100000000E-03 0.  1.
        -12    1    3    3    0    0 -0.30580084444E+02  0.26376383280E+01 -0.24631906052E+01  0.30792304372E+02  0.00000000000E+00 0.  1.
</event>
<event>
 7    1  0.4005571E-009  0.4778730E+02  0.7816164E-02  0.1312668E+00
        -11   -1    0    0    0    0  0.00000000000E+00  0.00000000000E+00  0.45593999997E+02  0.45594000000E+02  0.51100000000E-03 0.  1.
         11   -1    0    0    0    0 -0.00000000000E+00 -0.00000000000E+00 -0.45593999997E+02  0.45594000000E+02  0.51100000000E-03 0. -1.
    9900012    2    1    2    0    0  0.19670980027E+02 -0.84045537269E+01  0.37762902029E+02  0.47787300141E+02  0.20000132664E+02 0.  0.
         12    1    1    2    0    0 -0.19670980027E+02  0.84045537269E+01 -0.37762902029E+02  0.43400699859E+02  0.00000000000E+00 0. -1.
         11    1    3    3    0    0  0.11093398145E+02 -0.48026701049E+01  0.87227461192E+01  0.14906891784E+02  0.51100000000E-03 0. -1.
        -11    1    3    3    0    0  0.10685923211E+01  0.38340197045E+01  0.37388533867E+01  0.54608260869E+01  0.51100000000E-03 0.  1.
        -12    1    3    3    0    0  0.75089895609E+01 -0.74359033266E+01  0.25301302523E+02  0.27419582270E+02  0.00000000000E+00 0.  1.
</event>
<event>
 7    1  0.4005571E-009  0.4778727E+02  0.7816164E-02  0.1312668E+00
        -11   -1    0    0    0    0  0.00000000000E+00  0.00000000000E+00  0.45593999997E+02  0.45594000000E+02  0.51100000000E-03 0. -1.
         11   -1    0    0    0    0 -0.00000000000E+00 -0.00000000000E+00 -0.45593999997E+02  0.45594000000E+02  0.51100000000E-03 0.  1.
    9900012    2    1    2    0    0  0.40944698060E+01 -0.24576897772E+02 -0.35536386740E+02  0.47787269942E+02  0.19999994972E+02 0.  0.
         12    1    1    2    0    0 -0.40944698060E+01  0.24576897772E+02  0.35536386740E+02  0.43400730058E+02  0.00000000000E+00 0. -1.
         11    1    3    3    0    0 -0.30568255522E+01 -0.72344747280E+01 -0.78450079254E+01  0.11100718745E+02  0.51100000000E-03 0. -1.
        -11    1    3    3    0    0  0.24038328803E+01 -0.18451226784E+02 -0.18262810261E+02  0.26072138793E+02  0.51100000000E-03 0.  1.
         12    1    3    3    0    0  0.47474624779E+01  0.11088037400E+01 -0.94285685538E+01  0.10614412404E+02  0.00000000000E+00 0. -1.
</event>
<event>
 7    1  0.4005571E-009  0.4778726E+02  0.7816164E-02  0.1312668E+00
        -11   -1    0    0    0    0  0.00000000000E+00  0.00000000000E+00  0.45593999997E+02  0.45594000000E+02  0.51100000000E-03 0.  1.
         11   -1    0    0    0    0 -0.00000000000E+00 -0.00000000000E+00 -0.45593999997E+02  0.45594000000E+02  0.51100000000E-03 0. -1.
    9900012    2    1    2    0    0 -0.24987235124E+02  0.20926133398E+02  0.28659359692E+02  0.47787264107E+02  0.19999968368E+02 0.  0.
         12    1    1    2    0    0  0.24987235124E+02 -0.20926133398E+02 -0.28659359692E+02  0.43400735893E+02  0.00000000000E+00 0. -1.
         11    1    3    3    0    0 -0.27468559453E+01 -0.86000982038E+00  0.69144882771E+01  0.74896583948E+01  0.51100000000E-03 0. -1.
        -11    1    3    3    0    0 -0.55491600814E+01  0.12884273005E+02  0.14113967141E+02  0.19899792391E+02  0.51100000000E-03 0.  1.
         12    1    3    3    0    0 -0.16691219097E+02  0.89018702130E+01  0.76309042736E+01  0.20397813321E+02  0.00000000000E+00 0. -1.
</event>
<event>
 7    1  0.4005571E-009  0.4778727E+02  0.7816164E-02  0.1312668E+00
        -11   -1    0    0    0    0  0.00000000000E+00  0.00000000000E+00  0.45593999997E+02  0.45594000000E+02  0.51100000000E-03 0.  1.
         11   -1    0    0    0    0 -0.00000000000E+00 -0.00000000000E+00 -0.45593999997E+02  0.45594000000E+02  0.51100000000E-03 0. -1.
    9900012    2    1    2    0    0 -0.22993665699E+02 -0.25304135210E+02  0.26732296195E+02  0.47787267508E+02  0.19999983875E+02 0.  0.
         12    1    1    2    0    0  0.22993665699E+02  0.25304135210E+02 -0.26732296195E+02  0.43400732492E+02  0.00000000000E+00 0. -1.
         11    1    3    3    0    0 -0.20154625817E+02 -0.23286043621E+02  0.16020256557E+02  0.34714512668E+02  0.51100000000E-03 0. -1.
        -11    1    3    3    0    0 -0.34430696975E+01 -0.39547668069E+01  0.61627142352E+01  0.80915978920E+01  0.51100000000E-03 0.  1.
         12    1    3    3    0    0  0.60402981611E+00  0.19366752178E+01  0.45493254034E+01  0.49811569483E+01  0.00000000000E+00 0. -1.
</event>
<event>
 7    1  0.4005571E-009  0.4778727E+02  0.7816164E-02  0.1312668E+00
        -11   -1    0    0    0    0  0.00000000000E+00  0.00000000000E+00  0.45593999997E+02  0.45594000000E+02  0.51100000000E-03 0.  1.
         11   -1    0    0    0    0 -0.00000000000E+00 -0.00000000000E+00 -0.45593999997E+02  0.45594000000E+02  0.51100000000E-03 0. -1.
    9900012    2    1    2    0    0  0.51836211039E+01  0.30231096821E+02  0.30705603908E+02  0.47787271272E+02  0.20000001038E+02 0.  0.
         12    1    1    2    0    0 -0.51836211039E+01 -0.30231096821E+02 -0.30705603908E+02  0.43400728728E+02  0.00000000000E+00 0. -1.
         11    1    3    3    0    0 -0.23852345481E+01  0.44483746118E+00  0.71804588349E+01  0.75793280413E+01  0.51100000000E-03 0. -1.
        -11    1    3    3    0    0  0.48961370875E+00  0.16470930992E+02  0.17304318508E+02  0.23894993798E+02  0.51100000000E-03 0.  1.
        -12    1    3    3    0    0  0.70792419433E+01  0.13315328368E+02  0.62208265652E+01  0.16312949433E+02  0.00000000000E+00 0.  1.
</event>
<event>
 7    1  0.4005571E-009  0.4778727E+02  0.7816164E-02  0.1312668E+00
        -11   -1    0    0    0    0  0.00000000000E+00  0.00000000000E+00  0.45593999997E+02  0.45594000000E+02  0.51100000000E-03 0.  1.
         11   -1    0    0    0    0 -0.00000000000E+00 -0.00000000000E+00 -0.45593999997E+02  0.45594000000E+02  0.51100000000E-03 0. -1.
    9900012    2    1    2    0    0  0.20691461609E+02  0.25637962149E+02  0.28252109229E+02  0.47787270023E+02  0.19999995341E+02 0.  0.
         12    1    1    2    0    0 -0.20691461609E+02 -0.25637962149E+02 -0.28252109229E+02  0.43400729977E+02  0.00000000000E+00 0. -1.
         11    1    3    3    0    0  0.74804260998E+01  0.95449788602E+01  0.11497882790E+02  0.16711214947E+02  0.51100000000E-03 0. -1.
        -11    1    3    3    0    0  0.16593997637E+02  0.15542329730E+02  0.14274340664E+02  0.26845513083E+02  0.51100000000E-03 0.  1.
         12    1    3    3    0    0 -0.33829621278E+01  0.55065355908E+00  0.24798857747E+01  0.42305419931E+01  0.00000000000E+00 0. -1.
</event>
<event>
 7    1  0.4005571E-009  0.4778727E+02  0.7816164E-02  0.1312668E+00
        -11   -1    0    0    0    0  0.00000000000E+00  0.00000000000E+00  0.45593999997E+02  0.45594000000E+02  0.51100000000E-03 0.  1.
         11   -1    0    0    0    0 -0.00000000000E+00 -0.00000000000E+00 -0.45593999997E+02  0.45594000000E+02  0.51100000000E-03 0. -1.
    9900012    2    1    2    0    0  0.16809260633E+02 -0.34849984003E+02  0.19660886072E+02  0.47787273403E+02  0.20000010753E+02 0.  0.
         12    1    1    2    0    0 -0.16809260633E+02  0.34849984003E+02 -0.19660886072E+02  0.43400726597E+02  0.00000000000E+00 0. -1.
         11    1    3    3    0    0  0.76525912342E+01 -0.71416293487E+01  0.74130823783E+01  0.12826488723E+02  0.51100000000E-03 0. -1.
        -11    1    3    3    0    0  0.11604212024E+02 -0.23367384945E+02  0.56541055939E+01  0.26695717376E+02  0.51100000000E-03 0.  1.
        -12    1    3    3    0    0 -0.24475426247E+01 -0.43409697089E+01  0.65936980995E+01  0.82650673041E+01  0.00000000000E+00 0.  1.
</event>
<event>
 7    1  0.4005571E-009  0.4778726E+02  0.7816164E-02  0.1312668E+00
        -11   -1    0    0    0    0  0.00000000000E+00  0.00000000000E+00  0.45593999997E+02  0.45594000000E+02  0.51100000000E-03 0.  1.
         11   -1    0    0    0    0 -0.00000000000E+00 -0.00000000000E+00 -0.45593999997E+02  0.45594000000E+02  0.51100000000E-03 0. -1.
    9900012    2    1    2    0    0  0.54385998372E+01  0.10681962335E+02  0.41712605684E+02  0.47787260830E+02  0.19999953428E+02 0.  0.
         12    1    1    2    0    0 -0.54385998372E+01 -0.10681962335E+02 -0.41712605684E+02  0.43400739170E+02  0.00000000000E+00 0. -1.
         11    1    3    3    0    0  0.22321498013E+01  0.10966172424E+02  0.31892429316E+02  0.33798912383E+02  0.51100000000E-03 0. -1.
        -11    1    3    3    0    0  0.58243803237E+01  0.15267637986E+01  0.87666963264E+01  0.10635289305E+02  0.51100000000E-03 0.  1.
         12    1    3    3    0    0 -0.26179302878E+01 -0.18109738872E+01  0.10534800423E+01  0.33530591423E+01  0.00000000000E+00 0. -1.
</event>
<event>
 7    1  0.4005571E-009  0.4778727E+02  0.7816164E-02  0.1312668E+00
        -11   -1    0    0    0    0  0.00000000000E+00  0.00000000000E+00  0.45593999997E+02  0.45594000000E+02  0.51100000000E-03 0.  1.
         11   -1    0    0    0    0 -0.00000000000E+00 -0.00000000000E+00 -0.45593999997E+02  0.45594000000E+02  0.51100000000E-03 0. -1.
    9900012    2    1    2    0    0  0.28907256380E+02  0.30935799925E+02 -0.95378183144E+01  0.47787272280E+02  0.20000005635E+02 0.  0.
         12    1    1    2    0    0 -0.28907256380E+02 -0.30935799925E+02  0.95378183144E+01  0.43400727720E+02  0.00000000000E+00 0. -1.
         11    1    3    3    0    0  0.10820209526E+02  0.24651007379E+01 -0.15088819806E+01  0.11199570568E+02  0.51100000000E-03 0.  1.
        -11    1    3    3    0    0  0.43524791496E+01  0.15798495726E+01  0.15925467027E+01  0.48965502837E+01  0.51100000000E-03 0. -1.
        -12    1    3    3    0    0  0.13734567704E+02  0.26890849615E+02 -0.96214830365E+01  0.31691151428E+02  0.00000000000E+00 0.  1.
</event>
<event>
 7    1  0.4005571E-009  0.4778727E+02  0.7816164E-02  0.1312668E+00
        -11   -1    0    0    0    0  0.00000000000E+00  0.00000000000E+00  0.45593999997E+02  0.45594000000E+02  0.51100000000E-03 0.  1.
         11   -1    0    0    0    0 -0.00000000000E+00 -0.00000000000E+00 -0.45593999997E+02  0.45594000000E+02  0.51100000000E-03 0. -1.
    9900012    2    1    2    0    0 -0.21683332932E+02 -0.28126439437E+02  0.24947137284E+02  0.47787272113E+02  0.20000004871E+02 0.  0.
         12    1    1    2    0    0  0.21683332932E+02  0.28126439437E+02 -0.24947137284E+02  0.43400727887E+02  0.00000000000E+00 0. -1.
         11    1    3    3    0    0  0.19552264694E+01 -0.69164502518E+01  0.37159530521E+00  0.71971020532E+01  0.51100000000E-03 0. -1.
        -11    1    3    3    0    0 -0.48530936431E+01 -0.73111747782E+01  0.85726208247E+01  0.12267665736E+02  0.51100000000E-03 0.  1.
         12    1    3    3    0    0 -0.18785465758E+02 -0.13898814407E+02  0.16002921155E+02  0.28322504324E+02  0.00000000000E+00 0. -1.
</event>
<event>
 7    1  0.4005571E-009  0.4778727E+02  0.7816164E-02  0.1312668E+00
        -11   -1    0    0    0    0  0.00000000000E+00  0.00000000000E+00  0.45593999997E+02  0.45594000000E+02  0.51100000000E-03 0.  1.
         11   -1    0    0    0    0 -0.00000000000E+00 -0.00000000000E+00 -0.45593999997E+02  0.45594000000E+02  0.51100000000E-03 0. -1.
    9900012    2    1    2    0    0 -0.88322309806E+01  0.24884149058E+02  0.34444072011E+02  0.47787271030E+02  0.19999999932E+02 0.  0.
         12    1    1    2    0    0  0.88322309806E+01 -0.24884149058E+02 -0.34444072011E+02  0.43400728970E+02  0.00000000000E+00 0. -1.
         11    1    3    3    0    0 -0.62251281446E+00 -0.14025430302E+01  0.26108932469E+01  0.30284340778E+01  0.51100000000E-03 0. -1.
        -11    1    3    3    0    0  0.13467018695E+01 -0.14130145286E+01  0.34514696238E+01  0.39652060235E+01  0.51100000000E-03 0.  1.
        -12    1    3    3    0    0 -0.95564200356E+01  0.27699706617E+02  0.28381709140E+02  0.40793630928E+02  0.00000000000E+00 0.  1.
</event>
<event>
 7    1  0.4005571E-009  0.4778732E+02  0.7816164E-02  0.1312668E+00
        -11   -1    0    0    0    0  0.00000000000E+00  0.00000000000E+00  0.45593999997E+02  0.45594000000E+02  0.51100000000E-03 0.  1.
         11   -1    0    0    0    0 -0.00000000000E+00 -0.00000000000E+00 -0.45593999997E+02  0.45594000000E+02  0.51100000000E-03 0. -1.
    9900012    2    1    2    0    0  0.17376270503E+02  0.25647468475E+02  0.30395587422E+02  0.47787318548E+02  0.20000216587E+02 0.  0.
         12    1    1    2    0    0 -0.17376270503E+02 -0.25647468475E+02 -0.30395587422E+02  0.43400681452E+02  0.00000000000E+00 0. -1.
         11    1    3    3    0    0  0.87474022118E+01  0.61050460811E+01  0.40903504116E+01  0.11424517489E+02  0.51100000000E-03 0. -1.
        -11    1    3    3    0    0  0.86777627155E+01  0.12844858105E+02  0.92785529056E+01  0.18066142083E+02  0.51100000000E-03 0.  1.
        -12    1    3    3    0    0 -0.48894424295E-01  0.66975642886E+01  0.17026684105E+02  0.18296658976E+02  0.00000000000E+00 0.  1.
</event>
<event>
 7    1  0.4005571E-009  0.4778727E+02  0.7816164E-02  0.1312668E+00
        -11   -1    0    0    0    0  0.00000000000E+00  0.00000000000E+00  0.45593999997E+02  0.45594000000E+02  0.51100000000E-03 0.  1.
         11   -1    0    0    0    0 -0.00000000000E+00 -0.00000000000E+00 -0.45593999997E+02  0.45594000000E+02  0.51100000000E-03 0. -1.
    9900012    2    1    2    0    0 -0.30232132839E+02  0.19908674221E+02  0.23943400385E+02  0.47787267435E+02  0.19999983541E+02 0.  0.
         12    1    1    2    0    0  0.30232132839E+02 -0.19908674221E+02 -0.23943400385E+02  0.43400732565E+02  0.00000000000E+00 0. -1.
         11    1    3    3    0    0 -0.15255756530E+02  0.17047141914E+01  0.16005742068E+02  0.22177194079E+02  0.51100000000E-03 0. -1.
        -11    1    3    3    0    0  0.29936919182E+00  0.17515942820E+01 -0.58644533367E-01  0.17779605970E+01  0.51100000000E-03 0.  1.
         12    1    3    3    0    0 -0.15275745501E+02  0.16452365748E+02  0.79963028496E+01  0.23832112759E+02  0.00000000000E+00 0. -1.
</event>
<event>
 7    1  0.4005571E-009  0.4778727E+02  0.7816164E-02  0.1312668E+00
        -11   -1    0    0    0    0  0.00000000000E+00  0.00000000000E+00  0.45593999997E+02  0.45594000000E+02  0.51100000000E-03 0.  1.
         11   -1    0    0    0    0 -0.00000000000E+00 -0.00000000000E+00 -0.45593999997E+02  0.45594000000E+02  0.51100000000E-03 0. -1.
    9900012    2    1    2    0    0  0.53730376552E+01  0.18620416536E+02  0.38833407155E+02  0.47787274696E+02  0.20000016649E+02 0.  0.
         12    1    1    2    0    0 -0.53730376552E+01 -0.18620416536E+02 -0.38833407155E+02  0.43400725304E+02  0.00000000000E+00 0. -1.
         11    1    3    3    0    0  0.63046839191E+01  0.57915880802E+01  0.30540847383E+02  0.31718053076E+02  0.51100000000E-03 0. -1.
        -11    1    3    3    0    0  0.67687642369E+00  0.51851051009E+01  0.59351817067E+01  0.79101111720E+01  0.51100000000E-03 0.  1.
         12    1    3    3    0    0 -0.16085226875E+01  0.76437233548E+01  0.23573780662E+01  0.81591104483E+01  0.00000000000E+00 0. -1.
</event>
<event>
 7    1  0.4005571E-009  0.4778726E+02  0.7816164E-02  0.1312668E+00
        -11   -1    0    0    0    0  0.00000000000E+00  0.00000000000E+00  0.45593999997E+02  0.45594000000E+02  0.51100000000E-03 0.  1.
         11   -1    0    0    0    0 -0.00000000000E+00 -0.00000000000E+00 -0.45593999997E+02  0.45594000000E+02  0.51100000000E-03 0. -1.
    9900012    2    1    2    0    0 -0.31647993038E+02  0.21304370466E+02  0.20691841700E+02  0.47787262942E+02  0.19999963057E+02 0.  0.
         12    1    1    2    0    0  0.31647993038E+02 -0.21304370466E+02 -0.20691841700E+02  0.43400737058E+02  0.00000000000E+00 0. -1.
         11    1    3    3    0    0 -0.29189487783E+02  0.17059049566E+02  0.11279579081E+02  0.35640795076E+02  0.51100000000E-03 0. -1.
        -11    1    3    3    0    0 -0.21679543301E+01  0.48911381051E+01  0.39796636048E+01  0.66679067637E+01  0.51100000000E-03 0.  1.
         12    1    3    3    0    0 -0.29055092466E+00 -0.64581720531E+00  0.54325990145E+01  0.54785611026E+01  0.00000000000E+00 0. -1.
</event>
<event>
 7    1  0.4005571E-009  0.4778728E+02  0.7816164E-02  0.1312668E+00
        -11   -1    0    0    0    0  0.00000000000E+00  0.00000000000E+00  0.45593999997E+02  0.45594000000E+02  0.51100000000E-03 0.  1.
         11   -1    0    0    0    0 -0.00000000000E+00 -0.00000000000E+00 -0.45593999997E+02  0.45594000000E+02  0.51100000000E-03 0. -1.
    9900012    2    1    2    0    0  0.24295002952E+02  0.29273353701E+02  0.20891299407E+02  0.47787276547E+02  0.20000025088E+02 0.  0.
         12    1    1    2    0    0 -0.24295002952E+02 -0.29273353701E+02 -0.20891299407E+02  0.43400723453E+02  0.00000000000E+00 0. -1.
         11    1    3    3    0    0  0.16566040484E+02  0.15675817081E+02  0.10216206197E+02  0.24990714432E+02  0.51100000000E-03 0. -1.
        -11    1    3    3    0    0  0.77332557880E+01  0.15086366924E+02  0.61518717126E+01  0.18034612218E+02  0.51100000000E-03 0.  1.
         12    1    3    3    0    0 -0.42933202311E-02 -0.14888303039E+01  0.45232214975E+01  0.47619498971E+01  0.00000000000E+00 0. -1.
</event>
<event>
 7    1  0.4005571E-009  0.4778727E+02  0.7816164E-02  0.1312668E+00
        -11   -1    0    0    0    0  0.00000000000E+00  0.00000000000E+00  0.45593999997E+02  0.45594000000E+02  0.51100000000E-03 0.  1.
         11   -1    0    0    0    0 -0.00000000000E+00 -0.00000000000E+00 -0.45593999997E+02  0.45594000000E+02  0.51100000000E-03 0. -1.
    9900012    2    1    2    0    0  0.79867000692E+01  0.30577861238E+02  0.29746102054E+02  0.47787267710E+02  0.19999984797E+02 0.  0.
         12    1    1    2    0    0 -0.79867000692E+01 -0.30577861238E+02 -0.29746102054E+02  0.43400732290E+02  0.00000000000E+00 0. -1.
         11    1    3    3    0    0  0.41968004590E+01  0.57893282418E+01  0.13716780490E+01  0.72808623469E+01  0.51100000000E-03 0. -1.
        -11    1    3    3    0    0  0.49190231762E+01  0.60078239027E+01  0.18421547427E+01  0.79802425659E+01  0.51100000000E-03 0.  1.
        -12    1    3    3    0    0 -0.11291235660E+01  0.18780709093E+02  0.26532269263E+02  0.32526162797E+02  0.00000000000E+00 0.  1.
</event>
<event>
 7    1  0.4005571E-009  0.4778724E+02  0.7816164E-02  0.1312668E+00
        -11   -1    0    0    0    0  0.00000000000E+00  0.00000000000E+00  0.45593999997E+02  0.45594000000E+02  0.51100000000E-03 0. -1.
         11   -1    0    0    0    0 -0.00000000000E+00 -0.00000000000E+00 -0.45593999997E+02  0.45594000000E+02  0.51100000000E-03 0.  1.
    9900012    2    1    2    0    0  0.20768115235E+02 -0.88924253532E+01 -0.37057196338E+02  0.47787243791E+02  0.19999875739E+02 0.  0.
         12    1    1    2    0    0 -0.20768115235E+02  0.88924253532E+01  0.37057196338E+02  0.43400756209E+02  0.00000000000E+00 0. -1.
         11    1    3    3    0    0 -0.21345320387E+01  0.73581554902E+00 -0.62017172859E+00  0.23414236654E+01  0.51100000000E-03 0. -1.
        -11    1    3    3    0    0  0.47245849257E+01 -0.74513689895E+01 -0.12848382542E+02  0.15586068675E+02  0.51100000000E-03 0.  1.
        -12    1    3    3    0    0  0.18178062348E+02 -0.21768719127E+01 -0.23588642068E+02  0.29859751450E+02  0.00000000000E+00 0.  1.
</event>
<event>
 7    1  0.4005571E-009  0.4778727E+02  0.7816164E-02  0.1312668E+00
        -11   -1    0    0    0    0  0.00000000000E+00  0.00000000000E+00  0.45593999997E+02  0.45594000000E+02  0.51100000000E-03 0. -1.
         11   -1    0    0    0    0 -0.00000000000E+00 -0.00000000000E+00 -0.45593999997E+02  0.45594000000E+02  0.51100000000E-03 0.  1.
    9900012    2    1    2    0    0  0.17183325696E+02  0.31096049108E+02 -0.24927742366E+02  0.47787270840E+02  0.19999999069E+02 0.  0.
         12    1    1    2    0    0 -0.17183325696E+02 -0.31096049108E+02  0.24927742366E+02  0.43400729160E+02  0.00000000000E+00 0. -1.
         11    1    3    3    0    0  0.55848760637E+01  0.95511896842E+01 -0.19991543351E+01  0.11243339510E+02  0.51100000000E-03 0. -1.
        -11    1    3    3    0    0  0.48108350223E+01  0.19595626124E+02 -0.11832032106E+02  0.23390803338E+02  0.51100000000E-03 0.  1.
         12    1    3    3    0    0  0.67876146100E+01  0.19492333000E+01 -0.11096555925E+02  0.13153127991E+02  0.00000000000E+00 0. -1.
</event>
<event>
 7    1  0.4005571E-009  0.4778727E+02  0.7816164E-02  0.1312668E+00
        -11   -1    0    0    0    0  0.00000000000E+00  0.00000000000E+00  0.45593999997E+02  0.45594000000E+02  0.51100000000E-03 0.  1.
         11   -1    0    0    0    0 -0.00000000000E+00 -0.00000000000E+00 -0.45593999997E+02  0.45594000000E+02  0.51100000000E-03 0. -1.
    9900012    2    1    2    0    0 -0.11387968717E+02  0.19315202028E+02  0.37159930354E+02  0.47787270919E+02  0.19999999427E+02 0.  0.
         12    1    1    2    0    0  0.11387968717E+02 -0.19315202028E+02 -0.37159930354E+02  0.43400729081E+02  0.00000000000E+00 0. -1.
         11    1    3    3    0    0  0.21679414669E+01  0.24919644728E+01 -0.40074698423E+00  0.33272294096E+01  0.51100000000E-03 0. -1.
        -11    1    3    3    0    0 -0.11972759881E+00  0.90481209452E+00  0.93370497827E+01  0.93815520321E+01  0.51100000000E-03 0.  1.
        -12    1    3    3    0    0 -0.13436182585E+02  0.15918425461E+02  0.28223627555E+02  0.35078489477E+02  0.00000000000E+00 0.  1.
</event>
<event>
 7    1  0.4005571E-009  0.4778727E+02  0.7816164E-02  0.1312668E+00
        -11   -1    0    0    0    0  0.00000000000E+00  0.00000000000E+00  0.45593999997E+02  0.45594000000E+02  0.51100000000E-03 0.  1.
         11   -1    0    0    0    0 -0.00000000000E+00 -0.00000000000E+00 -0.45593999997E+02  0.45594000000E+02  0.51100000000E-03 0. -1.
    9900012    2    1    2    0    0 -0.12049270192E+02 -0.37687479917E+02  0.17835141714E+02  0.47787270345E+02  0.19999996810E+02 0.  0.
         12    1    1    2    0    0  0.12049270192E+02  0.37687479917E+02 -0.17835141714E+02  0.43400729655E+02  0.00000000000E+00 0. -1.
         11    1    3    3    0    0 -0.20374552747E+01 -0.13137800700E+02  0.88210066046E+01  0.15955036478E+02  0.51100000000E-03 0. -1.
        -11    1    3    3    0    0  0.35496869480E+01 -0.99272750263E+01  0.39275399868E+01  0.11250628315E+02  0.51100000000E-03 0.  1.
        -12    1    3    3    0    0 -0.13561501865E+02 -0.14622404190E+02  0.50865951230E+01  0.20581605552E+02  0.00000000000E+00 0.  1.
</event>
<event>
 7    1  0.4005571E-009  0.4778727E+02  0.7816164E-02  0.1312668E+00
        -11   -1    0    0    0    0  0.00000000000E+00  0.00000000000E+00  0.45593999997E+02  0.45594000000E+02  0.51100000000E-03 0.  1.
         11   -1    0    0    0    0 -0.00000000000E+00 -0.00000000000E+00 -0.45593999997E+02  0.45594000000E+02  0.51100000000E-03 0. -1.
    9900012    2    1    2    0    0  0.18006492115E+02  0.29862066512E+02  0.25838854477E+02  0.47787272180E+02  0.20000005176E+02 0.  0.
         12    1    1    2    0    0 -0.18006492115E+02 -0.29862066512E+02 -0.25838854477E+02  0.43400727820E+02  0.00000000000E+00 0. -1.
         11    1    3    3    0    0  0.96110400781E+01  0.14933500012E+02  0.86378608009E+01  0.19748269632E+02  0.51100000000E-03 0. -1.
        -11    1    3    3    0    0  0.11777291154E+02  0.10460856599E+02  0.15695462277E+02  0.22236943226E+02  0.51100000000E-03 0.  1.
        -12    1    3    3    0    0 -0.33818391167E+01  0.44677099015E+01  0.15055313989E+01  0.58020593213E+01  0.00000000000E+00 0.  1.
</event>
<event>
 7    1  0.4005571E-009  0.4778728E+02  0.7816164E-02  0.1312668E+00
        -11   -1    0    0    0    0  0.00000000000E+00  0.00000000000E+00  0.45593999997E+02  0.45594000000E+02  0.51100000000E-03 0. -1.
         11   -1    0    0    0    0 -0.00000000000E+00 -0.00000000000E+00 -0.45593999997E+02  0.45594000000E+02  0.51100000000E-03 0.  1.
    9900012    2    1    2    0    0  0.19708825628E+02  0.25140802498E+02 -0.29378985650E+02  0.47787279318E+02  0.20000037723E+02 0.  0.
         12    1    1    2    0    0 -0.19708825628E+02 -0.25140802498E+02  0.29378985650E+02  0.43400720682E+02  0.00000000000E+00 0. -1.
         11    1    3    3    0    0  0.29584961292E+01  0.57127284129E+00  0.53291528452E+00  0.30599102874E+01  0.51100000000E-03 0. -1.
        -11    1    3    3    0    0  0.79030368841E+01  0.23443576494E+01 -0.31298206276E+01  0.88175836941E+01  0.51100000000E-03 0.  1.
        -12    1    3    3    0    0  0.88472926148E+01  0.22225172008E+02 -0.26782080307E+02  0.35909785337E+02  0.00000000000E+00 0.  1.
</event>
<event>
 7    1  0.4005571E-009  0.4778727E+02  0.7816164E-02  0.1312668E+00
        -11   -1    0    0    0    0  0.00000000000E+00  0.00000000000E+00  0.45593999997E+02  0.45594000000E+02  0.51100000000E-03 0. -1.
         11   -1    0    0    0    0 -0.00000000000E+00 -0.00000000000E+00 -0.45593999997E+02  0.45594000000E+02  0.51100000000E-03 0.  1.
    9900012    2    1    2    0    0  0.14749416467E+02 -0.30449563800E+02 -0.27182753064E+02  0.47787270906E+02  0.19999999370E+02 0.  0.
         12    1    1    2    0    0 -0.14749416467E+02  0.30449563800E+02  0.27182753064E+02  0.43400729094E+02  0.00000000000E+00 0. -1.
         11    1    3    3    0    0  0.11428227016E+02 -0.20974697909E+02 -0.88781917645E+01  0.25482633584E+02  0.51100000000E-03 0. -1.
        -11    1    3    3    0    0 -0.10536100835E+01  0.67754179161E+00 -0.50319180234E+00  0.13499479022E+01  0.51100000000E-03 0.  1.
        -12    1    3    3    0    0  0.43747995344E+01 -0.10152407683E+02 -0.17801369497E+02  0.20954689420E+02  0.00000000000E+00 0.  1.
</event>
<event>
 7    1  0.4005571E-009  0.4778726E+02  0.7816164E-02  0.1312668E+00
        -11   -1    0    0    0    0  0.00000000000E+00  0.00000000000E+00  0.45593999997E+02  0.45594000000E+02  0.51100000000E-03 0.  1.
         11   -1    0    0    0    0 -0.00000000000E+00 -0.00000000000E+00 -0.45593999997E+02  0.45594000000E+02  0.51100000000E-03 0. -1.
    9900012    2    1    2    0    0 -0.19960060780E+02  0.19094625698E+02  0.33475591576E+02  0.47787262814E+02  0.19999962476E+02 0.  0.
         12    1    1    2    0    0  0.19960060780E+02 -0.19094625698E+02 -0.33475591576E+02  0.43400737186E+02  0.00000000000E+00 0. -1.
         11    1    3    3    0    0 -0.79437810931E+01  0.10498411925E+01  0.11002955973E+01  0.80880452055E+01  0.51100000000E-03 0. -1.
        -11    1    3    3    0    0 -0.72916941803E+01  0.43561046443E+01  0.11841431459E+02  0.14572712546E+02  0.51100000000E-03 0.  1.
        -12    1    3    3    0    0 -0.47245855067E+01  0.13688679861E+02  0.20533864520E+02  0.25126505063E+02  0.00000000000E+00 0.  1.
</event>
<event>
 7    1  0.4005571E-009  0.4778728E+02  0.7816164E-02  0.1312668E+00
        -11   -1    0    0    0    0  0.00000000000E+00  0.00000000000E+00  0.45593999997E+02  0.45594000000E+02  0.51100000000E-03 0.  1.
         11   -1    0    0    0    0 -0.00000000000E+00 -0.00000000000E+00 -0.45593999997E+02  0.45594000000E+02  0.51100000000E-03 0. -1.
    9900012    2    1    2    0    0  0.26471422594E+02  0.11239062782E+02  0.32504914903E+02  0.47787282964E+02  0.20000054346E+02 0.  0.
         12    1    1    2    0    0 -0.26471422594E+02 -0.11239062782E+02 -0.32504914903E+02  0.43400717036E+02  0.00000000000E+00 0. -1.
         11    1    3    3    0    0  0.45253259347E+01  0.93713866621E+00  0.19559086117E+02  0.20097628062E+02  0.51100000000E-03 0. -1.
        -11    1    3    3    0    0  0.57964593298E+01  0.20997614244E+01  0.48756981453E+01  0.78600490754E+01  0.51100000000E-03 0.  1.
         12    1    3    3    0    0  0.16149637330E+02  0.82021626914E+01  0.80701306403E+01  0.19829605827E+02  0.00000000000E+00 0. -1.
</event>
<event>
 7    1  0.4005571E-009  0.4778728E+02  0.7816164E-02  0.1312668E+00
        -11   -1    0    0    0    0  0.00000000000E+00  0.00000000000E+00  0.45593999997E+02  0.45594000000E+02  0.51100000000E-03 0. -1.
         11   -1    0    0    0    0 -0.00000000000E+00 -0.00000000000E+00 -0.45593999997E+02  0.45594000000E+02  0.51100000000E-03 0.  1.
    9900012    2    1    2    0    0 -0.24568917277E+02  0.20285093143E+01  0.35719408418E+02  0.47787277841E+02  0.20000030988E+02 0.  0.
         12    1    1    2    0    0  0.24568917277E+02 -0.20285093143E+01 -0.35719408418E+02  0.43400722159E+02  0.00000000000E+00 0. -1.
         11    1    3    3    0    0  0.21901414963E+01 -0.99975705358E+00  0.22480997859E+01  0.32939621808E+01  0.51100000000E-03 0. -1.
        -11    1    3    3    0    0 -0.10966003175E+02 -0.44462208036E+01  0.14047993477E+02  0.18367586289E+02  0.51100000000E-03 0.  1.
         12    1    3    3    0    0 -0.15793055598E+02  0.74744871715E+01  0.19423315155E+02  0.26125729372E+02  0.00000000000E+00 0. -1.
</event>
<event>
 7    1  0.4005571E-009  0.4778727E+02  0.7816164E-02  0.1312668E+00
        -11   -1    0    0    0    0  0.00000000000E+00  0.00000000000E+00  0.45593999997E+02  0.45594000000E+02  0.51100000000E-03 0.  1.
         11   -1    0    0    0    0 -0.00000000000E+00 -0.00000000000E+00 -0.45593999997E+02  0.45594000000E+02  0.51100000000E-03 0. -1.
    9900012    2    1    2    0    0 -0.12591652287E+02  0.34064115236E+01  0.41394081330E+02  0.47787270560E+02  0.19999997793E+02 0.  0.
         12    1    1    2    0    0  0.12591652287E+02 -0.34064115236E+01 -0.41394081330E+02  0.43400729440E+02  0.00000000000E+00 0. -1.
         11    1    3    3    0    0  0.72554834893E-01 -0.43282009967E+01  0.20756995528E+02  0.21203571673E+02  0.51100000000E-03 0. -1.
        -11    1    3    3    0    0 -0.23695473589E+01  0.43188756152E+01  0.11086440906E+02  0.12131636884E+02  0.51100000000E-03 0.  1.
         12    1    3    3    0    0 -0.10294659763E+02  0.34157369051E+01  0.95506448953E+01  0.14452062003E+02  0.00000000000E+00 0. -1.
</event>
<event>
 7    1  0.4005571E-009  0.4778727E+02  0.7816164E-02  0.1312668E+00
        -11   -1    0    0    0    0  0.00000000000E+00  0.00000000000E+00  0.45593999997E+02  0.45594000000E+02  0.51100000000E-03 0. -1.
         11   -1    0    0    0    0 -0.00000000000E+00 -0.00000000000E+00 -0.45593999997E+02  0.45594000000E+02  0.51100000000E-03 0.  1.
    9900012    2    1    2    0    0  0.27278755810E+01  0.42200058707E+02  0.97640575872E+01  0.47787273271E+02  0.20000010151E+02 0.  0.
         12    1    1    2    0    0 -0.27278755810E+01 -0.42200058707E+02 -0.97640575872E+01  0.43400726729E+02  0.00000000000E+00 0. -1.
         11    1    3    3    0    0  0.71369978384E+00 -0.28499816310E+00 -0.14753442916E+01  0.16635000374E+01  0.51100000000E-03 0. -1.
        -11    1    3    3    0    0  0.41774169000E-01  0.16069295596E+02 -0.25335296470E+01  0.16267844933E+02  0.51100000000E-03 0.  1.
         12    1    3    3    0    0  0.19724016281E+01  0.26415761274E+02  0.13772931526E+02  0.29855928301E+02  0.00000000000E+00 0. -1.
</event>
<event>
 7    1  0.4005571E-009  0.4778728E+02  0.7816164E-02  0.1312668E+00
        -11   -1    0    0    0    0  0.00000000000E+00  0.00000000000E+00  0.45593999997E+02  0.45594000000E+02  0.51100000000E-03 0.  1.
         11   -1    0    0    0    0 -0.00000000000E+00 -0.00000000000E+00 -0.45593999997E+02  0.45594000000E+02  0.51100000000E-03 0. -1.
    9900012    2    1    2    0    0  0.61947391805E+01  0.23729016481E+02  0.35807559147E+02  0.47787282163E+02  0.20000050694E+02 0.  0.
         12    1    1    2    0    0 -0.61947391805E+01 -0.23729016481E+02 -0.35807559147E+02  0.43400717837E+02  0.00000000000E+00 0. -1.
         11    1    3    3    0    0  0.76266725474E+01  0.16362290862E+02  0.11261352960E+02  0.21276953898E+02  0.51100000000E-03 0. -1.
        -11    1    3    3    0    0 -0.18687081899E+01  0.58421498334E+01  0.90474905270E+01  0.10930684794E+02  0.51100000000E-03 0.  1.
        -12    1    3    3    0    0  0.43677482311E+00  0.15245757858E+01  0.15498715660E+02  0.15579643471E+02  0.00000000000E+00 0.  1.
</event>
<event>
 7    1  0.4005571E-009  0.4778726E+02  0.7816164E-02  0.1312668E+00
        -11   -1    0    0    0    0  0.00000000000E+00  0.00000000000E+00  0.45593999997E+02  0.45594000000E+02  0.51100000000E-03 0.  1.
         11   -1    0    0    0    0 -0.00000000000E+00 -0.00000000000E+00 -0.45593999997E+02  0.45594000000E+02  0.51100000000E-03 0. -1.
    9900012    2    1    2    0    0  0.24386125407E+02  0.28744866093E+02  0.21509851609E+02  0.47787260890E+02  0.19999953702E+02 0.  0.
         12    1    1    2    0    0 -0.24386125407E+02 -0.28744866093E+02 -0.21509851609E+02  0.43400739110E+02  0.00000000000E+00 0. -1.
         11    1    3    3    0    0  0.92196819611E+01  0.58959827395E+01  0.11815175961E+01  0.11007321746E+02  0.51100000000E-03 0. -1.
        -11    1    3    3    0    0 -0.92672542774E+00 -0.11628363539E+01  0.22145796373E+01  0.26674653954E+01  0.51100000000E-03 0.  1.
        -12    1    3    3    0    0  0.16093168873E+02  0.24011719707E+02  0.18113754375E+02  0.34112473749E+02  0.00000000000E+00 0.  1.
</event>
<event>
 7    1  0.4005571E-009  0.4778726E+02  0.7816164E-02  0.1312668E+00
        -11   -1    0    0    0    0  0.00000000000E+00  0.00000000000E+00  0.45593999997E+02  0.45594000000E+02  0.51100000000E-03 0.  1.
         11   -1    0    0    0    0 -0.00000000000E+00 -0.00000000000E+00 -0.45593999997E+02  0.45594000000E+02  0.51100000000E-03 0. -1.
    9900012    2    1    2    0    0  0.32535536828E+02 -0.98687237106E+01  0.26975378318E+02  0.47787263834E+02  0.19999967123E+02 0.  0.
         12    1    1    2    0    0 -0.32535536828E+02  0.98687237106E+01 -0.26975378318E+02  0.43400736166E+02  0.00000000000E+00 0. -1.
         11    1    3    3    0    0  0.37658609870E+01 -0.47909061727E+00 -0.73813456783E+00  0.38673091025E+01  0.51100000000E-03 0. -1.
        -11    1    3    3    0    0  0.54514448153E+01 -0.32912718712E+00 -0.12964674792E+01  0.56131455945E+01  0.51100000000E-03 0.  1.
        -12    1    3    3    0    0  0.23318231026E+02 -0.90605059062E+01  0.29009980365E+02  0.38306809137E+02  0.00000000000E+00 0.  1.
</event>
<event>
 7    1  0.4005571E-009  0.4778727E+02  0.7816164E-02  0.1312668E+00
        -11   -1    0    0    0    0  0.00000000000E+00  0.00000000000E+00  0.45593999997E+02  0.45594000000E+02  0.51100000000E-03 0.  1.
         11   -1    0    0    0    0 -0.00000000000E+00 -0.00000000000E+00 -0.45593999997E+02  0.45594000000E+02  0.51100000000E-03 0. -1.
    9900012    2    1    2    0    0 -0.12281891722E+02  0.21773533025E+02  0.35478051875E+02  0.47787265334E+02  0.19999973966E+02 0.  0.
         12    1    1    2    0    0  0.12281891722E+02 -0.21773533025E+02 -0.35478051875E+02  0.43400734666E+02  0.00000000000E+00 0. -1.
         11    1    3    3    0    0 -0.60898659741E+01  0.54135782545E-01  0.16211135460E+02  0.17317341350E+02  0.51100000000E-03 0. -1.
        -11    1    3    3    0    0 -0.32591676774E+01  0.23765369511E+01  0.35878863634E+01  0.53984285350E+01  0.51100000000E-03 0.  1.
        -12    1    3    3    0    0 -0.29328580710E+01  0.19342860291E+02  0.15679030051E+02  0.25071495449E+02  0.00000000000E+00 0.  1.
</event>
<event>
 7    1  0.4005571E-009  0.4778727E+02  0.7816164E-02  0.1312668E+00
        -11   -1    0    0    0    0  0.00000000000E+00  0.00000000000E+00  0.45593999997E+02  0.45594000000E+02  0.51100000000E-03 0. -1.
         11   -1    0    0    0    0 -0.00000000000E+00 -0.00000000000E+00 -0.45593999997E+02  0.45594000000E+02  0.51100000000E-03 0.  1.
    9900012    2    1    2    0    0 -0.55545332983E+01 -0.79280016758E+01 -0.42307409852E+02  0.47787274440E+02  0.20000015483E+02 0.  0.
         12    1    1    2    0    0  0.55545332983E+01  0.79280016758E+01  0.42307409852E+02  0.43400725560E+02  0.00000000000E+00 0. -1.
         11    1    3    3    0    0 -0.18985176631E+01 -0.22057575267E+01 -0.14997006535E+01  0.32739636368E+01  0.51100000000E-03 0. -1.
        -11    1    3    3    0    0  0.47006751427E+01 -0.56537549546E+01 -0.29794578865E+02  0.30688405333E+02  0.51100000000E-03 0.  1.
         12    1    3    3    0    0 -0.83566907779E+01 -0.68489194583E-01 -0.11013130334E+02  0.13824905471E+02  0.00000000000E+00 0. -1.
</event>
<event>
 7    1  0.4005571E-009  0.4778726E+02  0.7816164E-02  0.1312668E+00
        -11   -1    0    0    0    0  0.00000000000E+00  0.00000000000E+00  0.45593999997E+02  0.45594000000E+02  0.51100000000E-03 0.  1.
         11   -1    0    0    0    0 -0.00000000000E+00 -0.00000000000E+00 -0.45593999997E+02  0.45594000000E+02  0.51100000000E-03 0. -1.
    9900012    2    1    2    0    0 -0.28259960231E+02 -0.32843302947E+02  0.25132030838E+01  0.47787261637E+02  0.19999957107E+02 0.  0.
         12    1    1    2    0    0  0.28259960231E+02  0.32843302947E+02 -0.25132030838E+01  0.43400738363E+02  0.00000000000E+00 0. -1.
         11    1    3    3    0    0 -0.99206011857E+01 -0.38290172729E+01 -0.34309238428E+01  0.11173671726E+02  0.51100000000E-03 0. -1.
        -11    1    3    3    0    0 -0.12695703345E+02 -0.17866024562E+02 -0.16701726179E+01  0.21981018946E+02  0.51100000000E-03 0.  1.
        -12    1    3    3    0    0 -0.56436557004E+01 -0.11148261112E+02  0.76142995444E+01  0.14632570965E+02  0.00000000000E+00 0.  1.
</event>
<event>
 7    1  0.4005571E-009  0.4778727E+02  0.7816164E-02  0.1312668E+00
        -11   -1    0    0    0    0  0.00000000000E+00  0.00000000000E+00  0.45593999997E+02  0.45594000000E+02  0.51100000000E-03 0.  1.
         11   -1    0    0    0    0 -0.00000000000E+00 -0.00000000000E+00 -0.45593999997E+02  0.45594000000E+02  0.51100000000E-03 0. -1.
    9900012    2    1    2    0    0 -0.22750162793E+01 -0.42001918892E+02 -0.10690474630E+02  0.47787272616E+02  0.20000007163E+02 0.  0.
         12    1    1    2    0    0  0.22750162793E+01  0.42001918892E+02  0.10690474630E+02  0.43400727384E+02  0.00000000000E+00 0. -1.
         11    1    3    3    0    0  0.37410802257E+00  0.17832415491E+01 -0.16472621084E+01  0.24562939462E+01  0.51100000000E-03 0. -1.
        -11    1    3    3    0    0 -0.24689450484E+01 -0.48774173636E+01 -0.17917299388E+01  0.57528415784E+01  0.51100000000E-03 0.  1.
        -12    1    3    3    0    0 -0.18017925344E+00 -0.38907743077E+02 -0.72514825833E+01  0.39578137091E+02  0.00000000000E+00 0.  1.
</event>
<event>
 7    1  0.4005571E-009  0.4778728E+02  0.7816164E-02  0.1312668E+00
        -11   -1    0    0    0    0  0.00000000000E+00  0.00000000000E+00  0.45593999997E+02  0.45594000000E+02  0.51100000000E-03 0.  1.
         11   -1    0    0    0    0 -0.00000000000E+00 -0.00000000000E+00 -0.45593999997E+02  0.45594000000E+02  0.51100000000E-03 0. -1.
    9900012    2    1    2    0    0  0.41979639050E+02 -0.75150404951E+01  0.80533745290E+01  0.47787276853E+02  0.20000026483E+02 0.  0.
         12    1    1    2    0    0 -0.41979639050E+02  0.75150404951E+01 -0.80533745290E+01  0.43400723147E+02  0.00000000000E+00 0. -1.
         11    1    3    3    0    0  0.81705147869E+01 -0.17349128321E+01  0.71843359480E+01  0.11017346218E+02  0.51100000000E-03 0. -1.
        -11    1    3    3    0    0  0.10326751254E+02  0.32783787503E+01  0.36843924432E+01  0.11443963764E+02  0.51100000000E-03 0.  1.
        -12    1    3    3    0    0  0.23482373009E+02 -0.90585064132E+01 -0.28153538622E+01  0.25325966871E+02  0.00000000000E+00 0.  1.
</event>
<event>
 7    1  0.4005571E-009  0.4778728E+02  0.7816164E-02  0.1312668E+00
        -11   -1    0    0    0    0  0.00000000000E+00  0.00000000000E+00  0.45593999997E+02  0.45594000000E+02  0.51100000000E-03 0. -1.
         11   -1    0    0    0    0 -0.00000000000E+00 -0.00000000000E+00 -0.45593999997E+02  0.45594000000E+02  0.51100000000E-03 0.  1.
    9900012    2    1    2    0    0 -0.15011853918E+02  0.38262627007E+02  0.13936937595E+02  0.47787278658E+02  0.20000034711E+02 0.  0.
         12    1    1    2    0    0  0.15011853918E+02 -0.38262627007E+02 -0.13936937595E+02  0.43400721342E+02  0.00000000000E+00 0. -1.
         11    1    3    3    0    0 -0.66927651259E+00  0.57677338123E+01  0.63574754269E+01  0.86100045554E+01  0.51100000000E-03 0. -1.
        -11    1    3    3    0    0 -0.14302236360E+01  0.12201449326E+02  0.87708574175E+01  0.15094662812E+02  0.51100000000E-03 0.  1.
         12    1    3    3    0    0 -0.12912353769E+02  0.20293443868E+02 -0.11913952498E+01  0.24082611290E+02  0.00000000000E+00 0. -1.
</event>
<event>
 7    1  0.5732193E-009  0.4778727E+02  0.7816164E-02  0.1312668E+00
        -11   -1    0    0    0    0  0.00000000000E+00  0.00000000000E+00  0.45593999997E+02  0.45594000000E+02  0.51100000000E-03 0.  1.
         11   -1    0    0    0    0 -0.00000000000E+00 -0.00000000000E+00 -0.45593999997E+02  0.45594000000E+02  0.51100000000E-03 0. -1.
    9900012    2    1    2    0    0 -0.21557892666E+02 -0.37238344646E+02 -0.56732792356E+01  0.47787272524E+02  0.20000006745E+02 0.  0.
         12    1    1    2    0    0  0.21557892666E+02  0.37238344646E+02  0.56732792356E+01  0.43400727476E+02  0.00000000000E+00 0. -1.
         11    1    3    3    0    0 -0.63841649968E+00 -0.61590453676E+01  0.47046120073E+01  0.77765538555E+01  0.51100000000E-03 0. -1.
        -11    1    3    3    0    0 -0.21379558251E+01 -0.87316518792E+01 -0.51318486019E+01  0.10351254513E+02  0.51100000000E-03 0.  1.
        -12    1    3    3    0    0 -0.18781520341E+02 -0.22347647399E+02 -0.52460426410E+01  0.29659464156E+02  0.00000000000E+00 0.  1.
</event>
<event>
 7    1  0.4005571E-009  0.4778728E+02  0.7816164E-02  0.1312668E+00
        -11   -1    0    0    0    0  0.00000000000E+00  0.00000000000E+00  0.45593999997E+02  0.45594000000E+02  0.51100000000E-03 0. -1.
         11   -1    0    0    0    0 -0.00000000000E+00 -0.00000000000E+00 -0.45593999997E+02  0.45594000000E+02  0.51100000000E-03 0.  1.
    9900012    2    1    2    0    0 -0.34036468928E+02 -0.20892673618E+02 -0.16989340696E+02  0.47787277365E+02  0.20000028816E+02 0.  0.
         12    1    1    2    0    0  0.34036468928E+02  0.20892673618E+02  0.16989340696E+02  0.43400722635E+02  0.00000000000E+00 0. -1.
         11    1    3    3    0    0 -0.24544737340E+02 -0.16266040046E+02 -0.10317125403E+02  0.31200501065E+02  0.51100000000E-03 0. -1.
        -11    1    3    3    0    0 -0.96801645385E+01 -0.75354302505E+01 -0.52531076195E+01  0.13344790537E+02  0.51100000000E-03 0.  1.
         12    1    3    3    0    0  0.18843295034E+00  0.29087966787E+01 -0.14191076738E+01  0.32419857626E+01  0.00000000000E+00 0. -1.
</event>
<event>
 7    1  0.4005571E-009  0.4778727E+02  0.7816164E-02  0.1312668E+00
        -11   -1    0    0    0    0  0.00000000000E+00  0.00000000000E+00  0.45593999997E+02  0.45594000000E+02  0.51100000000E-03 0. -1.
         11   -1    0    0    0    0 -0.00000000000E+00 -0.00000000000E+00 -0.45593999997E+02  0.45594000000E+02  0.51100000000E-03 0.  1.
    9900012    2    1    2    0    0 -0.35680565050E+02 -0.15705821389E+01 -0.24658748151E+02  0.47787270617E+02  0.19999998053E+02 0.  0.
         12    1    1    2    0    0  0.35680565050E+02  0.15705821389E+01  0.24658748151E+02  0.43400729383E+02  0.00000000000E+00 0. -1.
         11    1    3    3    0    0 -0.26191367529E+00 -0.29407887568E+00 -0.74378253394E+00  0.84160197085E+00  0.51100000000E-03 0. -1.
        -11    1    3    3    0    0 -0.18571485309E+02  0.45162092032E+01 -0.21821002003E+02  0.29007797931E+02  0.51100000000E-03 0.  1.
         12    1    3    3    0    0 -0.16847166066E+02 -0.57927124664E+01 -0.20939636140E+01  0.17937870715E+02  0.00000000000E+00 0. -1.
</event>
<event>
 7    1  0.4005571E-009  0.4778727E+02  0.7816164E-02  0.1312668E+00
        -11   -1    0    0    0    0  0.00000000000E+00  0.00000000000E+00  0.45593999997E+02  0.45594000000E+02  0.51100000000E-03 0.  1.
         11   -1    0    0    0    0 -0.00000000000E+00 -0.00000000000E+00 -0.45593999997E+02  0.45594000000E+02  0.51100000000E-03 0. -1.
    9900012    2    1    2    0    0 -0.49068001075E+01 -0.19093924392E+02  0.38664822139E+02  0.47787272966E+02  0.20000008762E+02 0.  0.
         12    1    1    2    0    0  0.49068001075E+01  0.19093924392E+02 -0.38664822139E+02  0.43400727034E+02  0.00000000000E+00 0. -1.
         11    1    3    3    0    0 -0.18990145821E+01 -0.11043148586E+01 -0.86464943308E+00  0.23608021080E+01  0.51100000000E-03 0. -1.
        -11    1    3    3    0    0 -0.72945532314E+01 -0.10915297259E+02  0.17367875055E+02  0.21771479171E+02  0.51100000000E-03 0.  1.
         12    1    3    3    0    0  0.42867677060E+01 -0.70743122747E+01  0.22161596518E+02  0.23654991687E+02  0.00000000000E+00 0. -1.
</event>
<event>
 7    1  0.4005571E-009  0.4778727E+02  0.7816164E-02  0.1312668E+00
        -11   -1    0    0    0    0  0.00000000000E+00  0.00000000000E+00  0.45593999997E+02  0.45594000000E+02  0.51100000000E-03 0.  1.
         11   -1    0    0    0    0 -0.00000000000E+00 -0.00000000000E+00 -0.45593999997E+02  0.45594000000E+02  0.51100000000E-03 0. -1.
    9900012    2    1    2    0    0  0.25736527708E+02  0.15052071817E+02  0.31538702272E+02  0.47787268838E+02  0.19999989939E+02 0.  0.
         12    1    1    2    0    0 -0.25736527708E+02 -0.15052071817E+02 -0.31538702272E+02  0.43400731162E+02  0.00000000000E+00 0. -1.
         11    1    3    3    0    0  0.22424267857E+01  0.57446819592E+00 -0.68053484945E+00  0.24128032535E+01  0.51100000000E-03 0. -1.
        -11    1    3    3    0    0  0.12947550913E+02  0.16175174767E+02  0.25056084428E+02  0.32512808561E+02  0.51100000000E-03 0.  1.
        -12    1    3    3    0    0  0.10546550009E+02 -0.16975711465E+01  0.71631526935E+01  0.12861657024E+02  0.00000000000E+00 0.  1.
</event>
<event>
 7    1  0.4005571E-009  0.4778727E+02  0.7816164E-02  0.1312668E+00
        -11   -1    0    0    0    0  0.00000000000E+00  0.00000000000E+00  0.45593999997E+02  0.45594000000E+02  0.51100000000E-03 0.  1.
         11   -1    0    0    0    0 -0.00000000000E+00 -0.00000000000E+00 -0.45593999997E+02  0.45594000000E+02  0.51100000000E-03 0. -1.
    9900012    2    1    2    0    0  0.17215402460E+02 -0.15859220152E+02  0.36547752180E+02  0.47787272644E+02  0.20000007292E+02 0.  0.
         12    1    1    2    0    0 -0.17215402460E+02  0.15859220152E+02 -0.36547752180E+02  0.43400727356E+02  0.00000000000E+00 0. -1.
         11    1    3    3    0    0  0.33125245589E+00  0.74641869349E+00 -0.86850155871E+00  0.11921259473E+01  0.51100000000E-03 0. -1.
        -11    1    3    3    0    0  0.36491690847E+01  0.82427177302E-01  0.15922953054E+02  0.16335962276E+02  0.51100000000E-03 0.  1.
        -12    1    3    3    0    0  0.13234980920E+02 -0.16688066022E+02  0.21493300684E+02  0.30259184421E+02  0.00000000000E+00 0.  1.
</event>
<event>
 7    1  0.4005571E-009  0.4778727E+02  0.7816164E-02  0.1312668E+00
        -11   -1    0    0    0    0  0.00000000000E+00  0.00000000000E+00  0.45593999997E+02  0.45594000000E+02  0.51100000000E-03 0. -1.
         11   -1    0    0    0    0 -0.00000000000E+00 -0.00000000000E+00 -0.45593999997E+02  0.45594000000E+02  0.51100000000E-03 0.  1.
    9900012    2    1    2    0    0  0.29765767061E+02 -0.14986304016E+02 -0.27803472799E+02  0.47787270784E+02  0.19999998813E+02 0.  0.
         12    1    1    2    0    0 -0.29765767061E+02  0.14986304016E+02  0.27803472799E+02  0.43400729216E+02  0.00000000000E+00 0. -1.
         11    1    3    3    0    0  0.12743596681E+02 -0.47540910992E+00 -0.11508358790E+02  0.17177531618E+02  0.51100000000E-03 0. -1.
        -11    1    3    3    0    0  0.12518437689E+02 -0.51160267010E+01 -0.14860604986E+02  0.20092849280E+02  0.51100000000E-03 0.  1.
         12    1    3    3    0    0  0.45037326921E+01 -0.93948682050E+01 -0.14345090226E+01  0.10516889887E+02  0.00000000000E+00 0. -1.
</event>
<event>
 7    1  0.4005571E-009  0.4778727E+02  0.7816164E-02  0.1312668E+00
        -11   -1    0    0    0    0  0.00000000000E+00  0.00000000000E+00  0.45593999997E+02  0.45594000000E+02  0.51100000000E-03 0.  1.
         11   -1    0    0    0    0 -0.00000000000E+00 -0.00000000000E+00 -0.45593999997E+02  0.45594000000E+02  0.51100000000E-03 0. -1.
    9900012    2    1    2    0    0  0.23504109227E+02 -0.31824287151E+02 -0.17843622581E+02  0.47787271089E+02  0.20000000202E+02 0.  0.
         12    1    1    2    0    0 -0.23504109227E+02  0.31824287151E+02  0.17843622581E+02  0.43400728911E+02  0.00000000000E+00 0. -1.
         11    1    3    3    0    0  0.55182124380E+01 -0.12858185503E+02 -0.64094378202E+01  0.15390402736E+02  0.51100000000E-03 0. -1.
        -11    1    3    3    0    0  0.11486513808E+02 -0.18184765217E+02 -0.29947698581E+01  0.21716222789E+02  0.51100000000E-03 0.  1.
         12    1    3    3    0    0  0.64993829809E+01 -0.78133643073E+00 -0.84394149029E+01  0.10680645564E+02  0.00000000000E+00 0. -1.
</event>
<event>
 7    1  0.4005571E-009  0.4778727E+02  0.7816164E-02  0.1312668E+00
        -11   -1    0    0    0    0  0.00000000000E+00  0.00000000000E+00  0.45593999997E+02  0.45594000000E+02  0.51100000000E-03 0. -1.
         11   -1    0    0    0    0 -0.00000000000E+00 -0.00000000000E+00 -0.45593999997E+02  0.45594000000E+02  0.51100000000E-03 0.  1.
    9900012    2    1    2    0    0  0.38518988525E+01 -0.43132825900E+02 -0.28888505097E+01  0.47787271294E+02  0.20000001140E+02 0.  0.
         12    1    1    2    0    0 -0.38518988525E+01  0.43132825900E+02  0.28888505097E+01  0.43400728706E+02  0.00000000000E+00 0. -1.
         11    1    3    3    0    0 -0.11035173158E+00 -0.18033850146E+00  0.25258700192E+01  0.25347029599E+01  0.51100000000E-03 0. -1.
        -11    1    3    3    0    0 -0.42574915711E+01 -0.19454499215E+02 -0.40393450304E+01  0.20320435101E+02  0.51100000000E-03 0.  1.
         12    1    3    3    0    0  0.82197421552E+01 -0.23497988184E+02 -0.13753754986E+01  0.24932133233E+02  0.00000000000E+00 0. -1.
</event>
<event>
 7    1  0.4005571E-009  0.4778728E+02  0.7816164E-02  0.1312668E+00
        -11   -1    0    0    0    0  0.00000000000E+00  0.00000000000E+00  0.45593999997E+02  0.45594000000E+02  0.51100000000E-03 0. -1.
         11   -1    0    0    0    0 -0.00000000000E+00 -0.00000000000E+00 -0.45593999997E+02  0.45594000000E+02  0.51100000000E-03 0.  1.
    9900012    2    1    2    0    0  0.40615771933E+02  0.89817066342E+01 -0.12381879118E+02  0.47787275187E+02  0.20000018890E+02 0.  0.
         12    1    1    2    0    0 -0.40615771933E+02 -0.89817066342E+01  0.12381879118E+02  0.43400724813E+02  0.00000000000E+00 0. -1.
         11    1    3    3    0    0  0.17897841695E+01  0.70928548889E+00  0.17144116828E+01  0.25779101919E+01  0.51100000000E-03 0. -1.
        -11    1    3    3    0    0  0.13117659522E+02  0.58581314773E+01 -0.12983531654E+02  0.19363955955E+02  0.51100000000E-03 0.  1.
         12    1    3    3    0    0  0.25708328241E+02  0.24142896680E+01 -0.11127591466E+01  0.25845409041E+02  0.00000000000E+00 0. -1.
</event>
<event>
 7    1  0.4005571E-009  0.4778727E+02  0.7816164E-02  0.1312668E+00
        -11   -1    0    0    0    0  0.00000000000E+00  0.00000000000E+00  0.45593999997E+02  0.45594000000E+02  0.51100000000E-03 0.  1.
         11   -1    0    0    0    0 -0.00000000000E+00 -0.00000000000E+00 -0.45593999997E+02  0.45594000000E+02  0.51100000000E-03 0. -1.
    9900012    2    1    2    0    0  0.10970578356E+02  0.32274884501E+02  0.26862639738E+02  0.47787272210E+02  0.20000005314E+02 0.  0.
         12    1    1    2    0    0 -0.10970578356E+02 -0.32274884501E+02 -0.26862639738E+02  0.43400727790E+02  0.00000000000E+00 0. -1.
         11    1    3    3    0    0  0.44567911954E+01 -0.16430354602E+00  0.51038111900E+01  0.67778220941E+01  0.51100000000E-03 0. -1.
        -11    1    3    3    0    0 -0.15221287081E+01  0.25652207940E+00  0.14347851922E+01  0.21074364024E+01  0.51100000000E-03 0.  1.
        -12    1    3    3    0    0  0.80359158687E+01  0.32182665968E+02  0.20324043356E+02  0.38902013713E+02  0.00000000000E+00 0.  1.
</event>
<event>
 7    1  0.4005571E-009  0.4778728E+02  0.7816164E-02  0.1312668E+00
        -11   -1    0    0    0    0  0.00000000000E+00  0.00000000000E+00  0.45593999997E+02  0.45594000000E+02  0.51100000000E-03 0.  1.
         11   -1    0    0    0    0 -0.00000000000E+00 -0.00000000000E+00 -0.45593999997E+02  0.45594000000E+02  0.51100000000E-03 0. -1.
    9900012    2    1    2    0    0 -0.25333997471E+02  0.35235598116E+02  0.51356217134E+00  0.47787279401E+02  0.20000038099E+02 0.  0.
         12    1    1    2    0    0  0.25333997471E+02 -0.35235598116E+02 -0.51356217134E+00  0.43400720599E+02  0.00000000000E+00 0. -1.
         11    1    3    3    0    0 -0.38239655477E+00 -0.61111611048E+00  0.19416031119E+00  0.74658456531E+00  0.51100000000E-03 0. -1.
        -11    1    3    3    0    0 -0.25761964610E+02  0.27083278756E+02 -0.33008169144E+01  0.37524368100E+02  0.51100000000E-03 0.  1.
        -12    1    3    3    0    0  0.81036369369E+00  0.87634354701E+01  0.36202187746E+01  0.95163267352E+01  0.00000000000E+00 0.  1.
</event>
<event>
 7    1  0.4005571E-009  0.4778727E+02  0.7816164E-02  0.1312668E+00
        -11   -1    0    0    0    0  0.00000000000E+00  0.00000000000E+00  0.45593999997E+02  0.45594000000E+02  0.51100000000E-03 0. -1.
         11   -1    0    0    0    0 -0.00000000000E+00 -0.00000000000E+00 -0.45593999997E+02  0.45594000000E+02  0.51100000000E-03 0.  1.
    9900012    2    1    2    0    0  0.29467972726E+01 -0.26448013554E+02 -0.34284720556E+02  0.47787273062E+02  0.20000009201E+02 0.  0.
         12    1    1    2    0    0 -0.29467972726E+01  0.26448013554E+02  0.34284720556E+02  0.43400726938E+02  0.00000000000E+00 0. -1.
         11    1    3    3    0    0  0.70127725636E+00 -0.26196574693E+01  0.21637177735E+00  0.27205168726E+01  0.51100000000E-03 0. -1.
        -11    1    3    3    0    0  0.86966549799E+01 -0.17002628986E+02 -0.26870307672E+02  0.32965658418E+02  0.51100000000E-03 0.  1.
        -12    1    3    3    0    0 -0.64511349636E+01 -0.68257270984E+01 -0.76307846618E+01  0.12101097772E+02  0.00000000000E+00 0.  1.
</event>
<event>
 7    1  0.4005571E-009  0.4778727E+02  0.7816164E-02  0.1312668E+00
        -11   -1    0    0    0    0  0.00000000000E+00  0.00000000000E+00  0.45593999997E+02  0.45594000000E+02  0.51100000000E-03 0. -1.
         11   -1    0    0    0    0 -0.00000000000E+00 -0.00000000000E+00 -0.45593999997E+02  0.45594000000E+02  0.51100000000E-03 0.  1.
    9900012    2    1    2    0    0  0.93240709435E+01 -0.25104306203E+02 -0.34153455404E+02  0.47787274143E+02  0.20000014128E+02 0.  0.
         12    1    1    2    0    0 -0.93240709435E+01  0.25104306203E+02  0.34153455404E+02  0.43400725857E+02  0.00000000000E+00 0. -1.
         11    1    3    3    0    0  0.23153721509E+01  0.10603696642E+01 -0.88009190932E+00  0.26944190564E+01  0.51100000000E-03 0. -1.
        -11    1    3    3    0    0  0.77361434426E+01 -0.23425447144E+02 -0.34147796968E+02  0.42126850432E+02  0.51100000000E-03 0.  1.
        -12    1    3    3    0    0 -0.72744464998E+00 -0.27392287224E+01  0.87443347341E+00  0.29660046547E+01  0.00000000000E+00 0.  1.
</event>
<event>
 7    1  0.4005571E-009  0.4778727E+02  0.7816164E-02  0.1312668E+00
        -11   -1    0    0    0    0  0.00000000000E+00  0.00000000000E+00  0.45593999997E+02  0.45594000000E+02  0.51100000000E-03 0. -1.
         11   -1    0    0    0    0 -0.00000000000E+00 -0.00000000000E+00 -0.45593999997E+02  0.45594000000E+02  0.51100000000E-03 0.  1.
    9900012    2    1    2    0    0 -0.17809197537E+02 -0.35314972362E+02 -0.17869209697E+02  0.47787269073E+02  0.19999991011E+02 0.  0.
         12    1    1    2    0    0  0.17809197537E+02  0.35314972362E+02  0.17869209697E+02  0.43400730927E+02  0.00000000000E+00 0. -1.
         11    1    3    3    0    0 -0.44260203553E+01 -0.10878544954E+02  0.22376010192E+01  0.11955720600E+02  0.51100000000E-03 0. -1.
        -11    1    3    3    0    0 -0.44936070195E+00  0.26294622826E+00 -0.31636403943E+01  0.32061950291E+01  0.51100000000E-03 0.  1.
        -12    1    3    3    0    0 -0.12933816479E+02 -0.24699373636E+02 -0.16943170322E+02  0.32625353443E+02  0.00000000000E+00 0.  1.
</event>
<event>
 7    1  0.4005571E-009  0.4778728E+02  0.7816164E-02  0.1312668E+00
        -11   -1    0    0    0    0  0.00000000000E+00  0.00000000000E+00  0.45593999997E+02  0.45594000000E+02  0.51100000000E-03 0.  1.
         11   -1    0    0    0    0 -0.00000000000E+00 -0.00000000000E+00 -0.45593999997E+02  0.45594000000E+02  0.51100000000E-03 0. -1.
    9900012    2    1    2    0    0  0.11029867171E+02  0.20516817070E+02  0.36620006500E+02  0.47787278479E+02  0.20000033895E+02 0.  0.
         12    1    1    2    0    0 -0.11029867171E+02 -0.20516817070E+02 -0.36620006500E+02  0.43400721521E+02  0.00000000000E+00 0. -1.
         11    1    3    3    0    0 -0.38830396233E+01  0.59228453165E+01  0.10689475837E+02  0.12822752719E+02  0.51100000000E-03 0. -1.
        -11    1    3    3    0    0  0.39963809159E+01 -0.11866330664E+01  0.59199040524E+01  0.72404711663E+01  0.51100000000E-03 0.  1.
         12    1    3    3    0    0  0.10916525878E+02  0.15780604820E+02  0.20010626611E+02  0.27724054593E+02  0.00000000000E+00 0. -1.
</event>
<event>
 7    1  0.4005571E-009  0.4778727E+02  0.7816164E-02  0.1312668E+00
        -11   -1    0    0    0    0  0.00000000000E+00  0.00000000000E+00  0.45593999997E+02  0.45594000000E+02  0.51100000000E-03 0.  1.
         11   -1    0    0    0    0 -0.00000000000E+00 -0.00000000000E+00 -0.45593999997E+02  0.45594000000E+02  0.51100000000E-03 0. -1.
    9900012    2    1    2    0    0  0.41597402240E+00  0.20858867390E+02  0.38057299216E+02  0.47787269513E+02  0.19999993018E+02 0.  0.
         12    1    1    2    0    0 -0.41597402240E+00 -0.20858867390E+02 -0.38057299216E+02  0.43400730487E+02  0.00000000000E+00 0. -1.
         11    1    3    3    0    0 -0.11545085171E+01  0.11210844413E+02  0.12532141396E+02  0.16854390840E+02  0.51100000000E-03 0. -1.
        -11    1    3    3    0    0  0.43029833754E+01  0.11747643048E+02  0.24196586472E+02  0.27239632528E+02  0.51100000000E-03 0.  1.
         12    1    3    3    0    0 -0.27325008360E+01 -0.20996200702E+01  0.13285713473E+01  0.36932461444E+01  0.00000000000E+00 0. -1.
</event>
<event>
 7    1  0.4005571E-009  0.4778726E+02  0.7816164E-02  0.1312668E+00
        -11   -1    0    0    0    0  0.00000000000E+00  0.00000000000E+00  0.45593999997E+02  0.45594000000E+02  0.51100000000E-03 0. -1.
         11   -1    0    0    0    0 -0.00000000000E+00 -0.00000000000E+00 -0.45593999997E+02  0.45594000000E+02  0.51100000000E-03 0.  1.
    9900012    2    1    2    0    0 -0.26147683058E+02  0.25407700241E+02 -0.23545094141E+02  0.47787262461E+02  0.19999960863E+02 0.  0.
         12    1    1    2    0    0  0.26147683058E+02 -0.25407700241E+02  0.23545094141E+02  0.43400737539E+02  0.00000000000E+00 0. -1.
         11    1    3    3    0    0  0.17399334763E+00  0.68876229825E+01 -0.55870027454E-01  0.68900468616E+01  0.51100000000E-03 0. -1.
        -11    1    3    3    0    0 -0.16737012706E+01 -0.10641109367E+01 -0.11170363956E+01  0.22762641760E+01  0.51100000000E-03 0.  1.
        -12    1    3    3    0    0 -0.24647975135E+02  0.19584188195E+02 -0.22372187718E+02  0.38620951423E+02  0.00000000000E+00 0.  1.
</event>
<event>
 7    1  0.4005571E-009  0.4778727E+02  0.7816164E-02  0.1312668E+00
        -11   -1    0    0    0    0  0.00000000000E+00  0.00000000000E+00  0.45593999997E+02  0.45594000000E+02  0.51100000000E-03 0.  1.
         11   -1    0    0    0    0 -0.00000000000E+00 -0.00000000000E+00 -0.45593999997E+02  0.45594000000E+02  0.51100000000E-03 0. -1.
    9900012    2    1    2    0    0  0.51377324236E+01 -0.39795291790E+02  0.16539716781E+02  0.47787265280E+02  0.19999973715E+02 0.  0.
         12    1    1    2    0    0 -0.51377324236E+01  0.39795291790E+02 -0.16539716781E+02  0.43400734720E+02  0.00000000000E+00 0. -1.
         11    1    3    3    0    0  0.35383985755E+00  0.10721902038E+01  0.47063528638E+00  0.12232302775E+01  0.51100000000E-03 0. -1.
        -11    1    3    3    0    0  0.70057024122E+00 -0.19395615390E+02  0.15265763761E+02  0.24692594811E+02  0.51100000000E-03 0.  1.
        -12    1    3    3    0    0  0.40833223248E+01 -0.21471866603E+02  0.80331773283E+00  0.21871440191E+02  0.00000000000E+00 0.  1.
</event>
<event>
 7    1  0.4005571E-009  0.4778729E+02  0.7816164E-02  0.1312668E+00
        -11   -1    0    0    0    0  0.00000000000E+00  0.00000000000E+00  0.45593999997E+02  0.45594000000E+02  0.51100000000E-03 0. -1.
         11   -1    0    0    0    0 -0.00000000000E+00 -0.00000000000E+00 -0.45593999997E+02  0.45594000000E+02  0.51100000000E-03 0.  1.
    9900012    2    1    2    0    0 -0.34561381575E+02  0.26123543431E+02 -0.25871344655E+01  0.47787287074E+02  0.20000073084E+02 0.  0.
         12    1    1    2    0    0  0.34561381575E+02 -0.26123543431E+02  0.25871344655E+01  0.43400712926E+02  0.00000000000E+00 0. -1.
         11    1    3    3    0    0 -0.38902562231E+01  0.44969035979E+01  0.24278232452E+01  0.64226599958E+01  0.51100000000E-03 0. -1.
        -11    1    3    3    0    0 -0.32757920447E+02  0.20369047042E+02 -0.42336136014E+01  0.38805964925E+02  0.51100000000E-03 0.  1.
        -12    1    3    3    0    0  0.20867950947E+01  0.12575927912E+01 -0.78134410923E+00  0.25586621529E+01  0.00000000000E+00 0.  1.
</event>
<event>
 7    1  0.4005571E-009  0.4778727E+02  0.7816164E-02  0.1312668E+00
        -11   -1    0    0    0    0  0.00000000000E+00  0.00000000000E+00  0.45593999997E+02  0.45594000000E+02  0.51100000000E-03 0.  1.
         11   -1    0    0    0    0 -0.00000000000E+00 -0.00000000000E+00 -0.45593999997E+02  0.45594000000E+02  0.51100000000E-03 0. -1.
    9900012    2    1    2    0    0 -0.33391650221E+02  0.78557688667E+01  0.26587738086E+02  0.47787271602E+02  0.20000002542E+02 0.  0.
         12    1    1    2    0    0  0.33391650221E+02 -0.78557688667E+01 -0.26587738086E+02  0.43400728398E+02  0.00000000000E+00 0. -1.
         11    1    3    3    0    0 -0.11110929574E+02  0.44334508391E+01  0.87361199396E+01  0.14813103463E+02  0.51100000000E-03 0. -1.
        -11    1    3    3    0    0 -0.21156856353E+02  0.82222655448E+01  0.15677557514E+02  0.27586301515E+02  0.51100000000E-03 0.  1.
         12    1    3    3    0    0 -0.11238642932E+01 -0.47999475172E+01  0.21740606327E+01  0.53878666235E+01  0.00000000000E+00 0. -1.
</event>
<event>
 7    1  0.4005571E-009  0.4778727E+02  0.7816164E-02  0.1312668E+00
        -11   -1    0    0    0    0  0.00000000000E+00  0.00000000000E+00  0.45593999997E+02  0.45594000000E+02  0.51100000000E-03 0. -1.
         11   -1    0    0    0    0 -0.00000000000E+00 -0.00000000000E+00 -0.45593999997E+02  0.45594000000E+02  0.51100000000E-03 0.  1.
    9900012    2    1    2    0    0  0.30275334895E+02  0.30674086746E+02 -0.51115484983E+01  0.47787269260E+02  0.19999991865E+02 0.  0.
         12    1    1    2    0    0 -0.30275334895E+02 -0.30674086746E+02  0.51115484983E+01  0.43400730740E+02  0.00000000000E+00 0. -1.
         11    1    3    3    0    0  0.12673573707E+02  0.57686473065E+01  0.19738383686E+01  0.14063882836E+02  0.51100000000E-03 0. -1.
        -11    1    3    3    0    0  0.73605976136E+01  0.20329601503E+01 -0.35273255794E+01  0.84115010673E+01  0.51100000000E-03 0.  1.
         12    1    3    3    0    0  0.10241163574E+02  0.22872479289E+02 -0.35580612875E+01  0.25311885357E+02  0.00000000000E+00 0. -1.
</event>
<event>
 7    1  0.4005571E-009  0.4778727E+02  0.7816164E-02  0.1312668E+00
        -11   -1    0    0    0    0  0.00000000000E+00  0.00000000000E+00  0.45593999997E+02  0.45594000000E+02  0.51100000000E-03 0.  1.
         11   -1    0    0    0    0 -0.00000000000E+00 -0.00000000000E+00 -0.45593999997E+02  0.45594000000E+02  0.51100000000E-03 0. -1.
    9900012    2    1    2    0    0 -0.18208728798E+02  0.37906052568E+02  0.10732967307E+02  0.47787271746E+02  0.20000003200E+02 0.  0.
         12    1    1    2    0    0  0.18208728798E+02 -0.37906052568E+02 -0.10732967307E+02  0.43400728254E+02  0.00000000000E+00 0. -1.
         11    1    3    3    0    0 -0.15909422817E+01  0.52464477664E+01  0.86118031121E+01  0.10208793494E+02  0.51100000000E-03 0. -1.
        -11    1    3    3    0    0 -0.55899118020E+00  0.84095314867E+01  0.21461412531E+00  0.84308214576E+01  0.51100000000E-03 0.  1.
         12    1    3    3    0    0 -0.16058795336E+02  0.24250073315E+02  0.19065500693E+01  0.29147656794E+02  0.00000000000E+00 0. -1.
</event>
<event>
 7    1  0.4005571E-009  0.4778728E+02  0.7816164E-02  0.1312668E+00
        -11   -1    0    0    0    0  0.00000000000E+00  0.00000000000E+00  0.45593999997E+02  0.45594000000E+02  0.51100000000E-03 0.  1.
         11   -1    0    0    0    0 -0.00000000000E+00 -0.00000000000E+00 -0.45593999997E+02  0.45594000000E+02  0.51100000000E-03 0. -1.
    9900012    2    1    2    0    0  0.49076382862E+01  0.27147106897E+02  0.33504811346E+02  0.47787277544E+02  0.20000029634E+02 0.  0.
         12    1    1    2    0    0 -0.49076382862E+01 -0.27147106897E+02 -0.33504811346E+02  0.43400722456E+02  0.00000000000E+00 0. -1.
         11    1    3    3    0    0 -0.28688670019E+00 -0.46726886147E+00 -0.43068402285E+00  0.69723249802E+00  0.51100000000E-03 0. -1.
        -11    1    3    3    0    0  0.50564703507E+01  0.44765395863E+00  0.29094183256E+01  0.58508975148E+01  0.51100000000E-03 0.  1.
         12    1    3    3    0    0  0.13805463563E+00  0.27166721799E+02  0.31026077043E+02  0.41239147531E+02  0.00000000000E+00 0. -1.
</event>
<event>
 7    1  0.4005571E-009  0.4778728E+02  0.7816164E-02  0.1312668E+00
        -11   -1    0    0    0    0  0.00000000000E+00  0.00000000000E+00  0.45593999997E+02  0.45594000000E+02  0.51100000000E-03 0.  1.
         11   -1    0    0    0    0 -0.00000000000E+00 -0.00000000000E+00 -0.45593999997E+02  0.45594000000E+02  0.51100000000E-03 0. -1.
    9900012    2    1    2    0    0 -0.26026962471E+01  0.38092242513E+02 -0.20635641271E+02  0.47787278138E+02  0.20000032344E+02 0.  0.
         12    1    1    2    0    0  0.26026962471E+01 -0.38092242513E+02  0.20635641271E+02  0.43400721862E+02  0.00000000000E+00 0. -1.
         11    1    3    3    0    0 -0.67183422160E+00  0.45090212547E+01  0.17082856623E+01  0.48683543484E+01  0.51100000000E-03 0. -1.
        -11    1    3    3    0    0 -0.19889431662E+01  0.27873406441E+02 -0.10649249330E+02  0.29904668416E+02  0.51100000000E-03 0.  1.
         12    1    3    3    0    0  0.58081140710E-01  0.57098148177E+01 -0.11694677604E+02  0.13014255374E+02  0.00000000000E+00 0. -1.
</event>
<event>
 7    1  0.4005571E-009  0.4778726E+02  0.7816164E-02  0.1312668E+00
        -11   -1    0    0    0    0  0.00000000000E+00  0.00000000000E+00  0.45593999997E+02  0.45594000000E+02  0.51100000000E-03 0.  1.
         11   -1    0    0    0    0 -0.00000000000E+00 -0.00000000000E+00 -0.45593999997E+02  0.45594000000E+02  0.51100000000E-03 0. -1.
    9900012    2    1    2    0    0  0.11258599542E+02  0.11971996090E+02  0.40168884860E+02  0.47787261931E+02  0.19999958447E+02 0.  0.
         12    1    1    2    0    0 -0.11258599542E+02 -0.11971996090E+02 -0.40168884860E+02  0.43400738069E+02  0.00000000000E+00 0. -1.
         11    1    3    3    0    0 -0.62649089706E+00  0.98888648703E+00 -0.13140435720E+01  0.17598574086E+01  0.51100000000E-03 0. -1.
        -11    1    3    3    0    0  0.47628216638E+01  0.53297658323E+00  0.33371998546E+01  0.58399860762E+01  0.51100000000E-03 0.  1.
        -12    1    3    3    0    0  0.71222687755E+01  0.10450133020E+02  0.38145728578E+02  0.40187418446E+02  0.00000000000E+00 0.  1.
</event>
<event>
 7    1  0.4005571E-009  0.4778727E+02  0.7816164E-02  0.1312668E+00
        -11   -1    0    0    0    0  0.00000000000E+00  0.00000000000E+00  0.45593999997E+02  0.45594000000E+02  0.51100000000E-03 0.  1.
         11   -1    0    0    0    0 -0.00000000000E+00 -0.00000000000E+00 -0.45593999997E+02  0.45594000000E+02  0.51100000000E-03 0. -1.
    9900012    2    1    2    0    0 -0.17291300277E+02 -0.24391696795E+02  0.31459171858E+02  0.47787269225E+02  0.19999991704E+02 0.  0.
         12    1    1    2    0    0  0.17291300277E+02  0.24391696795E+02 -0.31459171858E+02  0.43400730775E+02  0.00000000000E+00 0. -1.
         11    1    3    3    0    0 -0.28438868130E+01 -0.50451472156E+01 -0.12273129152E+01  0.59200928950E+01  0.51100000000E-03 0. -1.
        -11    1    3    3    0    0 -0.53820989769E+01 -0.99994389537E+01  0.77892817718E+01  0.13770572957E+02  0.51100000000E-03 0.  1.
        -12    1    3    3    0    0 -0.90653144874E+01 -0.93471106262E+01  0.24897203001E+02  0.28096603373E+02  0.00000000000E+00 0.  1.
</event>
<event>
 7    1  0.4005571E-009  0.4778727E+02  0.7816164E-02  0.1312668E+00
        -11   -1    0    0    0    0  0.00000000000E+00  0.00000000000E+00  0.45593999997E+02  0.45594000000E+02  0.51100000000E-03 0.  1.
         11   -1    0    0    0    0 -0.00000000000E+00 -0.00000000000E+00 -0.45593999997E+02  0.45594000000E+02  0.51100000000E-03 0. -1.
    9900012    2    1    2    0    0 -0.37854492952E+02 -0.17325381496E+02  0.12267507888E+02  0.47787271545E+02  0.20000002282E+02 0.  0.
         12    1    1    2    0    0  0.37854492952E+02  0.17325381496E+02 -0.12267507888E+02  0.43400728455E+02  0.00000000000E+00 0. -1.
         11    1    3    3    0    0 -0.13888705464E+02 -0.77353759011E+01  0.28892777262E+01  0.16157973445E+02  0.51100000000E-03 0. -1.
        -11    1    3    3    0    0 -0.25473756149E+02 -0.11347856695E+02  0.87936354785E+01  0.29240624636E+02  0.51100000000E-03 0.  1.
         12    1    3    3    0    0  0.15079686613E+01  0.17578511002E+01  0.58459468341E+00  0.23886734640E+01  0.00000000000E+00 0. -1.
</event>
<event>
 7    1  0.4005571E-009  0.4778727E+02  0.7816164E-02  0.1312668E+00
        -11   -1    0    0    0    0  0.00000000000E+00  0.00000000000E+00  0.45593999997E+02  0.45594000000E+02  0.51100000000E-03 0.  1.
         11   -1    0    0    0    0 -0.00000000000E+00 -0.00000000000E+00 -0.45593999997E+02  0.45594000000E+02  0.51100000000E-03 0. -1.
    9900012    2    1    2    0    0 -0.41421437320E+02  0.13495712617E+01  0.12886684056E+02  0.47787269152E+02  0.19999991371E+02 0.  0.
         12    1    1    2    0    0  0.41421437320E+02 -0.13495712617E+01 -0.12886684056E+02  0.43400730848E+02  0.00000000000E+00 0. -1.
         11    1    3    3    0    0 -0.14849962404E+02 -0.88521313681E+00  0.11568773470E+02  0.18845198475E+02  0.51100000000E-03 0. -1.
        -11    1    3    3    0    0 -0.16806687323E+02 -0.37071979829E+01  0.27254309183E+01  0.17425155082E+02  0.51100000000E-03 0.  1.
         12    1    3    3    0    0 -0.97647875923E+01  0.59419823815E+01 -0.14075203326E+01  0.11516915595E+02  0.00000000000E+00 0. -1.
</event>
<event>
 7    1  0.4005571E-009  0.4778733E+02  0.7816164E-02  0.1312667E+00
        -11   -1    0    0    0    0  0.00000000000E+00  0.00000000000E+00  0.45593999997E+02  0.45594000000E+02  0.51100000000E-03 0.  1.
         11   -1    0    0    0    0 -0.00000000000E+00 -0.00000000000E+00 -0.45593999997E+02  0.45594000000E+02  0.51100000000E-03 0. -1.
    9900012    2    1    2    0    0  0.18254207996E+01  0.19765595696E+02  0.38595429912E+02  0.47787330139E+02  0.20000269434E+02 0.  0.
         12    1    1    2    0    0 -0.18254207996E+01 -0.19765595696E+02 -0.38595429912E+02  0.43400669861E+02  0.00000000000E+00 0. -1.
         11    1    3    3    0    0  0.30167404739E+01  0.12201309932E+02  0.12094802070E+02  0.17442962034E+02  0.51100000000E-03 0.  1.
        -11    1    3    3    0    0 -0.42090696633E+00  0.42452294899E+01  0.70406355364E+00  0.43237532127E+01  0.51100000000E-03 0. -1.
         12    1    3    3    0    0 -0.77041270798E+00  0.33190562737E+01  0.25796564289E+02  0.26020614892E+02  0.00000000000E+00 0. -1.
</event>
<event>
 7    1  0.4005571E-009  0.4778727E+02  0.7816164E-02  0.1312668E+00
        -11   -1    0    0    0    0  0.00000000000E+00  0.00000000000E+00  0.45593999997E+02  0.45594000000E+02  0.51100000000E-03 0.  1.
         11   -1    0    0    0    0 -0.00000000000E+00 -0.00000000000E+00 -0.45593999997E+02  0.45594000000E+02  0.51100000000E-03 0. -1.
    9900012    2    1    2    0    0  0.25856955202E+02  0.15449762023E+02  0.31246536021E+02  0.47787270833E+02  0.19999999036E+02 0.  0.
         12    1    1    2    0    0 -0.25856955202E+02 -0.15449762023E+02 -0.31246536021E+02  0.43400729167E+02  0.00000000000E+00 0. -1.
         11    1    3    3    0    0  0.23317727191E+01  0.43292937969E+01  0.38588814955E+01  0.62506731998E+01  0.51100000000E-03 0. -1.
        -11    1    3    3    0    0  0.15536205334E+02  0.64111685655E+01  0.27537975198E+02  0.32261693025E+02  0.51100000000E-03 0.  1.
         12    1    3    3    0    0  0.79889771492E+01  0.47092996610E+01 -0.15032067244E+00  0.92749046083E+01  0.00000000000E+00 0. -1.
</event>
<event>
 7    1  0.4005571E-009  0.4778727E+02  0.7816164E-02  0.1312668E+00
        -11   -1    0    0    0    0  0.00000000000E+00  0.00000000000E+00  0.45593999997E+02  0.45594000000E+02  0.51100000000E-03 0. -1.
         11   -1    0    0    0    0 -0.00000000000E+00 -0.00000000000E+00 -0.45593999997E+02  0.45594000000E+02  0.51100000000E-03 0.  1.
    9900012    2    1    2    0    0  0.59100840498E+01  0.42455378371E+02 -0.67996199454E+01  0.47787273307E+02  0.20000010316E+02 0.  0.
         12    1    1    2    0    0 -0.59100840498E+01 -0.42455378371E+02  0.67996199454E+01  0.43400726693E+02  0.00000000000E+00 0. -1.
         11    1    3    3    0    0 -0.58506711030E+00 -0.12769940423E+01 -0.13320298298E+01  0.19357998440E+01  0.51100000000E-03 0. -1.
        -11    1    3    3    0    0  0.18720825696E+00  0.35229814297E+01 -0.36993499301E+01  0.51119111154E+01  0.51100000000E-03 0.  1.
         12    1    3    3    0    0  0.63079429031E+01  0.40209390983E+02 -0.17682401855E+01  0.40739562348E+02  0.00000000000E+00 0. -1.
</event>
<event>
 7    1  0.4005571E-009  0.4778728E+02  0.7816164E-02  0.1312668E+00
        -11   -1    0    0    0    0  0.00000000000E+00  0.00000000000E+00  0.45593999997E+02  0.45594000000E+02  0.51100000000E-03 0. -1.
         11   -1    0    0    0    0 -0.00000000000E+00 -0.00000000000E+00 -0.45593999997E+02  0.45594000000E+02  0.51100000000E-03 0.  1.
    9900012    2    1    2    0    0 -0.20364801938E+02 -0.38310037410E+02  0.11129674029E+01  0.47787276264E+02  0.20000023800E+02 0.  0.
         12    1    1    2    0    0  0.20364801938E+02  0.38310037410E+02 -0.11129674029E+01  0.43400723736E+02  0.00000000000E+00 0. -1.
         11    1    3    3    0    0  0.17682938361E+01 -0.74023328297E+00 -0.23667672147E+01  0.30457176024E+01  0.51100000000E-03 0. -1.
        -11    1    3    3    0    0 -0.24435036728E+01 -0.12379003162E+02  0.45511176827E+00  0.12626066547E+02  0.51100000000E-03 0.  1.
        -12    1    3    3    0    0 -0.19689592101E+02 -0.25190800966E+02  0.30246228493E+01  0.32115492115E+02  0.00000000000E+00 0.  1.
</event>
<event>
 7    1  0.4005571E-009  0.4778728E+02  0.7816164E-02  0.1312668E+00
        -11   -1    0    0    0    0  0.00000000000E+00  0.00000000000E+00  0.45593999997E+02  0.45594000000E+02  0.51100000000E-03 0.  1.
         11   -1    0    0    0    0 -0.00000000000E+00 -0.00000000000E+00 -0.45593999997E+02  0.45594000000E+02  0.51100000000E-03 0. -1.
    9900012    2    1    2    0    0  0.13992757878E+02  0.23795218417E+02  0.33490491612E+02  0.47787277414E+02  0.20000029041E+02 0.  0.
         12    1    1    2    0    0 -0.13992757878E+02 -0.23795218417E+02 -0.33490491612E+02  0.43400722586E+02  0.00000000000E+00 0. -1.
         11    1    3    3    0    0  0.48319680091E+01 -0.23801667655E+01  0.38350720193E+01  0.66121771245E+01  0.51100000000E-03 0. -1.
        -11    1    3    3    0    0  0.43652140035E+01  0.68236785360E+01  0.52135778955E+01  0.96332277453E+01  0.51100000000E-03 0.  1.
         12    1    3    3    0    0  0.47955758656E+01  0.19351706647E+02  0.24441841697E+02  0.31541872544E+02  0.00000000000E+00 0. -1.
</event>
<event>
 7    1  0.4005571E-009  0.4778726E+02  0.7816164E-02  0.1312668E+00
        -11   -1    0    0    0    0  0.00000000000E+00  0.00000000000E+00  0.45593999997E+02  0.45594000000E+02  0.51100000000E-03 0.  1.
         11   -1    0    0    0    0 -0.00000000000E+00 -0.00000000000E+00 -0.45593999997E+02  0.45594000000E+02  0.51100000000E-03 0. -1.
    9900012    2    1    2    0    0  0.23946812286E+02 -0.10181539048E+02  0.34734859001E+02  0.47787262842E+02  0.19999962601E+02 0.  0.
         12    1    1    2    0    0 -0.23946812286E+02  0.10181539048E+02 -0.34734859001E+02  0.43400737158E+02  0.00000000000E+00 0. -1.
         11    1    3    3    0    0  0.50215875803E+01 -0.62763247897E+01  0.19168242462E+02  0.20785334110E+02  0.51100000000E-03 0. -1.
        -11    1    3    3    0    0  0.14965864448E+02 -0.48392824157E+01  0.16534081923E+02  0.22820421080E+02  0.51100000000E-03 0.  1.
        -12    1    3    3    0    0  0.39593602577E+01  0.93406815764E+00 -0.96746538422E+00  0.41815076519E+01  0.00000000000E+00 0.  1.
</event>
<event>
 7    1  0.4005571E-009  0.4778727E+02  0.7816164E-02  0.1312668E+00
        -11   -1    0    0    0    0  0.00000000000E+00  0.00000000000E+00  0.45593999997E+02  0.45594000000E+02  0.51100000000E-03 0.  1.
         11   -1    0    0    0    0 -0.00000000000E+00 -0.00000000000E+00 -0.45593999997E+02  0.45594000000E+02  0.51100000000E-03 0. -1.
    9900012    2    1    2    0    0  0.35864590164E+02  0.18885636311E+02  0.15514087807E+02  0.47787274119E+02  0.20000014020E+02 0.  0.
         12    1    1    2    0    0 -0.35864590164E+02 -0.18885636311E+02 -0.15514087807E+02  0.43400725881E+02  0.00000000000E+00 0. -1.
         11    1    3    3    0    0  0.20616514852E+02  0.11680872665E+02  0.50283999593E+01  0.24223300296E+02  0.51100000000E-03 0. -1.
        -11    1    3    3    0    0  0.12146359733E+02  0.10665667418E+02  0.96973268818E+01  0.18850163531E+02  0.51100000000E-03 0.  1.
         12    1    3    3    0    0  0.31017155788E+01 -0.34609037723E+01  0.78836096643E+00  0.47138102917E+01  0.00000000000E+00 0. -1.
</event>
<event>
 7    1  0.4005571E-009  0.4778730E+02  0.7816164E-02  0.1312668E+00
        -11   -1    0    0    0    0  0.00000000000E+00  0.00000000000E+00  0.45593999997E+02  0.45594000000E+02  0.51100000000E-03 0. -1.
         11   -1    0    0    0    0 -0.00000000000E+00 -0.00000000000E+00 -0.45593999997E+02  0.45594000000E+02  0.51100000000E-03 0.  1.
    9900012    2    1    2    0    0  0.20365505895E+02 -0.15781870771E+02 -0.34925627873E+02  0.47787300032E+02  0.20000132165E+02 0.  0.
         12    1    1    2    0    0 -0.20365505895E+02  0.15781870771E+02  0.34925627873E+02  0.43400699968E+02  0.00000000000E+00 0. -1.
         11    1    3    3    0    0  0.45286795528E+01 -0.11482036194E+02 -0.87008768551E+01  0.15101369208E+02  0.51100000000E-03 0.  1.
        -11    1    3    3    0    0  0.79906165032E+01 -0.20696776341E+01 -0.43300086032E+01  0.93210778548E+01  0.51100000000E-03 0. -1.
        -12    1    3    3    0    0  0.78462098389E+01 -0.22301569423E+01 -0.21894742415E+02  0.23364852969E+02  0.00000000000E+00 0.  1.
</event>
<event>
 7    1  0.4005571E-009  0.4778727E+02  0.7816164E-02  0.1312668E+00
        -11   -1    0    0    0    0  0.00000000000E+00  0.00000000000E+00  0.45593999997E+02  0.45594000000E+02  0.51100000000E-03 0. -1.
         11   -1    0    0    0    0 -0.00000000000E+00 -0.00000000000E+00 -0.45593999997E+02  0.45594000000E+02  0.51100000000E-03 0.  1.
    9900012    2    1    2    0    0 -0.25925259646E+02  0.10688163978E+02 -0.33125022932E+02  0.47787273264E+02  0.20000010121E+02 0.  0.
         12    1    1    2    0    0  0.25925259646E+02 -0.10688163978E+02  0.33125022932E+02  0.43400726736E+02  0.00000000000E+00 0. -1.
         11    1    3    3    0    0 -0.11176551597E+02 -0.20038455297E+01 -0.70632381533E+01  0.13372360898E+02  0.51100000000E-03 0. -1.
        -11    1    3    3    0    0 -0.14037660951E+02  0.59859736847E+01 -0.21110439389E+02  0.26048770746E+02  0.51100000000E-03 0.  1.
         12    1    3    3    0    0 -0.71104709770E+00  0.67060358233E+01 -0.49513453899E+01  0.83661416202E+01  0.00000000000E+00 0. -1.
</event>
<event>
 7    1  0.4005571E-009  0.4778728E+02  0.7816164E-02  0.1312668E+00
        -11   -1    0    0    0    0  0.00000000000E+00  0.00000000000E+00  0.45593999997E+02  0.45594000000E+02  0.51100000000E-03 0. -1.
         11   -1    0    0    0    0 -0.00000000000E+00 -0.00000000000E+00 -0.45593999997E+02  0.45594000000E+02  0.51100000000E-03 0.  1.
    9900012    2    1    2    0    0 -0.29264509291E+02 -0.61679668326E+01 -0.31451034985E+02  0.47787275115E+02  0.20000018561E+02 0.  0.
         12    1    1    2    0    0  0.29264509291E+02  0.61679668326E+01  0.31451034985E+02  0.43400724885E+02  0.00000000000E+00 0. -1.
         11    1    3    3    0    0  0.20583077753E+01 -0.18281201225E+01 -0.25118099435E+01  0.37266397108E+01  0.51100000000E-03 0. -1.
        -11    1    3    3    0    0 -0.10058440680E+02 -0.54231940208E+01 -0.65843473592E+01  0.13188513666E+02  0.51100000000E-03 0.  1.
        -12    1    3    3    0    0 -0.21264376386E+02  0.10833473107E+01 -0.22354877682E+02  0.30872121739E+02  0.00000000000E+00 0.  1.
</event>
<event>
 7    1  0.4005571E-009  0.4778727E+02  0.7816164E-02  0.1312668E+00
        -11   -1    0    0    0    0  0.00000000000E+00  0.00000000000E+00  0.45593999997E+02  0.45594000000E+02  0.51100000000E-03 0.  1.
         11   -1    0    0    0    0 -0.00000000000E+00 -0.00000000000E+00 -0.45593999997E+02  0.45594000000E+02  0.51100000000E-03 0. -1.
    9900012    2    1    2    0    0 -0.71238741838E+01 -0.42810295901E+02 -0.39019339549E+00  0.47787271096E+02  0.20000000234E+02 0.  0.
         12    1    1    2    0    0  0.71238741838E+01  0.42810295901E+02  0.39019339549E+00  0.43400728904E+02  0.00000000000E+00 0. -1.
         11    1    3    3    0    0 -0.55328631966E+01 -0.28651025001E+02  0.60563524318E+01  0.29802235047E+02  0.51100000000E-03 0. -1.
        -11    1    3    3    0    0 -0.34265297106E+01 -0.89334481574E+01 -0.10961327212E+00  0.95686789668E+01  0.51100000000E-03 0.  1.
        -12    1    3    3    0    0  0.18355187235E+01 -0.52258227427E+01 -0.63369325552E+01  0.84163570820E+01  0.00000000000E+00 0.  1.
</event>
<event>
 7    1  0.4005571E-009  0.4778727E+02  0.7816164E-02  0.1312668E+00
        -11   -1    0    0    0    0  0.00000000000E+00  0.00000000000E+00  0.45593999997E+02  0.45594000000E+02  0.51100000000E-03 0.  1.
         11   -1    0    0    0    0 -0.00000000000E+00 -0.00000000000E+00 -0.45593999997E+02  0.45594000000E+02  0.51100000000E-03 0. -1.
    9900012    2    1    2    0    0 -0.28426663098E+02  0.56419198943E+01  0.32306610342E+02  0.47787268361E+02  0.19999987767E+02 0.  0.
         12    1    1    2    0    0  0.28426663098E+02 -0.56419198943E+01 -0.32306610342E+02  0.43400731639E+02  0.00000000000E+00 0. -1.
         11    1    3    3    0    0 -0.62853249165E+01 -0.47289901686E+01  0.39823990666E+01  0.88163575193E+01  0.51100000000E-03 0. -1.
        -11    1    3    3    0    0 -0.15842189690E+02  0.16757003368E+01  0.15254877906E+02  0.22056614563E+02  0.51100000000E-03 0.  1.
        -12    1    3    3    0    0 -0.62991484922E+01  0.86952097262E+01  0.13069333369E+02  0.16914296279E+02  0.00000000000E+00 0.  1.
</event>
<event>
 7    1  0.4005571E-009  0.4778729E+02  0.7816164E-02  0.1312668E+00
        -11   -1    0    0    0    0  0.00000000000E+00  0.00000000000E+00  0.45593999997E+02  0.45594000000E+02  0.51100000000E-03 0.  1.
         11   -1    0    0    0    0 -0.00000000000E+00 -0.00000000000E+00 -0.45593999997E+02  0.45594000000E+02  0.51100000000E-03 0. -1.
    9900012    2    1    2    0    0 -0.17863689067E+02  0.26431837844E+02  0.29425644916E+02  0.47787285517E+02  0.20000065986E+02 0.  0.
         12    1    1    2    0    0  0.17863689067E+02 -0.26431837844E+02 -0.29425644916E+02  0.43400714483E+02  0.00000000000E+00 0. -1.
         11    1    3    3    0    0 -0.77060238532E+00  0.69422943556E+01 -0.15978503739E+00  0.69867596549E+01  0.51100000000E-03 0. -1.
        -11    1    3    3    0    0 -0.29638542787E+01  0.72735982620E+01  0.32181034929E+01  0.84879829296E+01  0.51100000000E-03 0.  1.
        -12    1    3    3    0    0 -0.14129232403E+02  0.12215945227E+02  0.26367326461E+02  0.32312542932E+02  0.00000000000E+00 0.  1.
</event>
<event>
 7    1  0.4005571E-009  0.4778727E+02  0.7816164E-02  0.1312668E+00
        -11   -1    0    0    0    0  0.00000000000E+00  0.00000000000E+00  0.45593999997E+02  0.45594000000E+02  0.51100000000E-03 0.  1.
         11   -1    0    0    0    0 -0.00000000000E+00 -0.00000000000E+00 -0.45593999997E+02  0.45594000000E+02  0.51100000000E-03 0. -1.
    9900012    2    1    2    0    0  0.25207931092E+02 -0.22527478329E+01  0.35257747360E+02  0.47787269457E+02  0.19999992763E+02 0.  0.
         12    1    1    2    0    0 -0.25207931092E+02  0.22527478329E+01 -0.35257747360E+02  0.43400730543E+02  0.00000000000E+00 0. -1.
         11    1    3    3    0    0  0.35201840711E+01  0.94341533171E+00  0.49564486894E+01  0.61520819447E+01  0.51100000000E-03 0. -1.
        -11    1    3    3    0    0  0.22688491285E+02 -0.62729188845E+01  0.30338245255E+02  0.38399560851E+02  0.51100000000E-03 0.  1.
         12    1    3    3    0    0 -0.10007442636E+01  0.30767557200E+01 -0.36946585002E-01  0.32356266613E+01  0.00000000000E+00 0. -1.
</event>
<event>
 7    1  0.4005571E-009  0.4778727E+02  0.7816164E-02  0.1312668E+00
        -11   -1    0    0    0    0  0.00000000000E+00  0.00000000000E+00  0.45593999997E+02  0.45594000000E+02  0.51100000000E-03 0. -1.
         11   -1    0    0    0    0 -0.00000000000E+00 -0.00000000000E+00 -0.45593999997E+02  0.45594000000E+02  0.51100000000E-03 0.  1.
    9900012    2    1    2    0    0 -0.36087253230E+02  0.81755013557E+01 -0.22682474780E+02  0.47787270395E+02  0.19999997039E+02 0.  0.
         12    1    1    2    0    0  0.36087253230E+02 -0.81755013557E+01  0.22682474780E+02  0.43400729605E+02  0.00000000000E+00 0. -1.
         11    1    3    3    0    0 -0.14661396523E+02 -0.36276854973E+01 -0.24754114512E+01  0.15305042051E+02  0.51100000000E-03 0. -1.
        -11    1    3    3    0    0 -0.16672294230E+02  0.67855941437E+01 -0.11479275909E+02  0.21349085658E+02  0.51100000000E-03 0.  1.
        -12    1    3    3    0    0 -0.47535624763E+01  0.50175927092E+01 -0.87277874195E+01  0.11133142685E+02  0.00000000000E+00 0.  1.
</event>
<event>
 7    1  0.4005571E-009  0.4778727E+02  0.7816164E-02  0.1312668E+00
        -11   -1    0    0    0    0  0.00000000000E+00  0.00000000000E+00  0.45593999997E+02  0.45594000000E+02  0.51100000000E-03 0.  1.
         11   -1    0    0    0    0 -0.00000000000E+00 -0.00000000000E+00 -0.45593999997E+02  0.45594000000E+02  0.51100000000E-03 0. -1.
    9900012    2    1    2    0    0 -0.78617021032E+01 -0.21745630316E+02  0.36727977659E+02  0.47787272579E+02  0.20000006996E+02 0.  0.
         12    1    1    2    0    0  0.78617021032E+01  0.21745630316E+02 -0.36727977659E+02  0.43400727421E+02  0.00000000000E+00 0. -1.
         11    1    3    3    0    0  0.13573610794E+00 -0.13397658537E+02  0.26517066775E+02  0.29709771274E+02  0.51100000000E-03 0.  1.
        -11    1    3    3    0    0  0.14838826404E+01 -0.34002885361E+01  0.72078871906E+00  0.37793394208E+01  0.51100000000E-03 0. -1.
        -12    1    3    3    0    0 -0.94813208515E+01 -0.49476832424E+01  0.94901221648E+01  0.14298161884E+02  0.00000000000E+00 0.  1.
</event>
<event>
 7    1  0.4005571E-009  0.4778727E+02  0.7816164E-02  0.1312668E+00
        -11   -1    0    0    0    0  0.00000000000E+00  0.00000000000E+00  0.45593999997E+02  0.45594000000E+02  0.51100000000E-03 0. -1.
         11   -1    0    0    0    0 -0.00000000000E+00 -0.00000000000E+00 -0.45593999997E+02  0.45594000000E+02  0.51100000000E-03 0.  1.
    9900012    2    1    2    0    0 -0.13228479915E+02 -0.41220181113E+02 -0.30866591049E+01  0.47787268713E+02  0.19999989369E+02 0.  0.
         12    1    1    2    0    0  0.13228479915E+02  0.41220181113E+02  0.30866591049E+01  0.43400731287E+02  0.00000000000E+00 0. -1.
         11    1    3    3    0    0 -0.15058111229E+01 -0.61887253410E+01  0.16153369920E+01  0.65709285754E+01  0.51100000000E-03 0. -1.
        -11    1    3    3    0    0 -0.53476744717E+01 -0.31895221051E+02 -0.81022497829E+01  0.33339904018E+02  0.51100000000E-03 0.  1.
        -12    1    3    3    0    0 -0.63749943206E+01 -0.31362347210E+01  0.34002536860E+01  0.78764361193E+01  0.00000000000E+00 0.  1.
</event>
<event>
 7    1  0.4005571E-009  0.4778727E+02  0.7816164E-02  0.1312668E+00
        -11   -1    0    0    0    0  0.00000000000E+00  0.00000000000E+00  0.45593999997E+02  0.45594000000E+02  0.51100000000E-03 0.  1.
         11   -1    0    0    0    0 -0.00000000000E+00 -0.00000000000E+00 -0.45593999997E+02  0.45594000000E+02  0.51100000000E-03 0. -1.
    9900012    2    1    2    0    0 -0.12108887634E+01  0.83430956629E+01  0.42574048271E+02  0.47787273243E+02  0.20000010023E+02 0.  0.
         12    1    1    2    0    0  0.12108887634E+01 -0.83430956629E+01 -0.42574048271E+02  0.43400726757E+02  0.00000000000E+00 0. -1.
         11    1    3    3    0    0 -0.89613154324E+00 -0.66278207940E+00 -0.28434625633E+00  0.11502977363E+01  0.51100000000E-03 0. -1.
        -11    1    3    3    0    0 -0.54628363611E+01  0.89732734702E+01  0.38449766241E+02  0.39859086067E+02  0.51100000000E-03 0.  1.
         12    1    3    3    0    0  0.51480791409E+01  0.32604272064E-01  0.44086282870E+01  0.67778894394E+01  0.00000000000E+00 0. -1.
</event>
<event>
 7    1  0.4005571E-009  0.4778728E+02  0.7816164E-02  0.1312668E+00
        -11   -1    0    0    0    0  0.00000000000E+00  0.00000000000E+00  0.45593999997E+02  0.45594000000E+02  0.51100000000E-03 0.  1.
         11   -1    0    0    0    0 -0.00000000000E+00 -0.00000000000E+00 -0.45593999997E+02  0.45594000000E+02  0.51100000000E-03 0. -1.
    9900012    2    1    2    0    0 -0.28149454436E+02  0.33029026842E+02 -0.56014985741E+00  0.47787283796E+02  0.20000058137E+02 0.  0.
         12    1    1    2    0    0  0.28149454436E+02 -0.33029026842E+02  0.56014985741E+00  0.43400716204E+02  0.00000000000E+00 0. -1.
         11    1    3    3    0    0 -0.93914376543E+01  0.49828421601E+01 -0.43092747697E+01  0.11471602613E+02  0.51100000000E-03 0. -1.
        -11    1    3    3    0    0 -0.12269584425E+02  0.10754631832E+02 -0.31188435778E+01  0.16611200839E+02  0.51100000000E-03 0.  1.
        -12    1    3    3    0    0 -0.64884323573E+01  0.17291552850E+02  0.68679684901E+01  0.19704480344E+02  0.00000000000E+00 0.  1.
</event>
<event>
 7    1  0.4005571E-009  0.4778727E+02  0.7816164E-02  0.1312668E+00
        -11   -1    0    0    0    0  0.00000000000E+00  0.00000000000E+00  0.45593999997E+02  0.45594000000E+02  0.51100000000E-03 0. -1.
         11   -1    0    0    0    0 -0.00000000000E+00 -0.00000000000E+00 -0.45593999997E+02  0.45594000000E+02  0.51100000000E-03 0.  1.
    9900012    2    1    2    0    0  0.28182260144E+02 -0.24071012624E+02  0.22582513835E+02  0.47787269976E+02  0.19999995126E+02 0.  0.
         12    1    1    2    0    0 -0.28182260144E+02  0.24071012624E+02 -0.22582513835E+02  0.43400730024E+02  0.00000000000E+00 0. -1.
         11    1    3    3    0    0 -0.94276932031E+00 -0.24743920525E+01  0.74805147192E+01  0.79353343185E+01  0.51100000000E-03 0. -1.
        -11    1    3    3    0    0  0.21426253375E+01 -0.28757292877E+00 -0.29109993475E+00  0.21813484268E+01  0.51100000000E-03 0.  1.
        -12    1    3    3    0    0  0.26982404127E+02 -0.21309047643E+02  0.15393099050E+02  0.37670587230E+02  0.00000000000E+00 0.  1.
</event>
<event>
 7    1  0.4005571E-009  0.4778726E+02  0.7816164E-02  0.1312668E+00
        -11   -1    0    0    0    0  0.00000000000E+00  0.00000000000E+00  0.45593999997E+02  0.45594000000E+02  0.51100000000E-03 0.  1.
         11   -1    0    0    0    0 -0.00000000000E+00 -0.00000000000E+00 -0.45593999997E+02  0.45594000000E+02  0.51100000000E-03 0. -1.
    9900012    2    1    2    0    0 -0.26663738490E+02 -0.15571514529E+01  0.34208833949E+02  0.47787262782E+02  0.19999962330E+02 0.  0.
         12    1    1    2    0    0  0.26663738490E+02  0.15571514529E+01 -0.34208833949E+02  0.43400737218E+02  0.00000000000E+00 0. -1.
         11    1    3    3    0    0  0.19559062570E-02  0.10864779240E+01  0.42445940006E+01  0.43814400139E+01  0.51100000000E-03 0. -1.
        -11    1    3    3    0    0 -0.65039975934E+01  0.11636458419E+01  0.19054752857E+02  0.20167787758E+02  0.51100000000E-03 0.  1.
         12    1    3    3    0    0 -0.20161696803E+02 -0.38072752188E+01  0.10909487091E+02  0.23238035010E+02  0.00000000000E+00 0. -1.
</event>
<event>
 7    1  0.4005571E-009  0.4778727E+02  0.7816164E-02  0.1312668E+00
        -11   -1    0    0    0    0  0.00000000000E+00  0.00000000000E+00  0.45593999997E+02  0.45594000000E+02  0.51100000000E-03 0.  1.
         11   -1    0    0    0    0 -0.00000000000E+00 -0.00000000000E+00 -0.45593999997E+02  0.45594000000E+02  0.51100000000E-03 0. -1.
    9900012    2    1    2    0    0  0.13760568996E+02  0.22147238854E+02  0.34695388522E+02  0.47787269215E+02  0.19999991659E+02 0.  0.
         12    1    1    2    0    0 -0.13760568996E+02 -0.22147238854E+02 -0.34695388522E+02  0.43400730785E+02  0.00000000000E+00 0. -1.
         11    1    3    3    0    0  0.10529441840E+01  0.56751571389E+01  0.20059116723E+02  0.20873051142E+02  0.51100000000E-03 0. -1.
        -11    1    3    3    0    0  0.41044502917E+01  0.27397809990E+01 -0.20661044589E+00  0.49391902431E+01  0.51100000000E-03 0.  1.
        -12    1    3    3    0    0  0.86031745207E+01  0.13732300716E+02  0.14842882245E+02  0.21975027830E+02  0.00000000000E+00 0.  1.
</event>
<event>
 7    1  0.4005571E-009  0.4778727E+02  0.7816164E-02  0.1312668E+00
        -11   -1    0    0    0    0  0.00000000000E+00  0.00000000000E+00  0.45593999997E+02  0.45594000000E+02  0.51100000000E-03 0. -1.
         11   -1    0    0    0    0 -0.00000000000E+00 -0.00000000000E+00 -0.45593999997E+02  0.45594000000E+02  0.51100000000E-03 0.  1.
    9900012    2    1    2    0    0  0.33184147839E+02 -0.58352635077E+01 -0.27356628503E+02  0.47787273151E+02  0.20000009604E+02 0.  0.
         12    1    1    2    0    0 -0.33184147839E+02  0.58352635077E+01  0.27356628503E+02  0.43400726849E+02  0.00000000000E+00 0. -1.
         11    1    3    3    0    0  0.80650651534E+01 -0.81127009237E+00 -0.12232050141E+01  0.81975402322E+01  0.51100000000E-03 0. -1.
        -11    1    3    3    0    0  0.11969921970E+02 -0.92939588725E+01 -0.91961237393E+01  0.17726403910E+02  0.51100000000E-03 0.  1.
        -12    1    3    3    0    0  0.13149160715E+02  0.42699654571E+01 -0.16937299750E+02  0.21863329009E+02  0.00000000000E+00 0.  1.
</event>
<event>
 7    1  0.4005571E-009  0.4778727E+02  0.7816164E-02  0.1312668E+00
        -11   -1    0    0    0    0  0.00000000000E+00  0.00000000000E+00  0.45593999997E+02  0.45594000000E+02  0.51100000000E-03 0.  1.
         11   -1    0    0    0    0 -0.00000000000E+00 -0.00000000000E+00 -0.45593999997E+02  0.45594000000E+02  0.51100000000E-03 0. -1.
    9900012    2    1    2    0    0 -0.51270472589E+01 -0.30372974321E+02  0.30574814148E+02  0.47787269097E+02  0.19999991123E+02 0.  0.
         12    1    1    2    0    0  0.51270472589E+01  0.30372974321E+02 -0.30574814148E+02  0.43400730903E+02  0.00000000000E+00 0. -1.
         11    1    3    3    0    0 -0.82595096579E+01 -0.49814161274E+01  0.11594904911E+02  0.15082301767E+02  0.51100000000E-03 0. -1.
        -11    1    3    3    0    0  0.12219584358E+00 -0.79305753133E+00 -0.69568816797E+00  0.10620048777E+01  0.51100000000E-03 0.  1.
        -12    1    3    3    0    0  0.30102665554E+01 -0.24598500662E+02  0.19675597405E+02  0.31642962453E+02  0.00000000000E+00 0.  1.
</event>
<event>
 7    1  0.4005571E-009  0.4778724E+02  0.7816164E-02  0.1312668E+00
        -11   -1    0    0    0    0  0.00000000000E+00  0.00000000000E+00  0.45593999997E+02  0.45594000000E+02  0.51100000000E-03 0. -1.
         11   -1    0    0    0    0 -0.00000000000E+00 -0.00000000000E+00 -0.45593999997E+02  0.45594000000E+02  0.51100000000E-03 0.  1.
    9900012    2    1    2    0    0  0.25823897757E+02  0.11436448588E+02 -0.32953903273E+02  0.47787242027E+02  0.19999867700E+02 0.  0.
         12    1    1    2    0    0 -0.25823897757E+02 -0.11436448588E+02  0.32953903273E+02  0.43400757973E+02  0.00000000000E+00 0. -1.
         11    1    3    3    0    0  0.43807975201E+01  0.25101785769E+01 -0.13998439099E+02  0.14881151866E+02  0.51100000000E-03 0. -1.
        -11    1    3    3    0    0  0.37038004575E+01  0.23731542476E+01 -0.11958979556E+02  0.12742338529E+02  0.51100000000E-03 0.  1.
         12    1    3    3    0    0  0.17739299780E+02  0.65531157636E+01 -0.69964846184E+01  0.20163751633E+02  0.00000000000E+00 0. -1.
</event>
<event>
 7    1  0.4005571E-009  0.4778726E+02  0.7816164E-02  0.1312668E+00
        -11   -1    0    0    0    0  0.00000000000E+00  0.00000000000E+00  0.45593999997E+02  0.45594000000E+02  0.51100000000E-03 0.  1.
         11   -1    0    0    0    0 -0.00000000000E+00 -0.00000000000E+00 -0.45593999997E+02  0.45594000000E+02  0.51100000000E-03 0. -1.
    9900012    2    1    2    0    0 -0.10494078188E+02  0.30784236917E+02  0.28737246033E+02  0.47787260040E+02  0.19999949824E+02 0.  0.
         12    1    1    2    0    0  0.10494078188E+02 -0.30784236917E+02 -0.28737246033E+02  0.43400739960E+02  0.00000000000E+00 0. -1.
         11    1    3    3    0    0 -0.57411779810E+01  0.11950081947E+02  0.37422807207E+01  0.13775712265E+02  0.51100000000E-03 0. -1.
        -11    1    3    3    0    0 -0.69402893215E+01  0.38844723163E+01  0.89090531765E+01  0.11942695249E+02  0.51100000000E-03 0.  1.
        -12    1    3    3    0    0  0.21873891145E+01  0.14949682654E+02  0.16085912136E+02  0.22068852526E+02  0.00000000000E+00 0.  1.
</event>
<event>
 7    1  0.4005571E-009  0.4778727E+02  0.7816164E-02  0.1312668E+00
        -11   -1    0    0    0    0  0.00000000000E+00  0.00000000000E+00  0.45593999997E+02  0.45594000000E+02  0.51100000000E-03 0.  1.
         11   -1    0    0    0    0 -0.00000000000E+00 -0.00000000000E+00 -0.45593999997E+02  0.45594000000E+02  0.51100000000E-03 0. -1.
    9900012    2    1    2    0    0 -0.10595449553E+01  0.43043903720E+02 -0.54518864139E+01  0.47787270186E+02  0.19999996085E+02 0.  0.
         12    1    1    2    0    0  0.10595449553E+01 -0.43043903720E+02  0.54518864139E+01  0.43400729814E+02  0.00000000000E+00 0. -1.
         11    1    3    3    0    0  0.34450010908E+01  0.10381798622E+02 -0.33081389114E+01  0.11427753867E+02  0.51100000000E-03 0. -1.
        -11    1    3    3    0    0 -0.22058853912E+01  0.33688239370E+02 -0.16979916470E+01  0.33803055751E+02  0.51100000000E-03 0.  1.
        -12    1    3    3    0    0 -0.22986606549E+01 -0.10261342720E+01 -0.44575585550E+00  0.25564605675E+01  0.00000000000E+00 0.  1.
</event>
<event>
 7    1  0.4005571E-009  0.4778727E+02  0.7816164E-02  0.1312668E+00
        -11   -1    0    0    0    0  0.00000000000E+00  0.00000000000E+00  0.45593999997E+02  0.45594000000E+02  0.51100000000E-03 0.  1.
         11   -1    0    0    0    0 -0.00000000000E+00 -0.00000000000E+00 -0.45593999997E+02  0.45594000000E+02  0.51100000000E-03 0. -1.
    9900012    2    1    2    0    0  0.43224945942E+02  0.39008335845E+01  0.10332704275E+00  0.47787272693E+02  0.20000007515E+02 0.  0.
         12    1    1    2    0    0 -0.43224945942E+02 -0.39008335845E+01 -0.10332704275E+00  0.43400727307E+02  0.00000000000E+00 0. -1.
         11    1    3    3    0    0  0.20554535064E+02  0.55407136278E+01 -0.12857910747E+01  0.21327017564E+02  0.51100000000E-03 0. -1.
        -11    1    3    3    0    0  0.16958342862E+02  0.28970532511E+01 -0.36595351564E+01  0.17588931405E+02  0.51100000000E-03 0.  1.
        -12    1    3    3    0    0  0.57120680156E+01 -0.45369332944E+01  0.50486532738E+01  0.88713237238E+01  0.00000000000E+00 0.  1.
</event>
<event>
 7    1  0.4005571E-009  0.4778727E+02  0.7816164E-02  0.1312668E+00
        -11   -1    0    0    0    0  0.00000000000E+00  0.00000000000E+00  0.45593999997E+02  0.45594000000E+02  0.51100000000E-03 0. -1.
         11   -1    0    0    0    0 -0.00000000000E+00 -0.00000000000E+00 -0.45593999997E+02  0.45594000000E+02  0.51100000000E-03 0.  1.
    9900012    2    1    2    0    0 -0.19975771121E+02 -0.29076697277E+02 -0.25281169980E+02  0.47787270606E+02  0.19999998001E+02 0.  0.
         12    1    1    2    0    0  0.19975771121E+02  0.29076697277E+02  0.25281169980E+02  0.43400729394E+02  0.00000000000E+00 0. -1.
         11    1    3    3    0    0 -0.66175159829E+01 -0.73947595186E+01 -0.38497989241E+01  0.10644009495E+02  0.51100000000E-03 0. -1.
        -11    1    3    3    0    0 -0.10600705068E+02 -0.29251081331E+01 -0.51059903641E+01  0.12124452292E+02  0.51100000000E-03 0.  1.
         12    1    3    3    0    0 -0.27575500704E+01 -0.18756829625E+02 -0.16325380692E+02  0.25018808819E+02  0.00000000000E+00 0. -1.
</event>
<event>
 7    1  0.4005571E-009  0.4778727E+02  0.7816164E-02  0.1312668E+00
        -11   -1    0    0    0    0  0.00000000000E+00  0.00000000000E+00  0.45593999997E+02  0.45594000000E+02  0.51100000000E-03 0. -1.
         11   -1    0    0    0    0 -0.00000000000E+00 -0.00000000000E+00 -0.45593999997E+02  0.45594000000E+02  0.51100000000E-03 0.  1.
    9900012    2    1    2    0    0 -0.37774991257E+02 -0.54200483782E+01 -0.20671149697E+02  0.47787270528E+02  0.19999997645E+02 0.  0.
         12    1    1    2    0    0  0.37774991257E+02  0.54200483782E+01  0.20671149697E+02  0.43400729472E+02  0.00000000000E+00 0. -1.
         11    1    3    3    0    0 -0.15479384975E+02  0.17329246497E+01 -0.20076826660E+01  0.15704941165E+02  0.51100000000E-03 0. -1.
        -11    1    3    3    0    0 -0.20851504793E+02 -0.44051016824E+01 -0.11368503556E+02  0.24154358744E+02  0.51100000000E-03 0.  1.
         12    1    3    3    0    0 -0.14441014898E+01 -0.27478713454E+01 -0.72949634751E+01  0.79279706197E+01  0.00000000000E+00 0. -1.
</event>
<event>
 7    1  0.4005571E-009  0.4778728E+02  0.7816164E-02  0.1312668E+00
        -11   -1    0    0    0    0  0.00000000000E+00  0.00000000000E+00  0.45593999997E+02  0.45594000000E+02  0.51100000000E-03 0. -1.
         11   -1    0    0    0    0 -0.00000000000E+00 -0.00000000000E+00 -0.45593999997E+02  0.45594000000E+02  0.51100000000E-03 0.  1.
    9900012    2    1    2    0    0  0.26068357550E+02 -0.34548871457E+02 -0.32309032146E+01  0.47787279731E+02  0.20000039605E+02 0.  0.
         12    1    1    2    0    0 -0.26068357550E+02  0.34548871457E+02  0.32309032146E+01  0.43400720269E+02  0.00000000000E+00 0. -1.
         11    1    3    3    0    0  0.24317985269E+02 -0.27747227305E+02  0.21408248115E+00  0.36896054833E+02  0.51100000000E-03 0. -1.
        -11    1    3    3    0    0  0.37814059654E+01 -0.67393907749E+01 -0.41105646208E+01  0.87530086745E+01  0.51100000000E-03 0.  1.
        -12    1    3    3    0    0 -0.20310336849E+01 -0.62253376676E-01  0.66557892501E+00  0.21382162233E+01  0.00000000000E+00 0.  1.
</event>
<event>
 7    1  0.4005571E-009  0.4778727E+02  0.7816164E-02  0.1312668E+00
        -11   -1    0    0    0    0  0.00000000000E+00  0.00000000000E+00  0.45593999997E+02  0.45594000000E+02  0.51100000000E-03 0.  1.
         11   -1    0    0    0    0 -0.00000000000E+00 -0.00000000000E+00 -0.45593999997E+02  0.45594000000E+02  0.51100000000E-03 0. -1.
    9900012    2    1    2    0    0 -0.21213056788E+02  0.62626110597E+01  0.37341790048E+02  0.47787270057E+02  0.19999995499E+02 0.  0.
         12    1    1    2    0    0  0.21213056788E+02 -0.62626110597E+01 -0.37341790048E+02  0.43400729943E+02  0.00000000000E+00 0. -1.
         11    1    3    3    0    0 -0.18982534081E+02  0.67955333887E+00  0.34521023597E+02  0.39401769799E+02  0.51100000000E-03 0. -1.
        -11    1    3    3    0    0 -0.64010334130E+00 -0.74491328883E+00  0.13961657682E+01  0.17070170499E+01  0.51100000000E-03 0.  1.
         12    1    3    3    0    0 -0.15904193657E+01  0.63279710096E+01  0.14246006831E+01  0.66784832083E+01  0.00000000000E+00 0. -1.
</event>
<event>
 7    1  0.4005571E-009  0.4778727E+02  0.7816164E-02  0.1312668E+00
        -11   -1    0    0    0    0  0.00000000000E+00  0.00000000000E+00  0.45593999997E+02  0.45594000000E+02  0.51100000000E-03 0.  1.
         11   -1    0    0    0    0 -0.00000000000E+00 -0.00000000000E+00 -0.45593999997E+02  0.45594000000E+02  0.51100000000E-03 0. -1.
    9900012    2    1    2    0    0  0.23953389097E+02 -0.12905089755E+02  0.33812969985E+02  0.47787272702E+02  0.20000007557E+02 0.  0.
         12    1    1    2    0    0 -0.23953389097E+02  0.12905089755E+02 -0.33812969985E+02  0.43400727298E+02  0.00000000000E+00 0. -1.
         11    1    3    3    0    0  0.48021899626E+01 -0.11314927114E+01 -0.42180644432E+00  0.49516891189E+01  0.51100000000E-03 0. -1.
        -11    1    3    3    0    0  0.65853428245E+01 -0.96391616369E+01  0.96613393777E+01  0.15153272122E+02  0.51100000000E-03 0.  1.
        -12    1    3    3    0    0  0.12565856310E+02 -0.21344354069E+01  0.24573437051E+02  0.27682311461E+02  0.00000000000E+00 0.  1.
</event>
<event>
 7    1  0.4005571E-009  0.4778727E+02  0.7816164E-02  0.1312668E+00
        -11   -1    0    0    0    0  0.00000000000E+00  0.00000000000E+00  0.45593999997E+02  0.45594000000E+02  0.51100000000E-03 0. -1.
         11   -1    0    0    0    0 -0.00000000000E+00 -0.00000000000E+00 -0.45593999997E+02  0.45594000000E+02  0.51100000000E-03 0.  1.
    9900012    2    1    2    0    0 -0.28732526411E+02  0.18274374158E+02 -0.26909335901E+02  0.47787272086E+02  0.20000004749E+02 0.  0.
         12    1    1    2    0    0  0.28732526411E+02 -0.18274374158E+02  0.26909335901E+02  0.43400727914E+02  0.00000000000E+00 0. -1.
         11    1    3    3    0    0 -0.57175517480E+01 -0.16313173207E+01 -0.36369018463E+01  0.69698385557E+01  0.51100000000E-03 0. -1.
        -11    1    3    3    0    0 -0.14725438467E+02  0.43663005608E+01 -0.71564188918E+01  0.16944540426E+02  0.51100000000E-03 0.  1.
        -12    1    3    3    0    0 -0.82895361964E+01  0.15539390918E+02 -0.16116015163E+02  0.23872893104E+02  0.00000000000E+00 0.  1.
</event>
<event>
 7    1  0.4005571E-009  0.4778727E+02  0.7816164E-02  0.1312668E+00
        -11   -1    0    0    0    0  0.00000000000E+00  0.00000000000E+00  0.45593999997E+02  0.45594000000E+02  0.51100000000E-03 0.  1.
         11   -1    0    0    0    0 -0.00000000000E+00 -0.00000000000E+00 -0.45593999997E+02  0.45594000000E+02  0.51100000000E-03 0. -1.
    9900012    2    1    2    0    0  0.22338423649E+02  0.77186346460E+01  0.36401109869E+02  0.47787270840E+02  0.19999999070E+02 0.  0.
         12    1    1    2    0    0 -0.22338423649E+02 -0.77186346460E+01 -0.36401109869E+02  0.43400729160E+02  0.00000000000E+00 0. -1.
         11    1    3    3    0    0  0.76923552312E+01 -0.40109084303E+01  0.56601260743E+01  0.10358414110E+02  0.51100000000E-03 0. -1.
        -11    1    3    3    0    0  0.32918802456E-01  0.43532480365E+01  0.32472917365E+01  0.54310916028E+01  0.51100000000E-03 0.  1.
        -12    1    3    3    0    0  0.14613149615E+02  0.73762950398E+01  0.27493692058E+02  0.31997765128E+02  0.00000000000E+00 0.  1.
</event>
<event>
 7    1  0.4005571E-009  0.4778727E+02  0.7816164E-02  0.1312668E+00
        -11   -1    0    0    0    0  0.00000000000E+00  0.00000000000E+00  0.45593999997E+02  0.45594000000E+02  0.51100000000E-03 0. -1.
         11   -1    0    0    0    0 -0.00000000000E+00 -0.00000000000E+00 -0.45593999997E+02  0.45594000000E+02  0.51100000000E-03 0.  1.
    9900012    2    1    2    0    0 -0.10063725866E+02  0.37239886716E+02  0.19888080296E+02  0.47787268683E+02  0.19999989235E+02 0.  0.
         12    1    1    2    0    0  0.10063725866E+02 -0.37239886716E+02 -0.19888080296E+02  0.43400731317E+02  0.00000000000E+00 0. -1.
         11    1    3    3    0    0  0.21434134730E+01  0.84959020706E+01  0.26297398317E+01  0.91482296185E+01  0.51100000000E-03 0. -1.
        -11    1    3    3    0    0 -0.18842162052E+01  0.11913994400E+02  0.14246519722E+02  0.18666999162E+02  0.51100000000E-03 0.  1.
        -12    1    3    3    0    0 -0.10322923134E+02  0.16829990246E+02  0.30118207425E+01  0.19972039903E+02  0.00000000000E+00 0.  1.
</event>
<event>
 7    1  0.4005571E-009  0.4778727E+02  0.7816164E-02  0.1312668E+00
        -11   -1    0    0    0    0  0.00000000000E+00  0.00000000000E+00  0.45593999997E+02  0.45594000000E+02  0.51100000000E-03 0.  1.
         11   -1    0    0    0    0 -0.00000000000E+00 -0.00000000000E+00 -0.45593999997E+02  0.45594000000E+02  0.51100000000E-03 0. -1.
    9900012    2    1    2    0    0  0.21340923254E+02  0.21928365687E+02  0.30778810127E+02  0.47787269824E+02  0.19999994434E+02 0.  0.
         12    1    1    2    0    0 -0.21340923254E+02 -0.21928365687E+02 -0.30778810127E+02  0.43400730176E+02  0.00000000000E+00 0. -1.
         11    1    3    3    0    0 -0.11468481224E+01  0.14455910241E+01  0.86810918776E+00  0.20392664974E+01  0.51100000000E-03 0. -1.
        -11    1    3    3    0    0  0.50363403864E+01  0.15179967267E+02  0.10611828107E+02  0.19193932030E+02  0.51100000000E-03 0.  1.
         12    1    3    3    0    0  0.17451430990E+02  0.53028073958E+01  0.19298872832E+02  0.26554071297E+02  0.00000000000E+00 0. -1.
</event>
<event>
 7    1  0.4005571E-009  0.4778728E+02  0.7816164E-02  0.1312668E+00
        -11   -1    0    0    0    0  0.00000000000E+00  0.00000000000E+00  0.45593999997E+02  0.45594000000E+02  0.51100000000E-03 0.  1.
         11   -1    0    0    0    0 -0.00000000000E+00 -0.00000000000E+00 -0.45593999997E+02  0.45594000000E+02  0.51100000000E-03 0. -1.
    9900012    2    1    2    0    0 -0.14352126473E+02 -0.27429753536E+02  0.30417880238E+02  0.47787281671E+02  0.20000048452E+02 0.  0.
         12    1    1    2    0    0  0.14352126473E+02  0.27429753536E+02 -0.30417880238E+02  0.43400718329E+02  0.00000000000E+00 0. -1.
         11    1    3    3    0    0 -0.52610679016E+01 -0.21176695739E+02  0.13755982769E+02  0.25794540897E+02  0.51100000000E-03 0. -1.
        -11    1    3    3    0    0 -0.50942110851E+01 -0.51385139022E+01  0.32106091141E+01  0.79160168549E+01  0.51100000000E-03 0.  1.
        -12    1    3    3    0    0 -0.39968474858E+01 -0.11145438946E+01  0.13451288354E+02  0.14076723919E+02  0.00000000000E+00 0.  1.
</event>
<event>
 7    1  0.4005571E-009  0.4778727E+02  0.7816164E-02  0.1312668E+00
        -11   -1    0    0    0    0  0.00000000000E+00  0.00000000000E+00  0.45593999997E+02  0.45594000000E+02  0.51100000000E-03 0.  1.
         11   -1    0    0    0    0 -0.00000000000E+00 -0.00000000000E+00 -0.45593999997E+02  0.45594000000E+02  0.51100000000E-03 0. -1.
    9900012    2    1    2    0    0  0.24587451874E+02  0.17339939067E+02  0.31279498377E+02  0.47787270798E+02  0.19999998878E+02 0.  0.
         12    1    1    2    0    0 -0.24587451874E+02 -0.17339939067E+02 -0.31279498377E+02  0.43400729202E+02  0.00000000000E+00 0. -1.
         11    1    3    3    0    0  0.74182889713E+01  0.14813043949E+00  0.36982369843E+01  0.82903504716E+01  0.51100000000E-03 0. -1.
        -11    1    3    3    0    0  0.12156017677E+02  0.50944533090E+01  0.65402862033E+01  0.14713856196E+02  0.51100000000E-03 0.  1.
         12    1    3    3    0    0  0.50131452255E+01  0.12097355319E+02  0.21040975190E+02  0.24783064131E+02  0.00000000000E+00 0. -1.
</event>
<event>
 7    1  0.4005571E-009  0.4778722E+02  0.7816164E-02  0.1312668E+00
        -11   -1    0    0    0    0  0.00000000000E+00  0.00000000000E+00  0.45593999997E+02  0.45594000000E+02  0.51100000000E-03 0.  1.
         11   -1    0    0    0    0 -0.00000000000E+00 -0.00000000000E+00 -0.45593999997E+02  0.45594000000E+02  0.51100000000E-03 0. -1.
    9900012    2    1    2    0    0 -0.22453502741E+02  0.28475549690E+02  0.23845572586E+02  0.47787216051E+02  0.19999749259E+02 0.  0.
         12    1    1    2    0    0  0.22453502741E+02 -0.28475549690E+02 -0.23845572586E+02  0.43400783949E+02  0.00000000000E+00 0. -1.
         11    1    3    3    0    0 -0.52047480765E+01  0.20585339606E+01  0.60061941945E+01  0.82098315190E+01  0.51100000000E-03 0. -1.
        -11    1    3    3    0    0 -0.12399987851E+02  0.11176360329E+02  0.16590361034E+02  0.23535309821E+02  0.51100000000E-03 0.  1.
         12    1    3    3    0    0 -0.48487668136E+01  0.15240655400E+02  0.12490173577E+01  0.16042074710E+02  0.00000000000E+00 0. -1.
</event>
<event>
 7    1  0.4005571E-009  0.4778727E+02  0.7816164E-02  0.1312668E+00
        -11   -1    0    0    0    0  0.00000000000E+00  0.00000000000E+00  0.45593999997E+02  0.45594000000E+02  0.51100000000E-03 0. -1.
         11   -1    0    0    0    0 -0.00000000000E+00 -0.00000000000E+00 -0.45593999997E+02  0.45594000000E+02  0.51100000000E-03 0.  1.
    9900012    2    1    2    0    0  0.17968816368E+02  0.36927486140E+02 -0.14039431744E+02  0.47787271458E+02  0.20000001884E+02 0.  0.
         12    1    1    2    0    0 -0.17968816368E+02 -0.36927486140E+02  0.14039431744E+02  0.43400728542E+02  0.00000000000E+00 0. -1.
         11    1    3    3    0    0  0.79998786153E+01  0.23461673353E+02 -0.98039214729E+01  0.26656426071E+02  0.51100000000E-03 0. -1.
        -11    1    3    3    0    0  0.62630928960E+01  0.10809765522E+02 -0.83195958265E+01  0.15009764763E+02  0.51100000000E-03 0.  1.
         12    1    3    3    0    0  0.37058448571E+01  0.26560472650E+01  0.40840855549E+01  0.61210806235E+01  0.00000000000E+00 0. -1.
</event>
<event>
 7    1  0.4005571E-009  0.4778727E+02  0.7816164E-02  0.1312668E+00
        -11   -1    0    0    0    0  0.00000000000E+00  0.00000000000E+00  0.45593999997E+02  0.45594000000E+02  0.51100000000E-03 0.  1.
         11   -1    0    0    0    0 -0.00000000000E+00 -0.00000000000E+00 -0.45593999997E+02  0.45594000000E+02  0.51100000000E-03 0. -1.
    9900012    2    1    2    0    0 -0.13493678710E+02 -0.35823784324E+02  0.20449946235E+02  0.47787272017E+02  0.20000004434E+02 0.  0.
         12    1    1    2    0    0  0.13493678710E+02  0.35823784324E+02 -0.20449946235E+02  0.43400727983E+02  0.00000000000E+00 0. -1.
         11    1    3    3    0    0  0.19540162068E+00 -0.26475401350E+01 -0.22491051000E+01  0.34793856601E+01  0.51100000000E-03 0. -1.
        -11    1    3    3    0    0 -0.12377812857E+02 -0.14703708707E+02  0.14391136560E+02  0.24010708291E+02  0.51100000000E-03 0.  1.
         12    1    3    3    0    0 -0.13112674735E+01 -0.18472535482E+02  0.83079147753E+01  0.20297178066E+02  0.00000000000E+00 0. -1.
</event>
<event>
 7    1  0.4005571E-009  0.4778728E+02  0.7816164E-02  0.1312668E+00
        -11   -1    0    0    0    0  0.00000000000E+00  0.00000000000E+00  0.45593999997E+02  0.45594000000E+02  0.51100000000E-03 0.  1.
         11   -1    0    0    0    0 -0.00000000000E+00 -0.00000000000E+00 -0.45593999997E+02  0.45594000000E+02  0.51100000000E-03 0. -1.
    9900012    2    1    2    0    0 -0.12907697933E+02  0.13116592280E+01  0.41416103541E+02  0.47787277098E+02  0.20000027602E+02 0.  0.
         12    1    1    2    0    0  0.12907697933E+02 -0.13116592280E+01 -0.41416103541E+02  0.43400722902E+02  0.00000000000E+00 0. -1.
         11    1    3    3    0    0  0.11628226312E+01  0.44358210637E+01  0.58662355133E+01  0.74458971480E+01  0.51100000000E-03 0. -1.
        -11    1    3    3    0    0 -0.21596536937E+01 -0.27370747535E+01  0.22092259398E+02  0.22365679239E+02  0.51100000000E-03 0.  1.
         12    1    3    3    0    0 -0.11910866870E+02 -0.38708708222E+00  0.13457608630E+02  0.17975700711E+02  0.00000000000E+00 0. -1.
</event>
<event>
 7    1  0.4005571E-009  0.4778727E+02  0.7816164E-02  0.1312668E+00
        -11   -1    0    0    0    0  0.00000000000E+00  0.00000000000E+00  0.45593999997E+02  0.45594000000E+02  0.51100000000E-03 0. -1.
         11   -1    0    0    0    0 -0.00000000000E+00 -0.00000000000E+00 -0.45593999997E+02  0.45594000000E+02  0.51100000000E-03 0.  1.
    9900012    2    1    2    0    0  0.21364678081E+02  0.94467680592E+01 -0.36577757555E+02  0.47787271388E+02  0.20000001568E+02 0.  0.
         12    1    1    2    0    0 -0.21364678081E+02 -0.94467680592E+01  0.36577757555E+02  0.43400728612E+02  0.00000000000E+00 0. -1.
         11    1    3    3    0    0 -0.85994058232E+00  0.26962717003E+01 -0.11237556798E+01  0.30450297167E+01  0.51100000000E-03 0.  1.
        -11    1    3    3    0    0  0.20720334667E+01 -0.10537734584E+01 -0.14346584141E+02  0.14533693198E+02  0.51100000000E-03 0. -1.
        -12    1    3    3    0    0  0.20152585196E+02  0.78042698174E+01 -0.21107417734E+02  0.30208548474E+02  0.00000000000E+00 0.  1.
</event>
<event>
 7    1  0.4005571E-009  0.4778727E+02  0.7816164E-02  0.1312668E+00
        -11   -1    0    0    0    0  0.00000000000E+00  0.00000000000E+00  0.45593999997E+02  0.45594000000E+02  0.51100000000E-03 0.  1.
         11   -1    0    0    0    0 -0.00000000000E+00 -0.00000000000E+00 -0.45593999997E+02  0.45594000000E+02  0.51100000000E-03 0. -1.
    9900012    2    1    2    0    0 -0.41848469062E+02 -0.11374011501E+02 -0.17208152184E+01  0.47787266072E+02  0.19999977330E+02 0.  0.
         12    1    1    2    0    0  0.41848469062E+02  0.11374011501E+02  0.17208152184E+01  0.43400733928E+02  0.00000000000E+00 0. -1.
         11    1    3    3    0    0 -0.72061426061E+01  0.27201966259E+01  0.14001971049E+01  0.78286980486E+01  0.51100000000E-03 0. -1.
        -11    1    3    3    0    0 -0.21224957677E+01  0.23948433575E+01  0.76657438780E+00  0.32905773876E+01  0.51100000000E-03 0.  1.
         12    1    3    3    0    0 -0.32519830688E+02 -0.16489051484E+02 -0.38875867111E+01  0.36667990636E+02  0.00000000000E+00 0. -1.
</event>
<event>
 7    1  0.4005571E-009  0.4778732E+02  0.7816164E-02  0.1312668E+00
        -11   -1    0    0    0    0  0.00000000000E+00  0.00000000000E+00  0.45593999997E+02  0.45594000000E+02  0.51100000000E-03 0.  1.
         11   -1    0    0    0    0 -0.00000000000E+00 -0.00000000000E+00 -0.45593999997E+02  0.45594000000E+02  0.51100000000E-03 0. -1.
    9900012    2    1    2    0    0  0.61067805962E+01 -0.25335999581E+02  0.34704660893E+02  0.47787318764E+02  0.20000217574E+02 0.  0.
         12    1    1    2    0    0 -0.61067805962E+01  0.25335999581E+02 -0.34704660893E+02  0.43400681236E+02  0.00000000000E+00 0. -1.
         11    1    3    3    0    0  0.56460377116E+01  0.11769861104E+01  0.61018758633E+01  0.83961852920E+01  0.51100000000E-03 0.  1.
        -11    1    3    3    0    0 -0.12893060466E+01 -0.88417887624E+01  0.12863000510E+02  0.15661938609E+02  0.51100000000E-03 0. -1.
        -12    1    3    3    0    0  0.17500489312E+01 -0.17671196929E+02  0.15739784520E+02  0.23729194864E+02  0.00000000000E+00 0.  1.
</event>
<event>
 7    1  0.4005571E-009  0.4778727E+02  0.7816164E-02  0.1312668E+00
        -11   -1    0    0    0    0  0.00000000000E+00  0.00000000000E+00  0.45593999997E+02  0.45594000000E+02  0.51100000000E-03 0.  1.
         11   -1    0    0    0    0 -0.00000000000E+00 -0.00000000000E+00 -0.45593999997E+02  0.45594000000E+02  0.51100000000E-03 0. -1.
    9900012    2    1    2    0    0  0.10970848586E+02  0.36655198267E+02  0.20485617309E+02  0.47787267343E+02  0.19999983122E+02 0.  0.
         12    1    1    2    0    0 -0.10970848586E+02 -0.36655198267E+02 -0.20485617309E+02  0.43400732657E+02  0.00000000000E+00 0. -1.
         11    1    3    3    0    0  0.43417375267E+01  0.99472630824E+01  0.97044205586E+00  0.10896810801E+02  0.51100000000E-03 0. -1.
        -11    1    3    3    0    0  0.50612497844E+01  0.27758752383E+02  0.14910029779E+02  0.31913532734E+02  0.51100000000E-03 0.  1.
         12    1    3    3    0    0  0.15678612750E+01 -0.10508171989E+01  0.46051454736E+01  0.49769238085E+01  0.00000000000E+00 0. -1.
</event>
<event>
 7    1  0.4005571E-009  0.4778727E+02  0.7816164E-02  0.1312668E+00
        -11   -1    0    0    0    0  0.00000000000E+00  0.00000000000E+00  0.45593999997E+02  0.45594000000E+02  0.51100000000E-03 0.  1.
         11   -1    0    0    0    0 -0.00000000000E+00 -0.00000000000E+00 -0.45593999997E+02  0.45594000000E+02  0.51100000000E-03 0. -1.
    9900012    2    1    2    0    0 -0.86699947152E+01  0.37122801868E+02  0.20744922408E+02  0.47787273824E+02  0.20000012672E+02 0.  0.
         12    1    1    2    0    0  0.86699947152E+01 -0.37122801868E+02 -0.20744922408E+02  0.43400726176E+02  0.00000000000E+00 0. -1.
         11    1    3    3    0    0 -0.93147327406E+01  0.18298912052E+02  0.75145845443E+01  0.21865118556E+02  0.51100000000E-03 0. -1.
        -11    1    3    3    0    0 -0.68982148855E+00  0.20269117817E+02  0.12501197767E+02  0.23824209046E+02  0.51100000000E-03 0.  1.
        -12    1    3    3    0    0  0.13345595140E+01 -0.14452280013E+01  0.72914009696E+00  0.20979462227E+01  0.00000000000E+00 0.  1.
</event>
<event>
 7    1  0.4005571E-009  0.4778728E+02  0.7816164E-02  0.1312668E+00
        -11   -1    0    0    0    0  0.00000000000E+00  0.00000000000E+00  0.45593999997E+02  0.45594000000E+02  0.51100000000E-03 0. -1.
         11   -1    0    0    0    0 -0.00000000000E+00 -0.00000000000E+00 -0.45593999997E+02  0.45594000000E+02  0.51100000000E-03 0.  1.
    9900012    2    1    2    0    0 -0.35231923444E+02  0.13219466755E+02 -0.21623598729E+02  0.47787277047E+02  0.20000027370E+02 0.  0.
         12    1    1    2    0    0  0.35231923444E+02 -0.13219466755E+02  0.21623598729E+02  0.43400722953E+02  0.00000000000E+00 0. -1.
         11    1    3    3    0    0 -0.30797917268E-01  0.13098403235E+01 -0.20365971984E+01  0.24216437794E+01  0.51100000000E-03 0. -1.
        -11    1    3    3    0    0 -0.22248005584E+02  0.11750548232E+02 -0.20392127566E+02  0.32386540463E+02  0.51100000000E-03 0.  1.
         12    1    3    3    0    0 -0.12953119942E+02  0.15907819901E+00  0.80512603519E+00  0.12979092805E+02  0.00000000000E+00 0. -1.
</event>
<event>
 7    1  0.4005571E-009  0.4778727E+02  0.7816164E-02  0.1312668E+00
        -11   -1    0    0    0    0  0.00000000000E+00  0.00000000000E+00  0.45593999997E+02  0.45594000000E+02  0.51100000000E-03 0.  1.
         11   -1    0    0    0    0 -0.00000000000E+00 -0.00000000000E+00 -0.45593999997E+02  0.45594000000E+02  0.51100000000E-03 0. -1.
    9900012    2    1    2    0    0  0.30480744034E+02  0.22103466694E+02  0.21586670926E+02  0.47787270070E+02  0.19999995559E+02 0.  0.
         12    1    1    2    0    0 -0.30480744034E+02 -0.22103466694E+02 -0.21586670926E+02  0.43400729930E+02  0.00000000000E+00 0. -1.
         11    1    3    3    0    0  0.82056261186E+01  0.97059939499E+01  0.11789922632E+02  0.17336115323E+02  0.51100000000E-03 0.  1.
        -11    1    3    3    0    0  0.15353788393E+02  0.14901231675E+02  0.63114973770E+01  0.22307409595E+02  0.51100000000E-03 0. -1.
         12    1    3    3    0    0  0.69213295230E+01 -0.25037589316E+01  0.34852509163E+01  0.81437451521E+01  0.00000000000E+00 0. -1.
</event>
<event>
 7    1  0.4005571E-009  0.4778727E+02  0.7816164E-02  0.1312668E+00
        -11   -1    0    0    0    0  0.00000000000E+00  0.00000000000E+00  0.45593999997E+02  0.45594000000E+02  0.51100000000E-03 0.  1.
         11   -1    0    0    0    0 -0.00000000000E+00 -0.00000000000E+00 -0.45593999997E+02  0.45594000000E+02  0.51100000000E-03 0. -1.
    9900012    2    1    2    0    0  0.10110847823E+02  0.40655438689E+02  0.11337089274E+02  0.47787268072E+02  0.19999986447E+02 0.  0.
         12    1    1    2    0    0 -0.10110847823E+02 -0.40655438689E+02 -0.11337089274E+02  0.43400731928E+02  0.00000000000E+00 0. -1.
         11    1    3    3    0    0  0.13142761925E+01  0.40336631537E+01  0.49800684134E+01  0.65420823910E+01  0.51100000000E-03 0. -1.
        -11    1    3    3    0    0  0.95915613920E+01  0.33694723275E+02  0.10069028589E+02  0.36451581084E+02  0.51100000000E-03 0.  1.
         12    1    3    3    0    0 -0.79498976144E+00  0.29270522599E+01 -0.37120077285E+01  0.47936045967E+01  0.00000000000E+00 0. -1.
</event>
<event>
 7    1  0.4885996E-009  0.4778727E+02  0.7816164E-02  0.1312668E+00
        -11   -1    0    0    0    0  0.00000000000E+00  0.00000000000E+00  0.45593999997E+02  0.45594000000E+02  0.51100000000E-03 0.  1.
         11   -1    0    0    0    0 -0.00000000000E+00 -0.00000000000E+00 -0.45593999997E+02  0.45594000000E+02  0.51100000000E-03 0. -1.
    9900012    2    1    2    0    0 -0.13485637659E+00 -0.42268132368E+02  0.98493597614E+01  0.47787273188E+02  0.20000009774E+02 0.  0.
         12    1    1    2    0    0  0.13485637659E+00  0.42268132368E+02 -0.98493597614E+01  0.43400726812E+02  0.00000000000E+00 0. -1.
         11    1    3    3    0    0 -0.30579250391E+01 -0.13805632691E+02 -0.26778591228E+01  0.14391571467E+02  0.51100000000E-03 0. -1.
        -11    1    3    3    0    0  0.55747147926E+01 -0.12167981621E+02  0.13351314998E+01  0.13450643038E+02  0.51100000000E-03 0.  1.
        -12    1    3    3    0    0 -0.26516461301E+01 -0.16294518055E+02  0.11192087384E+02  0.19945058683E+02  0.00000000000E+00 0.  1.
</event>
<event>
 7    1  0.4005571E-009  0.4778727E+02  0.7816164E-02  0.1312668E+00
        -11   -1    0    0    0    0  0.00000000000E+00  0.00000000000E+00  0.45593999997E+02  0.45594000000E+02  0.51100000000E-03 0.  1.
         11   -1    0    0    0    0 -0.00000000000E+00 -0.00000000000E+00 -0.45593999997E+02  0.45594000000E+02  0.51100000000E-03 0. -1.
    9900012    2    1    2    0    0  0.21375721310E+02 -0.11248699866E+01  0.37754954588E+02  0.47787269707E+02  0.19999993901E+02 0.  0.
         12    1    1    2    0    0 -0.21375721310E+02  0.11248699866E+01 -0.37754954588E+02  0.43400730293E+02  0.00000000000E+00 0. -1.
         11    1    3    3    0    0  0.13302218735E+01  0.35307776612E+01  0.14738118604E+01  0.40506792994E+01  0.51100000000E-03 0. -1.
        -11    1    3    3    0    0  0.41634694548E+01 -0.59445691886E+01  0.56089244027E+01  0.91723723189E+01  0.51100000000E-03 0.  1.
        -12    1    3    3    0    0  0.15882029982E+02  0.12889215408E+01  0.30672218325E+02  0.34564218089E+02  0.00000000000E+00 0.  1.
</event>
<event>
 7    1  0.4005571E-009  0.4778726E+02  0.7816164E-02  0.1312668E+00
        -11   -1    0    0    0    0  0.00000000000E+00  0.00000000000E+00  0.45593999997E+02  0.45594000000E+02  0.51100000000E-03 0.  1.
         11   -1    0    0    0    0 -0.00000000000E+00 -0.00000000000E+00 -0.45593999997E+02  0.45594000000E+02  0.51100000000E-03 0. -1.
    9900012    2    1    2    0    0  0.79460360931E+01 -0.28727808151E+02 -0.31546749598E+02  0.47787264281E+02  0.19999969162E+02 0.  0.
         12    1    1    2    0    0 -0.79460360931E+01  0.28727808151E+02  0.31546749598E+02  0.43400735719E+02  0.00000000000E+00 0. -1.
         11    1    3    3    0    0  0.18121922737E+01 -0.66555063977E+01 -0.10483862716E+01  0.69770280408E+01  0.51100000000E-03 0. -1.
        -11    1    3    3    0    0  0.54014853379E+01 -0.14027038371E+02 -0.82625073416E+01  0.17152343197E+02  0.51100000000E-03 0.  1.
         12    1    3    3    0    0  0.73235848146E+00 -0.80452633818E+01 -0.22235855985E+02  0.23657893043E+02  0.00000000000E+00 0. -1.
</event>
<event>
 7    1  0.4005571E-009  0.4778728E+02  0.7816164E-02  0.1312668E+00
        -11   -1    0    0    0    0  0.00000000000E+00  0.00000000000E+00  0.45593999997E+02  0.45594000000E+02  0.51100000000E-03 0.  1.
         11   -1    0    0    0    0 -0.00000000000E+00 -0.00000000000E+00 -0.45593999997E+02  0.45594000000E+02  0.51100000000E-03 0. -1.
    9900012    2    1    2    0    0  0.40258176940E+01  0.13952682455E+02  0.40899123714E+02  0.47787275624E+02  0.20000020880E+02 0.  0.
         12    1    1    2    0    0 -0.40258176940E+01 -0.13952682455E+02 -0.40899123714E+02  0.43400724376E+02  0.00000000000E+00 0. -1.
         11    1    3    3    0    0 -0.41926785314E+01  0.19439280594E+01  0.60013023939E+01  0.75744993400E+01  0.51100000000E-03 0. -1.
        -11    1    3    3    0    0  0.30281916100E+01  0.86487466210E+01  0.67172062493E+01  0.11361849436E+02  0.51100000000E-03 0.  1.
         12    1    3    3    0    0  0.51903046154E+01  0.33600077741E+01  0.28180615071E+02  0.28850926848E+02  0.00000000000E+00 0. -1.
</event>
<event>
 7    1  0.4005571E-009  0.4778727E+02  0.7816164E-02  0.1312668E+00
        -11   -1    0    0    0    0  0.00000000000E+00  0.00000000000E+00  0.45593999997E+02  0.45594000000E+02  0.51100000000E-03 0.  1.
         11   -1    0    0    0    0 -0.00000000000E+00 -0.00000000000E+00 -0.45593999997E+02  0.45594000000E+02  0.51100000000E-03 0. -1.
    9900012    2    1    2    0    0 -0.36324829074E+01 -0.27580692098E+02  0.33312663923E+02  0.47787273206E+02  0.20000009854E+02 0.  0.
         12    1    1    2    0    0  0.36324829074E+01  0.27580692098E+02 -0.33312663923E+02  0.43400726794E+02  0.00000000000E+00 0. -1.
         11    1    3    3    0    0 -0.63352875023E+00  0.86858123930E+00  0.13689196212E+00  0.10837581451E+01  0.51100000000E-03 0. -1.
        -11    1    3    3    0    0  0.56118554870E+01 -0.12775118783E+02  0.88944975807E+01  0.16547164996E+02  0.51100000000E-03 0.  1.
         12    1    3    3    0    0 -0.86108096441E+01 -0.15674154554E+02  0.24281274380E+02  0.30156350064E+02  0.00000000000E+00 0. -1.
</event>
<event>
 7    1  0.4005571E-009  0.4778728E+02  0.7816164E-02  0.1312668E+00
        -11   -1    0    0    0    0  0.00000000000E+00  0.00000000000E+00  0.45593999997E+02  0.45594000000E+02  0.51100000000E-03 0. -1.
         11   -1    0    0    0    0 -0.00000000000E+00 -0.00000000000E+00 -0.45593999997E+02  0.45594000000E+02  0.51100000000E-03 0.  1.
    9900012    2    1    2    0    0  0.25632505328E+02 -0.33846776502E+02  0.89996250935E+01  0.47787275803E+02  0.20000021696E+02 0.  0.
         12    1    1    2    0    0 -0.25632505328E+02  0.33846776502E+02 -0.89996250935E+01  0.43400724197E+02  0.00000000000E+00 0. -1.
         11    1    3    3    0    0  0.20646901878E+02 -0.14194222566E+02  0.10312464237E+01  0.25076562381E+02  0.51100000000E-03 0. -1.
        -11    1    3    3    0    0  0.44252234110E+01 -0.66665977598E+01  0.48041793074E+01  0.93330738241E+01  0.51100000000E-03 0.  1.
         12    1    3    3    0    0  0.56038003962E+00 -0.12985956176E+02  0.31641993624E+01  0.13377639598E+02  0.00000000000E+00 0. -1.
</event>
<event>
 7    1  0.4005571E-009  0.4778727E+02  0.7816164E-02  0.1312668E+00
        -11   -1    0    0    0    0  0.00000000000E+00  0.00000000000E+00  0.45593999997E+02  0.45594000000E+02  0.51100000000E-03 0.  1.
         11   -1    0    0    0    0 -0.00000000000E+00 -0.00000000000E+00 -0.45593999997E+02  0.45594000000E+02  0.51100000000E-03 0. -1.
    9900012    2    1    2    0    0  0.39366605864E+00 -0.43397230467E+02 -0.38550316828E+00  0.47787271920E+02  0.20000003994E+02 0.  0.
         12    1    1    2    0    0 -0.39366605864E+00  0.43397230467E+02  0.38550316828E+00  0.43400728080E+02  0.00000000000E+00 0. -1.
         11    1    3    3    0    0 -0.47287254452E+01 -0.79014990968E+01 -0.12920384170E+01  0.92985964449E+01  0.51100000000E-03 0. -1.
        -11    1    3    3    0    0 -0.44033381473E+01 -0.18216963234E+02  0.10643716653E+00  0.18741890658E+02  0.51100000000E-03 0.  1.
        -12    1    3    3    0    0  0.95257296511E+01 -0.17278768136E+02  0.80009808220E+00  0.19746784817E+02  0.00000000000E+00 0.  1.
</event>
<event>
 7    1  0.4005571E-009  0.4778727E+02  0.7816164E-02  0.1312668E+00
        -11   -1    0    0    0    0  0.00000000000E+00  0.00000000000E+00  0.45593999997E+02  0.45594000000E+02  0.51100000000E-03 0.  1.
         11   -1    0    0    0    0 -0.00000000000E+00 -0.00000000000E+00 -0.45593999997E+02  0.45594000000E+02  0.51100000000E-03 0. -1.
    9900012    2    1    2    0    0  0.24641546579E+01  0.10379937340E+02  0.42069089750E+02  0.47787268788E+02  0.19999989713E+02 0.  0.
         12    1    1    2    0    0 -0.24641546579E+01 -0.10379937340E+02 -0.42069089750E+02  0.43400731212E+02  0.00000000000E+00 0. -1.
         11    1    3    3    0    0  0.72734735937E+01  0.39621966263E+01  0.86398817427E+01  0.11968708243E+02  0.51100000000E-03 0. -1.
        -11    1    3    3    0    0  0.30310662751E+01  0.16256676242E+01  0.63339225836E+01  0.72075469852E+01  0.51100000000E-03 0.  1.
        -12    1    3    3    0    0 -0.78403852109E+01  0.47920730895E+01  0.27095285423E+02  0.28611013560E+02  0.00000000000E+00 0.  1.
</event>
<event>
 7    1  0.4005571E-009  0.4778727E+02  0.7816164E-02  0.1312668E+00
        -11   -1    0    0    0    0  0.00000000000E+00  0.00000000000E+00  0.45593999997E+02  0.45594000000E+02  0.51100000000E-03 0.  1.
         11   -1    0    0    0    0 -0.00000000000E+00 -0.00000000000E+00 -0.45593999997E+02  0.45594000000E+02  0.51100000000E-03 0. -1.
    9900012    2    1    2    0    0 -0.26883735849E+01 -0.12683068388E+02  0.41419022756E+02  0.47787273942E+02  0.20000013212E+02 0.  0.
         12    1    1    2    0    0  0.26883735849E+01  0.12683068388E+02 -0.41419022756E+02  0.43400726058E+02  0.00000000000E+00 0. -1.
         11    1    3    3    0    0  0.44389124506E+01  0.12180305912E+01  0.23655428608E+01  0.51752618825E+01  0.51100000000E-03 0. -1.
        -11    1    3    3    0    0  0.78095294946E+00 -0.29699344951E+01  0.11920704732E+02  0.12309898456E+02  0.51100000000E-03 0.  1.
        -12    1    3    3    0    0 -0.79082389849E+01 -0.10931164484E+02  0.27132775163E+02  0.30302113604E+02  0.00000000000E+00 0.  1.
</event>
<event>
 7    1  0.4005571E-009  0.4778726E+02  0.7816164E-02  0.1312668E+00
        -11   -1    0    0    0    0  0.00000000000E+00  0.00000000000E+00  0.45593999997E+02  0.45594000000E+02  0.51100000000E-03 0.  1.
         11   -1    0    0    0    0 -0.00000000000E+00 -0.00000000000E+00 -0.45593999997E+02  0.45594000000E+02  0.51100000000E-03 0. -1.
    9900012    2    1    2    0    0 -0.10060251751E+02 -0.39994476371E+02 -0.13522474424E+02  0.47787261297E+02  0.19999955557E+02 0.  0.
         12    1    1    2    0    0  0.10060251751E+02  0.39994476371E+02  0.13522474424E+02  0.43400738703E+02  0.00000000000E+00 0. -1.
         11    1    3    3    0    0 -0.22095772853E+01 -0.70507995189E+01 -0.71430100368E+01  0.10277090944E+02  0.51100000000E-03 0. -1.
        -11    1    3    3    0    0 -0.96280238935E+01 -0.10317789380E+02 -0.77867804052E+00  0.14133717188E+02  0.51100000000E-03 0.  1.
        -12    1    3    3    0    0  0.17773494280E+01 -0.22625887471E+02 -0.56007863463E+01  0.23376453165E+02  0.00000000000E+00 0.  1.
</event>
<event>
 7    1  0.4005571E-009  0.4778729E+02  0.7816164E-02  0.1312668E+00
        -11   -1    0    0    0    0  0.00000000000E+00  0.00000000000E+00  0.45593999997E+02  0.45594000000E+02  0.51100000000E-03 0. -1.
         11   -1    0    0    0    0 -0.00000000000E+00 -0.00000000000E+00 -0.45593999997E+02  0.45594000000E+02  0.51100000000E-03 0.  1.
    9900012    2    1    2    0    0  0.26218567504E+02 -0.33812590151E+02 -0.72744393866E+01  0.47787285685E+02  0.20000066754E+02 0.  0.
         12    1    1    2    0    0 -0.26218567504E+02  0.33812590151E+02  0.72744393866E+01  0.43400714315E+02  0.00000000000E+00 0. -1.
         11    1    3    3    0    0  0.35117430441E+00 -0.87315615140E+01 -0.51719567760E+01  0.10154438784E+02  0.51100000000E-03 0. -1.
        -11    1    3    3    0    0  0.19417338730E+02 -0.22295304594E+02 -0.50860394059E+01  0.29999690788E+02  0.51100000000E-03 0.  1.
         12    1    3    3    0    0  0.64500544686E+01 -0.27857240430E+01  0.29835567954E+01  0.76331561128E+01  0.00000000000E+00 0. -1.
</event>
<event>
 7    1  0.4005571E-009  0.4778727E+02  0.7816164E-02  0.1312668E+00
        -11   -1    0    0    0    0  0.00000000000E+00  0.00000000000E+00  0.45593999997E+02  0.45594000000E+02  0.51100000000E-03 0.  1.
         11   -1    0    0    0    0 -0.00000000000E+00 -0.00000000000E+00 -0.45593999997E+02  0.45594000000E+02  0.51100000000E-03 0. -1.
    9900012    2    1    2    0    0 -0.10285996578E+02 -0.23719782633E+02  0.34859626173E+02  0.47787270160E+02  0.19999995968E+02 0.  0.
         12    1    1    2    0    0  0.10285996578E+02  0.23719782633E+02 -0.34859626173E+02  0.43400729840E+02  0.00000000000E+00 0. -1.
         11    1    3    3    0    0 -0.46574939159E+00 -0.33821096818E+01  0.71864673452E+01  0.79561863704E+01  0.51100000000E-03 0. -1.
        -11    1    3    3    0    0 -0.11649995731E+02 -0.65153281880E+01  0.19618481501E+02  0.23728816207E+02  0.51100000000E-03 0.  1.
         12    1    3    3    0    0  0.18297485441E+01 -0.13822344763E+02  0.80546773264E+01  0.16102267583E+02  0.00000000000E+00 0. -1.
</event>
<event>
 7    1  0.4005571E-009  0.4778727E+02  0.7816164E-02  0.1312668E+00
        -11   -1    0    0    0    0  0.00000000000E+00  0.00000000000E+00  0.45593999997E+02  0.45594000000E+02  0.51100000000E-03 0.  1.
         11   -1    0    0    0    0 -0.00000000000E+00 -0.00000000000E+00 -0.45593999997E+02  0.45594000000E+02  0.51100000000E-03 0. -1.
    9900012    2    1    2    0    0 -0.25729482498E+02 -0.22724527104E+02  0.26555843511E+02  0.47787271592E+02  0.20000002498E+02 0.  0.
         12    1    1    2    0    0  0.25729482498E+02  0.22724527104E+02 -0.26555843511E+02  0.43400728408E+02  0.00000000000E+00 0. -1.
         11    1    3    3    0    0 -0.19396757644E+02 -0.11096717739E+02  0.19532637064E+02  0.29679879761E+02  0.51100000000E-03 0.  1.
        -11    1    3    3    0    0 -0.23520717122E+01  0.92973738379E+00  0.37674605239E+01  0.45376659200E+01  0.51100000000E-03 0. -1.
        -12    1    3    3    0    0 -0.39806531412E+01 -0.12557546749E+02  0.32557459236E+01  0.13569725911E+02  0.00000000000E+00 0.  1.
</event>
<event>
 7    1  0.4005571E-009  0.4778727E+02  0.7816164E-02  0.1312668E+00
        -11   -1    0    0    0    0  0.00000000000E+00  0.00000000000E+00  0.45593999997E+02  0.45594000000E+02  0.51100000000E-03 0.  1.
         11   -1    0    0    0    0 -0.00000000000E+00 -0.00000000000E+00 -0.45593999997E+02  0.45594000000E+02  0.51100000000E-03 0. -1.
    9900012    2    1    2    0    0 -0.36580592858E+02 -0.13233298757E+02  0.19244818949E+02  0.47787273897E+02  0.20000013008E+02 0.  0.
         12    1    1    2    0    0  0.36580592858E+02  0.13233298757E+02 -0.19244818949E+02  0.43400726103E+02  0.00000000000E+00 0. -1.
         11    1    3    3    0    0 -0.15680130283E+02 -0.59972145245E+01  0.11060980631E+02  0.20104187636E+02  0.51100000000E-03 0. -1.
        -11    1    3    3    0    0 -0.22698259567E+02 -0.57875425537E+01  0.91924669788E+01  0.25163626241E+02  0.51100000000E-03 0.  1.
         12    1    3    3    0    0  0.17977969913E+01 -0.14485416791E+01 -0.10086286610E+01  0.25194600202E+01  0.00000000000E+00 0. -1.
</event>
<event>
 7    1  0.4005571E-009  0.4778727E+02  0.7816164E-02  0.1312668E+00
        -11   -1    0    0    0    0  0.00000000000E+00  0.00000000000E+00  0.45593999997E+02  0.45594000000E+02  0.51100000000E-03 0.  1.
         11   -1    0    0    0    0 -0.00000000000E+00 -0.00000000000E+00 -0.45593999997E+02  0.45594000000E+02  0.51100000000E-03 0. -1.
    9900012    2    1    2    0    0 -0.19450962742E+02  0.26708787293E+02  0.28141140919E+02  0.47787273249E+02  0.20000010052E+02 0.  0.
         12    1    1    2    0    0  0.19450962742E+02 -0.26708787293E+02 -0.28141140919E+02  0.43400726751E+02  0.00000000000E+00 0. -1.
         11    1    3    3    0    0 -0.45525299393E+01  0.11836187010E+01 -0.83245899904E+00  0.47769729248E+01  0.51100000000E-03 0. -1.
        -11    1    3    3    0    0 -0.91769105814E+01  0.10619097088E+02  0.65628583349E+01  0.15493612250E+02  0.51100000000E-03 0.  1.
        -12    1    3    3    0    0 -0.57215222210E+01  0.14906071505E+02  0.22410741584E+02  0.27516688074E+02  0.00000000000E+00 0.  1.
</event>
<event>
 7    1  0.4005571E-009  0.4778728E+02  0.7816164E-02  0.1312668E+00
        -11   -1    0    0    0    0  0.00000000000E+00  0.00000000000E+00  0.45593999997E+02  0.45594000000E+02  0.51100000000E-03 0. -1.
         11   -1    0    0    0    0 -0.00000000000E+00 -0.00000000000E+00 -0.45593999997E+02  0.45594000000E+02  0.51100000000E-03 0.  1.
    9900012    2    1    2    0    0  0.15258722565E+02  0.28432818166E+01 -0.40530356550E+02  0.47787278026E+02  0.20000031830E+02 0.  0.
         12    1    1    2    0    0 -0.15258722565E+02 -0.28432818166E+01  0.40530356550E+02  0.43400721974E+02  0.00000000000E+00 0. -1.
         11    1    3    3    0    0 -0.29495743066E+00  0.12827275000E+01 -0.26183605371E+01  0.29305634081E+01  0.51100000000E-03 0. -1.
        -11    1    3    3    0    0  0.18620413081E+02  0.50336192659E+01 -0.31698115552E+02  0.37105628091E+02  0.51100000000E-03 0.  1.
         12    1    3    3    0    0 -0.30667330852E+01 -0.34730649493E+01 -0.62138804610E+01  0.77510865266E+01  0.00000000000E+00 0. -1.
</event>
<event>
 7    1  0.4005571E-009  0.4778727E+02  0.7816164E-02  0.1312668E+00
        -11   -1    0    0    0    0  0.00000000000E+00  0.00000000000E+00  0.45593999997E+02  0.45594000000E+02  0.51100000000E-03 0.  1.
         11   -1    0    0    0    0 -0.00000000000E+00 -0.00000000000E+00 -0.45593999997E+02  0.45594000000E+02  0.51100000000E-03 0. -1.
    9900012    2    1    2    0    0  0.19738945309E+02  0.68549646406E+01  0.38039543027E+02  0.47787270330E+02  0.19999996745E+02 0.  0.
         12    1    1    2    0    0 -0.19738945309E+02 -0.68549646406E+01 -0.38039543027E+02  0.43400729670E+02  0.00000000000E+00 0. -1.
         11    1    3    3    0    0  0.35090745302E+01 -0.21517406802E+01  0.13720463375E+02  0.14324618931E+02  0.51100000000E-03 0. -1.
        -11    1    3    3    0    0  0.12767842232E+02  0.26936853855E+01  0.22542296730E+02  0.26046667317E+02  0.51100000000E-03 0.  1.
        -12    1    3    3    0    0  0.34620285478E+01  0.63130199353E+01  0.17767829219E+01  0.74159840831E+01  0.00000000000E+00 0.  1.
</event>
<event>
 7    1  0.4005571E-009  0.4778727E+02  0.7816164E-02  0.1312668E+00
        -11   -1    0    0    0    0  0.00000000000E+00  0.00000000000E+00  0.45593999997E+02  0.45594000000E+02  0.51100000000E-03 0.  1.
         11   -1    0    0    0    0 -0.00000000000E+00 -0.00000000000E+00 -0.45593999997E+02  0.45594000000E+02  0.51100000000E-03 0. -1.
    9900012    2    1    2    0    0 -0.76104042042E+01 -0.14394065980E+02  0.40230779912E+02  0.47787273740E+02  0.20000012290E+02 0.  0.
         12    1    1    2    0    0  0.76104042042E+01  0.14394065980E+02 -0.40230779912E+02  0.43400726260E+02  0.00000000000E+00 0. -1.
         11    1    3    3    0    0  0.43141299882E+01 -0.60801530675E+01  0.10493358561E+02  0.12872084254E+02  0.51100000000E-03 0. -1.
        -11    1    3    3    0    0 -0.36079916749E+01 -0.65637206783E+01  0.22626497081E+02  0.23833975823E+02  0.51100000000E-03 0.  1.
        -12    1    3    3    0    0 -0.83165425175E+01 -0.17501922339E+01  0.71109242693E+01  0.11081213664E+02  0.00000000000E+00 0.  1.
</event>
<event>
 7    1  0.4005571E-009  0.4778727E+02  0.7816164E-02  0.1312668E+00
        -11   -1    0    0    0    0  0.00000000000E+00  0.00000000000E+00  0.45593999997E+02  0.45594000000E+02  0.51100000000E-03 0.  1.
         11   -1    0    0    0    0 -0.00000000000E+00 -0.00000000000E+00 -0.45593999997E+02  0.45594000000E+02  0.51100000000E-03 0. -1.
    9900012    2    1    2    0    0 -0.24130038612E+02 -0.35158851303E+02 -0.80759012140E+01  0.47787265343E+02  0.19999974005E+02 0.  0.
         12    1    1    2    0    0  0.24130038612E+02  0.35158851303E+02  0.80759012140E+01  0.43400734657E+02  0.00000000000E+00 0. -1.
         11    1    3    3    0    0 -0.23989578426E+01 -0.66700738285E-01 -0.42169445604E+01  0.48520170450E+01  0.51100000000E-03 0. -1.
        -11    1    3    3    0    0  0.27050835425E+00  0.34335186385E+00 -0.10420194656E+01  0.11299867698E+01  0.51100000000E-03 0.  1.
        -12    1    3    3    0    0 -0.22001589124E+02 -0.35435502428E+02 -0.28169371880E+01  0.41805261528E+02  0.00000000000E+00 0.  1.
</event>
<event>
 7    1  0.4005571E-009  0.4778727E+02  0.7816164E-02  0.1312668E+00
        -11   -1    0    0    0    0  0.00000000000E+00  0.00000000000E+00  0.45593999997E+02  0.45594000000E+02  0.51100000000E-03 0.  1.
         11   -1    0    0    0    0 -0.00000000000E+00 -0.00000000000E+00 -0.45593999997E+02  0.45594000000E+02  0.51100000000E-03 0. -1.
    9900012    2    1    2    0    0 -0.15889212038E+01  0.25604621049E+02  0.35007171019E+02  0.47787270600E+02  0.19999997974E+02 0.  0.
         12    1    1    2    0    0  0.15889212038E+01 -0.25604621049E+02 -0.35007171019E+02  0.43400729400E+02  0.00000000000E+00 0. -1.
         11    1    3    3    0    0  0.12758246424E+01  0.91263706010E+01  0.21821096240E+02  0.23687097970E+02  0.51100000000E-03 0. -1.
        -11    1    3    3    0    0 -0.47374421683E+01  0.13429544792E+02  0.14466864917E+02  0.20299906709E+02  0.51100000000E-03 0.  1.
        -12    1    3    3    0    0  0.18726963222E+01  0.30487056557E+01 -0.12807901375E+01  0.38002659205E+01  0.00000000000E+00 0.  1.
</event>
<event>
 7    1  0.4005571E-009  0.4778721E+02  0.7816164E-02  0.1312668E+00
        -11   -1    0    0    0    0  0.00000000000E+00  0.00000000000E+00  0.45593999997E+02  0.45594000000E+02  0.51100000000E-03 0.  1.
         11   -1    0    0    0    0 -0.00000000000E+00 -0.00000000000E+00 -0.45593999997E+02  0.45594000000E+02  0.51100000000E-03 0. -1.
    9900012    2    1    2    0    0  0.20213561195E+02 -0.34619840900E+02  0.16628503414E+02  0.47787210077E+02  0.19999722024E+02 0.  0.
         12    1    1    2    0    0 -0.20213561195E+02  0.34619840900E+02 -0.16628503414E+02  0.43400789923E+02  0.00000000000E+00 0. -1.
         11    1    3    3    0    0  0.35269783122E+01 -0.73435900084E+00  0.69850851634E+00  0.36697102836E+01  0.51100000000E-03 0. -1.
        -11    1    3    3    0    0  0.84972679314E+01 -0.25009387009E+02  0.32601574762E+01  0.26613936723E+02  0.51100000000E-03 0.  1.
        -12    1    3    3    0    0  0.81893149514E+01 -0.88760948898E+01  0.12669837422E+02  0.17503563070E+02  0.00000000000E+00 0.  1.
</event>
<event>
 7    1  0.4005571E-009  0.4778727E+02  0.7816164E-02  0.1312668E+00
        -11   -1    0    0    0    0  0.00000000000E+00  0.00000000000E+00  0.45593999997E+02  0.45594000000E+02  0.51100000000E-03 0.  1.
         11   -1    0    0    0    0 -0.00000000000E+00 -0.00000000000E+00 -0.45593999997E+02  0.45594000000E+02  0.51100000000E-03 0. -1.
    9900012    2    1    2    0    0  0.15459435530E+02  0.51185993278E+01  0.40229702327E+02  0.47787272410E+02  0.20000006227E+02 0.  0.
         12    1    1    2    0    0 -0.15459435530E+02 -0.51185993278E+01 -0.40229702327E+02  0.43400727590E+02  0.00000000000E+00 0. -1.
         11    1    3    3    0    0 -0.74442343843E-01 -0.42930702949E+01  0.25575112141E+01  0.49976852733E+01  0.51100000000E-03 0. -1.
        -11    1    3    3    0    0  0.10601865987E+01  0.49549566144E+01  0.11169518564E+02  0.12265143125E+02  0.51100000000E-03 0.  1.
        -12    1    3    3    0    0  0.14473691275E+02  0.44567130083E+01  0.26502672550E+02  0.30524444012E+02  0.00000000000E+00 0.  1.
</event>
<event>
 7    1  0.4005571E-009  0.4778727E+02  0.7816164E-02  0.1312668E+00
        -11   -1    0    0    0    0  0.00000000000E+00  0.00000000000E+00  0.45593999997E+02  0.45594000000E+02  0.51100000000E-03 0.  1.
         11   -1    0    0    0    0 -0.00000000000E+00 -0.00000000000E+00 -0.45593999997E+02  0.45594000000E+02  0.51100000000E-03 0. -1.
    9900012    2    1    2    0    0 -0.29044836783E+01 -0.13923488350E+02  0.41003945652E+02  0.47787272905E+02  0.20000008485E+02 0.  0.
         12    1    1    2    0    0  0.29044836783E+01  0.13923488350E+02 -0.41003945652E+02  0.43400727095E+02  0.00000000000E+00 0. -1.
         11    1    3    3    0    0 -0.26091392182E+01 -0.52881834282E+01  0.18060511144E+02  0.18998804028E+02  0.51100000000E-03 0. -1.
        -11    1    3    3    0    0 -0.66803516704E+01 -0.79598149930E+01  0.10425489395E+02  0.14719938266E+02  0.51100000000E-03 0.  1.
         12    1    3    3    0    0  0.63850072103E+01 -0.67548992896E+00  0.12517945113E+02  0.14068530611E+02  0.00000000000E+00 0. -1.
</event>
<event>
 7    1  0.4005571E-009  0.4778726E+02  0.7816164E-02  0.1312668E+00
        -11   -1    0    0    0    0  0.00000000000E+00  0.00000000000E+00  0.45593999997E+02  0.45594000000E+02  0.51100000000E-03 0.  1.
         11   -1    0    0    0    0 -0.00000000000E+00 -0.00000000000E+00 -0.45593999997E+02  0.45594000000E+02  0.51100000000E-03 0. -1.
    9900012    2    1    2    0    0  0.18092462059E+02  0.37281149137E+02  0.12899716113E+02  0.47787263369E+02  0.19999965004E+02 0.  0.
         12    1    1    2    0    0 -0.18092462059E+02 -0.37281149137E+02 -0.12899716113E+02  0.43400736631E+02  0.00000000000E+00 0. -1.
         11    1    3    3    0    0  0.79404454966E+01  0.42716003203E+01  0.22250304290E+01  0.92869803839E+01  0.51100000000E-03 0. -1.
        -11    1    3    3    0    0  0.31549321986E+01  0.11376518723E+01  0.39534107691E+01  0.51843327372E+01  0.51100000000E-03 0.  1.
        -12    1    3    3    0    0  0.69970843637E+01  0.31871896944E+02  0.67212749152E+01  0.33315950248E+02  0.00000000000E+00 0.  1.
</event>
<event>
 7    1  0.4005571E-009  0.4778727E+02  0.7816164E-02  0.1312668E+00
        -11   -1    0    0    0    0  0.00000000000E+00  0.00000000000E+00  0.45593999997E+02  0.45594000000E+02  0.51100000000E-03 0.  1.
         11   -1    0    0    0    0 -0.00000000000E+00 -0.00000000000E+00 -0.45593999997E+02  0.45594000000E+02  0.51100000000E-03 0. -1.
    9900012    2    1    2    0    0 -0.14466311641E+02  0.28726038323E+02  0.29140415666E+02  0.47787271027E+02  0.19999999921E+02 0.  0.
         12    1    1    2    0    0  0.14466311641E+02 -0.28726038323E+02 -0.29140415666E+02  0.43400728973E+02  0.00000000000E+00 0. -1.
         11    1    3    3    0    0  0.20769725096E+01  0.46590732738E+01  0.62371010008E+01  0.80574318323E+01  0.51100000000E-03 0. -1.
        -11    1    3    3    0    0 -0.57535807429E+01  0.83877061816E+00  0.86397154359E+01  0.10414024707E+02  0.51100000000E-03 0.  1.
         12    1    3    3    0    0 -0.10789703408E+02  0.23228194431E+02  0.14263599229E+02  0.29315814488E+02  0.00000000000E+00 0. -1.
</event>
<event>
 7    1  0.4005571E-009  0.4778727E+02  0.7816164E-02  0.1312668E+00
        -11   -1    0    0    0    0  0.00000000000E+00  0.00000000000E+00  0.45593999997E+02  0.45594000000E+02  0.51100000000E-03 0.  1.
         11   -1    0    0    0    0 -0.00000000000E+00 -0.00000000000E+00 -0.45593999997E+02  0.45594000000E+02  0.51100000000E-03 0. -1.
    9900012    2    1    2    0    0 -0.24785474021E+01  0.82731212678E+01  0.42532758257E+02  0.47787271231E+02  0.20000000849E+02 0.  0.
         12    1    1    2    0    0  0.24785474021E+01 -0.82731212678E+01 -0.42532758257E+02  0.43400728769E+02  0.00000000000E+00 0. -1.
         11    1    3    3    0    0  0.14606231516E+01  0.98129257072E+00 -0.28555402185E+00  0.17826655494E+01  0.51100000000E-03 0. -1.
        -11    1    3    3    0    0  0.33574545811E+01  0.87245984053E+01  0.22286206692E+02  0.24167460098E+02  0.51100000000E-03 0.  1.
        -12    1    3    3    0    0 -0.72966251348E+01 -0.14327697082E+01  0.20532105587E+02  0.21837145583E+02  0.00000000000E+00 0.  1.
</event>
<event>
 7    1  0.4005571E-009  0.4778727E+02  0.7816164E-02  0.1312668E+00
        -11   -1    0    0    0    0  0.00000000000E+00  0.00000000000E+00  0.45593999997E+02  0.45594000000E+02  0.51100000000E-03 0. -1.
         11   -1    0    0    0    0 -0.00000000000E+00 -0.00000000000E+00 -0.45593999997E+02  0.45594000000E+02  0.51100000000E-03 0.  1.
    9900012    2    1    2    0    0 -0.27201757116E+02 -0.33552263876E+02 -0.42347732639E+01  0.47787270675E+02  0.19999998315E+02 0.  0.
         12    1    1    2    0    0  0.27201757116E+02  0.33552263876E+02  0.42347732639E+01  0.43400729325E+02  0.00000000000E+00 0. -1.
         11    1    3    3    0    0 -0.18012220820E+02 -0.18122355457E+02 -0.90849248055E+00  0.25567268627E+02  0.51100000000E-03 0. -1.
        -11    1    3    3    0    0 -0.93426099522E+01 -0.99024405397E+01  0.28719760427E+01  0.13913695987E+02  0.51100000000E-03 0.  1.
         12    1    3    3    0    0  0.15307365690E+00 -0.55274678793E+01 -0.61982568261E+01  0.83063060613E+01  0.00000000000E+00 0. -1.
</event>
<event>
 7    1  0.4358202E-009  0.4778727E+02  0.7816164E-02  0.1312668E+00
        -11   -1    0    0    0    0  0.00000000000E+00  0.00000000000E+00  0.45593999997E+02  0.45594000000E+02  0.51100000000E-03 0.  1.
         11   -1    0    0    0    0 -0.00000000000E+00 -0.00000000000E+00 -0.45593999997E+02  0.45594000000E+02  0.51100000000E-03 0. -1.
    9900012    2    1    2    0    0 -0.39511430487E+02  0.17882650080E+02  0.16373597862E+01  0.47787271203E+02  0.20000000725E+02 0.  0.
         12    1    1    2    0    0  0.39511430487E+02 -0.17882650080E+02 -0.16373597862E+01  0.43400728797E+02  0.00000000000E+00 0. -1.
         11    1    3    3    0    0 -0.28558819365E+01 -0.26441434142E+01 -0.76567525020E+00  0.39665873090E+01  0.51100000000E-03 0.  1.
        -11    1    3    3    0    0 -0.38170008978E+00  0.37793304264E+01  0.34950868384E+00  0.38146022089E+01  0.51100000000E-03 0. -1.
        -12    1    3    3    0    0 -0.36273848461E+02  0.16747463068E+02  0.20535263526E+01  0.40006081686E+02  0.00000000000E+00 0.  1.
</event>
<event>
 7    1  0.4005571E-009  0.4778727E+02  0.7816164E-02  0.1312668E+00
        -11   -1    0    0    0    0  0.00000000000E+00  0.00000000000E+00  0.45593999997E+02  0.45594000000E+02  0.51100000000E-03 0.  1.
         11   -1    0    0    0    0 -0.00000000000E+00 -0.00000000000E+00 -0.45593999997E+02  0.45594000000E+02  0.51100000000E-03 0. -1.
    9900012    2    1    2    0    0  0.20372399204E+02 -0.26668130603E+02  0.27520892377E+02  0.47787270094E+02  0.19999995666E+02 0.  0.
         12    1    1    2    0    0 -0.20372399204E+02  0.26668130603E+02 -0.27520892377E+02  0.43400729906E+02  0.00000000000E+00 0. -1.
         11    1    3    3    0    0  0.47985331624E+01  0.33747547309E+00  0.80584011751E+01  0.93849688314E+01  0.51100000000E-03 0. -1.
        -11    1    3    3    0    0  0.75237436903E+00 -0.39799739279E+01  0.74917424721E+01  0.85165993910E+01  0.51100000000E-03 0.  1.
        -12    1    3    3    0    0  0.14821491673E+02 -0.23025632148E+02  0.11970748729E+02  0.29885701872E+02  0.00000000000E+00 0.  1.
</event>
<event>
 7    1  0.4005571E-009  0.4778727E+02  0.7816164E-02  0.1312668E+00
        -11   -1    0    0    0    0  0.00000000000E+00  0.00000000000E+00  0.45593999997E+02  0.45594000000E+02  0.51100000000E-03 0.  1.
         11   -1    0    0    0    0 -0.00000000000E+00 -0.00000000000E+00 -0.45593999997E+02  0.45594000000E+02  0.51100000000E-03 0. -1.
    9900012    2    1    2    0    0 -0.22541294614E+02  0.34258331812E+02  0.14208451895E+02  0.47787269975E+02  0.19999995123E+02 0.  0.
         12    1    1    2    0    0  0.22541294614E+02 -0.34258331812E+02 -0.14208451895E+02  0.43400730025E+02  0.00000000000E+00 0. -1.
         11    1    3    3    0    0 -0.15627716314E+02  0.92877082263E+01  0.61035081776E+01  0.19176544361E+02  0.51100000000E-03 0. -1.
        -11    1    3    3    0    0 -0.38302398973E+01  0.22997902664E+01  0.47659111025E+00  0.44929847860E+01  0.51100000000E-03 0.  1.
        -12    1    3    3    0    0 -0.30833384027E+01  0.22670833320E+02  0.76283526076E+01  0.24117740827E+02  0.00000000000E+00 0.  1.
</event>
<event>
 7    1  0.4005571E-009  0.4778727E+02  0.7816164E-02  0.1312668E+00
        -11   -1    0    0    0    0  0.00000000000E+00  0.00000000000E+00  0.45593999997E+02  0.45594000000E+02  0.51100000000E-03 0. -1.
         11   -1    0    0    0    0 -0.00000000000E+00 -0.00000000000E+00 -0.45593999997E+02  0.45594000000E+02  0.51100000000E-03 0.  1.
    9900012    2    1    2    0    0  0.12529561691E+02  0.19198842266E+02 -0.36851562352E+02  0.47787272952E+02  0.20000008699E+02 0.  0.
         12    1    1    2    0    0 -0.12529561691E+02 -0.19198842266E+02  0.36851562352E+02  0.43400727048E+02  0.00000000000E+00 0. -1.
         11    1    3    3    0    0  0.14695056441E+02  0.20435317951E+02 -0.29805463651E+02  0.39011697826E+02  0.51100000000E-03 0. -1.
        -11    1    3    3    0    0 -0.13416321240E+01  0.15788432257E+01 -0.42254466556E+01  0.47060729263E+01  0.51100000000E-03 0.  1.
         12    1    3    3    0    0 -0.82386262665E+00 -0.28153189106E+01 -0.28206520449E+01  0.40695021998E+01  0.00000000000E+00 0. -1.
</event>
<event>
 7    1  0.4005571E-009  0.4778727E+02  0.7816164E-02  0.1312668E+00
        -11   -1    0    0    0    0  0.00000000000E+00  0.00000000000E+00  0.45593999997E+02  0.45594000000E+02  0.51100000000E-03 0.  1.
         11   -1    0    0    0    0 -0.00000000000E+00 -0.00000000000E+00 -0.45593999997E+02  0.45594000000E+02  0.51100000000E-03 0. -1.
    9900012    2    1    2    0    0 -0.85218660651E+01  0.33928928723E+02  0.25687128868E+02  0.47787274257E+02  0.20000014649E+02 0.  0.
         12    1    1    2    0    0  0.85218660651E+01 -0.33928928723E+02 -0.25687128868E+02  0.43400725743E+02  0.00000000000E+00 0. -1.
         11    1    3    3    0    0 -0.72198825822E+01  0.13052549890E+02  0.89866167739E+01  0.17414219604E+02  0.51100000000E-03 0. -1.
        -11    1    3    3    0    0 -0.89978097393E-01  0.20452683486E+02  0.86266373246E+01  0.22197730281E+02  0.51100000000E-03 0.  1.
         12    1    3    3    0    0 -0.12120053856E+01  0.42369534739E+00  0.80738747694E+01  0.81753243724E+01  0.00000000000E+00 0. -1.
</event>
<event>
 7    1  0.4005571E-009  0.4778727E+02  0.7816164E-02  0.1312668E+00
        -11   -1    0    0    0    0  0.00000000000E+00  0.00000000000E+00  0.45593999997E+02  0.45594000000E+02  0.51100000000E-03 0.  1.
         11   -1    0    0    0    0 -0.00000000000E+00 -0.00000000000E+00 -0.45593999997E+02  0.45594000000E+02  0.51100000000E-03 0. -1.
    9900012    2    1    2    0    0  0.15460980237E+02 -0.27743392264E+02  0.29578464374E+02  0.47787270986E+02  0.19999999734E+02 0.  0.
         12    1    1    2    0    0 -0.15460980237E+02  0.27743392264E+02 -0.29578464374E+02  0.43400729014E+02  0.00000000000E+00 0. -1.
         11    1    3    3    0    0  0.57028404218E+01 -0.13908601534E+02  0.48942235620E+01  0.15809016732E+02  0.51100000000E-03 0. -1.
        -11    1    3    3    0    0  0.89895297649E-01 -0.91212089175E+01  0.80299385075E+01  0.12152548950E+02  0.51100000000E-03 0.  1.
        -12    1    3    3    0    0  0.96682445173E+01 -0.47135818132E+01  0.16654302305E+02  0.19825705304E+02  0.00000000000E+00 0.  1.
</event>
<event>
 7    1  0.4005571E-009  0.4778726E+02  0.7816164E-02  0.1312668E+00
        -11   -1    0    0    0    0  0.00000000000E+00  0.00000000000E+00  0.45593999997E+02  0.45594000000E+02  0.51100000000E-03 0. -1.
         11   -1    0    0    0    0 -0.00000000000E+00 -0.00000000000E+00 -0.45593999997E+02  0.45594000000E+02  0.51100000000E-03 0.  1.
    9900012    2    1    2    0    0 -0.11354519056E+02 -0.22651449882E+02 -0.35236497495E+02  0.47787262213E+02  0.19999959733E+02 0.  0.
         12    1    1    2    0    0  0.11354519056E+02  0.22651449882E+02  0.35236497495E+02  0.43400737787E+02  0.00000000000E+00 0. -1.
         11    1    3    3    0    0 -0.11500379928E+02 -0.13808538470E+02 -0.16075292084E+02  0.24111190120E+02  0.51100000000E-03 0. -1.
        -11    1    3    3    0    0 -0.24548974377E+01 -0.10436387652E+02 -0.13437842535E+02  0.17190704491E+02  0.51100000000E-03 0.  1.
        -12    1    3    3    0    0  0.26007583097E+01  0.15934762399E+01 -0.57233628769E+01  0.64853676020E+01  0.00000000000E+00 0.  1.
</event>
<event>
 7    1  0.4005571E-009  0.4778727E+02  0.7816164E-02  0.1312668E+00
        -11   -1    0    0    0    0  0.00000000000E+00  0.00000000000E+00  0.45593999997E+02  0.45594000000E+02  0.51100000000E-03 0.  1.
         11   -1    0    0    0    0 -0.00000000000E+00 -0.00000000000E+00 -0.45593999997E+02  0.45594000000E+02  0.51100000000E-03 0. -1.
    9900012    2    1    2    0    0  0.23656571934E+02  0.22046793525E+02  0.28946998718E+02  0.47787271490E+02  0.20000002033E+02 0.  0.
         12    1    1    2    0    0 -0.23656571934E+02 -0.22046793525E+02 -0.28946998718E+02  0.43400728510E+02  0.00000000000E+00 0. -1.
         11    1    3    3    0    0  0.42114569972E+01  0.21464251415E+00  0.16071882413E+00  0.42199848637E+01  0.51100000000E-03 0. -1.
        -11    1    3    3    0    0  0.13481291628E+02  0.14724182413E+02  0.93810285962E+01  0.22057889053E+02  0.51100000000E-03 0.  1.
        -12    1    3    3    0    0  0.59638233084E+01  0.71079685972E+01  0.19405251298E+02  0.21509397574E+02  0.00000000000E+00 0.  1.
</event>
<event>
 7    1  0.4005571E-009  0.4778727E+02  0.7816164E-02  0.1312668E+00
        -11   -1    0    0    0    0  0.00000000000E+00  0.00000000000E+00  0.45593999997E+02  0.45594000000E+02  0.51100000000E-03 0.  1.
         11   -1    0    0    0    0 -0.00000000000E+00 -0.00000000000E+00 -0.45593999997E+02  0.45594000000E+02  0.51100000000E-03 0. -1.
    9900012    2    1    2    0    0  0.41197987511E+02 -0.73407350762E+01  0.11509237408E+02  0.47787272908E+02  0.20000008495E+02 0.  0.
         12    1    1    2    0    0 -0.41197987511E+02  0.73407350762E+01 -0.11509237408E+02  0.43400727092E+02  0.00000000000E+00 0. -1.
         11    1    3    3    0    0  0.60859014789E+01 -0.20737447766E+01  0.66163794903E+01  0.92257840876E+01  0.51100000000E-03 0. -1.
        -11    1    3    3    0    0  0.24815656916E+02  0.22777672003E+01  0.63430863132E+01  0.25714583330E+02  0.51100000000E-03 0.  1.
         12    1    3    3    0    0  0.10296429116E+02 -0.75447574998E+01 -0.14502283954E+01  0.12846905490E+02  0.00000000000E+00 0. -1.
</event>
<event>
 7    1  0.4005571E-009  0.4778728E+02  0.7816164E-02  0.1312668E+00
        -11   -1    0    0    0    0  0.00000000000E+00  0.00000000000E+00  0.45593999997E+02  0.45594000000E+02  0.51100000000E-03 0. -1.
         11   -1    0    0    0    0 -0.00000000000E+00 -0.00000000000E+00 -0.45593999997E+02  0.45594000000E+02  0.51100000000E-03 0.  1.
    9900012    2    1    2    0    0 -0.15019010390E+02  0.24981304759E+02 -0.32155660436E+02  0.47787276980E+02  0.20000027063E+02 0.  0.
         12    1    1    2    0    0  0.15019010390E+02 -0.24981304759E+02  0.32155660436E+02  0.43400723020E+02  0.00000000000E+00 0. -1.
         11    1    3    3    0    0 -0.24998299228E+01  0.55680172275E+01 -0.13859127274E+02  0.15143558847E+02  0.51100000000E-03 0. -1.
        -11    1    3    3    0    0 -0.33928300090E+00  0.11145772296E+02 -0.12685548866E+02  0.16889834319E+02  0.51100000000E-03 0.  1.
         12    1    3    3    0    0 -0.12179897467E+02  0.82675152360E+01 -0.56109842963E+01  0.15753883815E+02  0.00000000000E+00 0. -1.
</event>
<event>
 7    1  0.4005571E-009  0.4778725E+02  0.7816164E-02  0.1312668E+00
        -11   -1    0    0    0    0  0.00000000000E+00  0.00000000000E+00  0.45593999997E+02  0.45594000000E+02  0.51100000000E-03 0.  1.
         11   -1    0    0    0    0 -0.00000000000E+00 -0.00000000000E+00 -0.45593999997E+02  0.45594000000E+02  0.51100000000E-03 0. -1.
    9900012    2    1    2    0    0 -0.27010512206E+02  0.21447910911E+02  0.26344718297E+02  0.47787253068E+02  0.19999918039E+02 0.  0.
         12    1    1    2    0    0  0.27010512206E+02 -0.21447910911E+02 -0.26344718297E+02  0.43400746932E+02  0.00000000000E+00 0. -1.
         11    1    3    3    0    0 -0.13074764440E+02  0.26897103463E+01  0.10105828537E+02  0.16742514076E+02  0.51100000000E-03 0. -1.
        -11    1    3    3    0    0 -0.15030404749E+02  0.15921014718E+02  0.17213521043E+02  0.27851338990E+02  0.51100000000E-03 0.  1.
        -12    1    3    3    0    0  0.10946569827E+01  0.28371858463E+01 -0.97463128313E+00  0.31934000022E+01  0.00000000000E+00 0.  1.
</event>
<event>
 7    1  0.4005571E-009  0.4778727E+02  0.7816164E-02  0.1312668E+00
        -11   -1    0    0    0    0  0.00000000000E+00  0.00000000000E+00  0.45593999997E+02  0.45594000000E+02  0.51100000000E-03 0.  1.
         11   -1    0    0    0    0 -0.00000000000E+00 -0.00000000000E+00 -0.45593999997E+02  0.45594000000E+02  0.51100000000E-03 0. -1.
    9900012    2    1    2    0    0 -0.54443641792E+01  0.82798182166E-01  0.43057815743E+02  0.47787268976E+02  0.19999990568E+02 0.  0.
         12    1    1    2    0    0  0.54443641792E+01 -0.82798182166E-01 -0.43057815743E+02  0.43400731024E+02  0.00000000000E+00 0. -1.
         11    1    3    3    0    0  0.66767787366E+00 -0.55543910448E+01  0.14043876710E+02  0.15117126940E+02  0.51100000000E-03 0. -1.
        -11    1    3    3    0    0 -0.46772408273E+01  0.64554095357E+01  0.29795046491E+02  0.30843049293E+02  0.51100000000E-03 0.  1.
         12    1    3    3    0    0 -0.14348012256E+01 -0.81822030872E+00 -0.78110745741E+00  0.18270927428E+01  0.00000000000E+00 0. -1.
</event>
<event>
 7    1  0.4005571E-009  0.4778727E+02  0.7816164E-02  0.1312668E+00
        -11   -1    0    0    0    0  0.00000000000E+00  0.00000000000E+00  0.45593999997E+02  0.45594000000E+02  0.51100000000E-03 0. -1.
         11   -1    0    0    0    0 -0.00000000000E+00 -0.00000000000E+00 -0.45593999997E+02  0.45594000000E+02  0.51100000000E-03 0.  1.
    9900012    2    1    2    0    0  0.36089613156E+02  0.18890489477E+02  0.14977065673E+02  0.47787271129E+02  0.20000000384E+02 0.  0.
         12    1    1    2    0    0 -0.36089613156E+02 -0.18890489477E+02 -0.14977065673E+02  0.43400728871E+02  0.00000000000E+00 0. -1.
         11    1    3    3    0    0  0.17673354604E+02  0.10429532137E+02  0.17352822326E+01  0.20594509177E+02  0.51100000000E-03 0. -1.
        -11    1    3    3    0    0  0.13239764384E+02  0.38671882833E+01  0.19239030205E+01  0.13926518203E+02  0.51100000000E-03 0.  1.
         12    1    3    3    0    0  0.51764941677E+01  0.45937690567E+01  0.11317880420E+02  0.13266243749E+02  0.00000000000E+00 0. -1.
</event>
<event>
 7    1  0.4005571E-009  0.4778727E+02  0.7816164E-02  0.1312668E+00
        -11   -1    0    0    0    0  0.00000000000E+00  0.00000000000E+00  0.45593999997E+02  0.45594000000E+02  0.51100000000E-03 0.  1.
         11   -1    0    0    0    0 -0.00000000000E+00 -0.00000000000E+00 -0.45593999997E+02  0.45594000000E+02  0.51100000000E-03 0. -1.
    9900012    2    1    2    0    0  0.19928765868E+02 -0.67928195327E+01  0.37951616709E+02  0.47787270547E+02  0.19999997731E+02 0.  0.
         12    1    1    2    0    0 -0.19928765868E+02  0.67928195327E+01 -0.37951616709E+02  0.43400729453E+02  0.00000000000E+00 0. -1.
         11    1    3    3    0    0  0.10562387428E+01  0.94203542905E+00 -0.86751043520E+00  0.16600137493E+01  0.51100000000E-03 0. -1.
        -11    1    3    3    0    0  0.80470426635E+01  0.37955914980E+01  0.11243400749E+02  0.14337903302E+02  0.51100000000E-03 0.  1.
        -12    1    3    3    0    0  0.10825484461E+02 -0.11530446460E+02  0.27575726396E+02  0.31789353495E+02  0.00000000000E+00 0.  1.
</event>
<event>
 7    1  0.4005571E-009  0.4778727E+02  0.7816164E-02  0.1312668E+00
        -11   -1    0    0    0    0  0.00000000000E+00  0.00000000000E+00  0.45593999997E+02  0.45594000000E+02  0.51100000000E-03 0.  1.
         11   -1    0    0    0    0 -0.00000000000E+00 -0.00000000000E+00 -0.45593999997E+02  0.45594000000E+02  0.51100000000E-03 0. -1.
    9900012    2    1    2    0    0  0.19662560380E+02  0.32615902103E+02  0.20813703435E+02  0.47787267272E+02  0.19999982798E+02 0.  0.
         12    1    1    2    0    0 -0.19662560380E+02 -0.32615902103E+02 -0.20813703435E+02  0.43400732728E+02  0.00000000000E+00 0. -1.
         11    1    3    3    0    0  0.23426814113E+00  0.60795880829E+01 -0.17194787018E+01  0.63224109395E+01  0.51100000000E-03 0. -1.
        -11    1    3    3    0    0  0.35707787871E+01  0.12356433657E+02  0.46595555648E+01  0.13680035533E+02  0.51100000000E-03 0.  1.
        -12    1    3    3    0    0  0.15857513452E+02  0.14179880363E+02  0.17873626572E+02  0.27784820799E+02  0.00000000000E+00 0.  1.
</event>
<event>
 7    1  0.4005571E-009  0.4778727E+02  0.7816164E-02  0.1312668E+00
        -11   -1    0    0    0    0  0.00000000000E+00  0.00000000000E+00  0.45593999997E+02  0.45594000000E+02  0.51100000000E-03 0. -1.
         11   -1    0    0    0    0 -0.00000000000E+00 -0.00000000000E+00 -0.45593999997E+02  0.45594000000E+02  0.51100000000E-03 0.  1.
    9900012    2    1    2    0    0  0.15726168655E+02 -0.25654961245E+02 -0.31275134327E+02  0.47787269082E+02  0.19999991053E+02 0.  0.
         12    1    1    2    0    0 -0.15726168655E+02  0.25654961245E+02  0.31275134327E+02  0.43400730918E+02  0.00000000000E+00 0. -1.
         11    1    3    3    0    0 -0.11467813085E+01 -0.28246028957E+01 -0.95793988065E+01  0.10052779250E+02  0.51100000000E-03 0. -1.
        -11    1    3    3    0    0  0.25802730178E+01 -0.12878993536E+02 -0.12055155637E+02  0.17828434060E+02  0.51100000000E-03 0.  1.
        -12    1    3    3    0    0  0.14292676946E+02 -0.99513648134E+01 -0.96405798833E+01  0.19906055772E+02  0.00000000000E+00 0.  1.
</event>
<event>
 7    1  0.4005571E-009  0.4778727E+02  0.7816164E-02  0.1312668E+00
        -11   -1    0    0    0    0  0.00000000000E+00  0.00000000000E+00  0.45593999997E+02  0.45594000000E+02  0.51100000000E-03 0.  1.
         11   -1    0    0    0    0 -0.00000000000E+00 -0.00000000000E+00 -0.45593999997E+02  0.45594000000E+02  0.51100000000E-03 0. -1.
    9900012    2    1    2    0    0  0.82938613165E+01 -0.23017058597E+02  0.35847592828E+02  0.47787273813E+02  0.20000012622E+02 0.  0.
         12    1    1    2    0    0 -0.82938613165E+01  0.23017058597E+02 -0.35847592828E+02  0.43400726187E+02  0.00000000000E+00 0. -1.
         11    1    3    3    0    0  0.65631035853E+01 -0.94237686987E+01  0.88947779138E+01  0.14525798414E+02  0.51100000000E-03 0. -1.
        -11    1    3    3    0    0  0.69266954136E+01 -0.12307920098E+02  0.20110125805E+02  0.24573993706E+02  0.51100000000E-03 0.  1.
         12    1    3    3    0    0 -0.51959376824E+01 -0.12853697999E+01  0.68426891093E+01  0.86874816931E+01  0.00000000000E+00 0. -1.
</event>
<event>
 7    1  0.4005571E-009  0.4778728E+02  0.7816164E-02  0.1312668E+00
        -11   -1    0    0    0    0  0.00000000000E+00  0.00000000000E+00  0.45593999997E+02  0.45594000000E+02  0.51100000000E-03 0. -1.
         11   -1    0    0    0    0 -0.00000000000E+00 -0.00000000000E+00 -0.45593999997E+02  0.45594000000E+02  0.51100000000E-03 0.  1.
    9900012    2    1    2    0    0 -0.16565035635E+02  0.24975328357E+01 -0.40037284980E+02  0.47787282674E+02  0.20000053022E+02 0.  0.
         12    1    1    2    0    0  0.16565035635E+02 -0.24975328357E+01  0.40037284980E+02  0.43400717326E+02  0.00000000000E+00 0. -1.
         11    1    3    3    0    0 -0.87676381060E+01  0.91089590835E+01 -0.12791230704E+02  0.17984999214E+02  0.51100000000E-03 0. -1.
        -11    1    3    3    0    0 -0.60024677690E+01 -0.21504067012E+01 -0.96897117952E+01  0.11599326844E+02  0.51100000000E-03 0.  1.
         12    1    3    3    0    0 -0.17949297599E+01 -0.44610195466E+01 -0.17556342481E+02  0.18202956616E+02  0.00000000000E+00 0. -1.
</event>
<event>
 7    1  0.4005571E-009  0.4778728E+02  0.7816164E-02  0.1312668E+00
        -11   -1    0    0    0    0  0.00000000000E+00  0.00000000000E+00  0.45593999997E+02  0.45594000000E+02  0.51100000000E-03 0.  1.
         11   -1    0    0    0    0 -0.00000000000E+00 -0.00000000000E+00 -0.45593999997E+02  0.45594000000E+02  0.51100000000E-03 0. -1.
    9900012    2    1    2    0    0 -0.30504784262E+02  0.30511688993E+02 -0.47029181103E+01  0.47787280342E+02  0.20000042391E+02 0.  0.
         12    1    1    2    0    0  0.30504784262E+02 -0.30511688993E+02  0.47029181103E+01  0.43400719658E+02  0.00000000000E+00 0. -1.
         11    1    3    3    0    0 -0.48967029948E+01  0.17148880312E+02 -0.37439899281E+01  0.18223041926E+02  0.51100000000E-03 0. -1.
        -11    1    3    3    0    0 -0.77471093144E+01  0.74026847859E+01 -0.58829678852E+00  0.10731427591E+02  0.51100000000E-03 0.  1.
        -12    1    3    3    0    0 -0.17860971953E+02  0.59601238944E+01 -0.37063139366E+00  0.18832810825E+02  0.00000000000E+00 0.  1.
</event>
<event>
 7    1  0.4591246E-009  0.4778728E+02  0.7816164E-02  0.1312668E+00
        -11   -1    0    0    0    0  0.00000000000E+00  0.00000000000E+00  0.45593999997E+02  0.45594000000E+02  0.51100000000E-03 0. -1.
         11   -1    0    0    0    0 -0.00000000000E+00 -0.00000000000E+00 -0.45593999997E+02  0.45594000000E+02  0.51100000000E-03 0.  1.
    9900012    2    1    2    0    0  0.35252422237E+02  0.24333482055E+02 -0.69836078606E+01  0.47787281097E+02  0.20000045836E+02 0.  0.
         12    1    1    2    0    0 -0.35252422237E+02 -0.24333482055E+02  0.69836078606E+01  0.43400718903E+02  0.00000000000E+00 0. -1.
         11    1    3    3    0    0  0.10865299184E+02  0.32918708242E+01  0.33201660871E+01  0.11828552024E+02  0.51100000000E-03 0. -1.
        -11    1    3    3    0    0  0.12404777187E+02  0.32447440694E+01 -0.56147473177E+01  0.13997580106E+02  0.51100000000E-03 0.  1.
        -12    1    3    3    0    0  0.11982345867E+02  0.17796867162E+02 -0.46890266300E+01  0.21961148968E+02  0.00000000000E+00 0.  1.
</event>
<event>
 7    1  0.4005571E-009  0.4778727E+02  0.7816164E-02  0.1312668E+00
        -11   -1    0    0    0    0  0.00000000000E+00  0.00000000000E+00  0.45593999997E+02  0.45594000000E+02  0.51100000000E-03 0.  1.
         11   -1    0    0    0    0 -0.00000000000E+00 -0.00000000000E+00 -0.45593999997E+02  0.45594000000E+02  0.51100000000E-03 0. -1.
    9900012    2    1    2    0    0 -0.37130357095E+02  0.86876314263E+01  0.20724014858E+02  0.47787272476E+02  0.20000006526E+02 0.  0.
         12    1    1    2    0    0  0.37130357095E+02 -0.86876314263E+01 -0.20724014858E+02  0.43400727524E+02  0.00000000000E+00 0. -1.
         11    1    3    3    0    0 -0.65668016510E+01  0.65659799084E+01 -0.50349370966E+00  0.92999184006E+01  0.51100000000E-03 0. -1.
        -11    1    3    3    0    0 -0.73062667719E+01 -0.12128958641E+01  0.97865537067E+00  0.74706369952E+01  0.51100000000E-03 0.  1.
        -12    1    3    3    0    0 -0.23257288672E+02  0.33345473820E+01  0.20248853197E+02  0.31016717080E+02  0.00000000000E+00 0.  1.
</event>
<event>
 7    1  0.4005571E-009  0.4778731E+02  0.7816164E-02  0.1312668E+00
        -11   -1    0    0    0    0  0.00000000000E+00  0.00000000000E+00  0.45593999997E+02  0.45594000000E+02  0.51100000000E-03 0. -1.
         11   -1    0    0    0    0 -0.00000000000E+00 -0.00000000000E+00 -0.45593999997E+02  0.45594000000E+02  0.51100000000E-03 0.  1.
    9900012    2    1    2    0    0 -0.58118305038E+01  0.11752085130E+02 -0.41373072505E+02  0.47787308678E+02  0.20000171587E+02 0.  0.
         12    1    1    2    0    0  0.58118305038E+01 -0.11752085130E+02  0.41373072505E+02  0.43400691322E+02  0.00000000000E+00 0. -1.
         11    1    3    3    0    0 -0.10442495193E+01  0.16270137020E+01 -0.42570431412E+01  0.46754729399E+01  0.51100000000E-03 0. -1.
        -11    1    3    3    0    0 -0.36055194417E+01 -0.46819704928E+01 -0.50506656484E+01  0.77736633509E+01  0.51100000000E-03 0.  1.
         12    1    3    3    0    0 -0.11620615429E+01  0.14807041921E+02 -0.32065363715E+02  0.35338172387E+02  0.00000000000E+00 0. -1.
</event>
<event>
 7    1  0.4005571E-009  0.4778727E+02  0.7816164E-02  0.1312668E+00
        -11   -1    0    0    0    0  0.00000000000E+00  0.00000000000E+00  0.45593999997E+02  0.45594000000E+02  0.51100000000E-03 0.  1.
         11   -1    0    0    0    0 -0.00000000000E+00 -0.00000000000E+00 -0.45593999997E+02  0.45594000000E+02  0.51100000000E-03 0. -1.
    9900012    2    1    2    0    0 -0.41902256118E+01 -0.17058235206E+02  0.39687301354E+02  0.47787271115E+02  0.20000000320E+02 0.  0.
         12    1    1    2    0    0  0.41902256118E+01  0.17058235206E+02 -0.39687301354E+02  0.43400728885E+02  0.00000000000E+00 0. -1.
         11    1    3    3    0    0 -0.14281882544E-01  0.29003083944E+01  0.95428985228E+01  0.99739112304E+01  0.51100000000E-03 0. -1.
        -11    1    3    3    0    0 -0.32976209084E+01 -0.63308390214E+00  0.31601962396E+01  0.46110670583E+01  0.51100000000E-03 0.  1.
        -12    1    3    3    0    0 -0.87832282080E+00 -0.19325459698E+02  0.26984206592E+02  0.33202292826E+02  0.00000000000E+00 0.  1.
</event>
<event>
 7    1  0.4005571E-009  0.4778727E+02  0.7816164E-02  0.1312668E+00
        -11   -1    0    0    0    0  0.00000000000E+00  0.00000000000E+00  0.45593999997E+02  0.45594000000E+02  0.51100000000E-03 0. -1.
         11   -1    0    0    0    0 -0.00000000000E+00 -0.00000000000E+00 -0.45593999997E+02  0.45594000000E+02  0.51100000000E-03 0.  1.
    9900012    2    1    2    0    0 -0.35019778397E+02 -0.13086384547E+02 -0.22045059848E+02  0.47787274163E+02  0.20000014217E+02 0.  0.
         12    1    1    2    0    0  0.35019778397E+02  0.13086384547E+02  0.22045059848E+02  0.43400725837E+02  0.00000000000E+00 0. -1.
         11    1    3    3    0    0 -0.16877897922E+02 -0.36784469476E+01 -0.87565819303E+01  0.19366779226E+02  0.51100000000E-03 0.  1.
        -11    1    3    3    0    0 -0.15906981664E+02 -0.37676448798E+01 -0.14926240799E+02  0.22136392621E+02  0.51100000000E-03 0. -1.
         12    1    3    3    0    0 -0.22348988110E+01 -0.56402927200E+01  0.16377628817E+01  0.62841023161E+01  0.00000000000E+00 0. -1.
</event>
<event>
 7    1  0.4005571E-009  0.4778727E+02  0.7816164E-02  0.1312668E+00
        -11   -1    0    0    0    0  0.00000000000E+00  0.00000000000E+00  0.45593999997E+02  0.45594000000E+02  0.51100000000E-03 0.  1.
         11   -1    0    0    0    0 -0.00000000000E+00 -0.00000000000E+00 -0.45593999997E+02  0.45594000000E+02  0.51100000000E-03 0. -1.
    9900012    2    1    2    0    0  0.12111335022E+02 -0.91337911211E+01  0.40663409559E+02  0.47787268978E+02  0.19999990579E+02 0.  0.
         12    1    1    2    0    0 -0.12111335022E+02  0.91337911211E+01 -0.40663409559E+02  0.43400731022E+02  0.00000000000E+00 0. -1.
         11    1    3    3    0    0 -0.25116395231E+01 -0.78075120706E+01  0.13119011203E+02  0.15471717197E+02  0.51100000000E-03 0. -1.
        -11    1    3    3    0    0  0.63050389862E+00  0.12304712226E+01  0.78350197801E-01  0.13848225917E+01  0.51100000000E-03 0.  1.
        -12    1    3    3    0    0  0.13992470647E+02 -0.25567502731E+01  0.27466048158E+02  0.30930729189E+02  0.00000000000E+00 0.  1.
</event>
<event>
 7    1  0.4005571E-009  0.4778727E+02  0.7816164E-02  0.1312668E+00
        -11   -1    0    0    0    0  0.00000000000E+00  0.00000000000E+00  0.45593999997E+02  0.45594000000E+02  0.51100000000E-03 0.  1.
         11   -1    0    0    0    0 -0.00000000000E+00 -0.00000000000E+00 -0.45593999997E+02  0.45594000000E+02  0.51100000000E-03 0. -1.
    9900012    2    1    2    0    0  0.22385587516E+02  0.11586654428E+02  0.35330698903E+02  0.47787269888E+02  0.19999994726E+02 0.  0.
         12    1    1    2    0    0 -0.22385587516E+02 -0.11586654428E+02 -0.35330698903E+02  0.43400730112E+02  0.00000000000E+00 0. -1.
         11    1    3    3    0    0  0.20373149828E+01  0.34802651611E+01  0.24650763168E+01  0.47264679666E+01  0.51100000000E-03 0. -1.
        -11    1    3    3    0    0  0.12263783502E+02  0.10761092348E+02  0.29877620302E+02  0.34042233908E+02  0.51100000000E-03 0.  1.
        -12    1    3    3    0    0  0.80844890313E+01 -0.26547030810E+01  0.29880022849E+01  0.90185680128E+01  0.00000000000E+00 0.  1.
</event>
<event>
 7    1  0.4005571E-009  0.4778727E+02  0.7816164E-02  0.1312668E+00
        -11   -1    0    0    0    0  0.00000000000E+00  0.00000000000E+00  0.45593999997E+02  0.45594000000E+02  0.51100000000E-03 0.  1.
         11   -1    0    0    0    0 -0.00000000000E+00 -0.00000000000E+00 -0.45593999997E+02  0.45594000000E+02  0.51100000000E-03 0. -1.
    9900012    2    1    2    0    0  0.35780277560E+02 -0.98009413535E+01  0.22524132176E+02  0.47787271389E+02  0.20000001572E+02 0.  0.
         12    1    1    2    0    0 -0.35780277560E+02  0.98009413535E+01 -0.22524132176E+02  0.43400728611E+02  0.00000000000E+00 0. -1.
         11    1    3    3    0    0  0.17041442528E+02 -0.32545331710E+01  0.37637523843E+01  0.17752987970E+02  0.51100000000E-03 0.  1.
        -11    1    3    3    0    0  0.18445170145E+02 -0.27670474390E+01  0.11691113415E+02  0.22012791426E+02  0.51100000000E-03 0. -1.
         12    1    3    3    0    0  0.29366488641E+00 -0.37793607434E+01  0.70692663766E+01  0.80214919932E+01  0.00000000000E+00 0. -1.
</event>
<event>
 7    1  0.4005571E-009  0.4778725E+02  0.7816164E-02  0.1312668E+00
        -11   -1    0    0    0    0  0.00000000000E+00  0.00000000000E+00  0.45593999997E+02  0.45594000000E+02  0.51100000000E-03 0.  1.
         11   -1    0    0    0    0 -0.00000000000E+00 -0.00000000000E+00 -0.45593999997E+02  0.45594000000E+02  0.51100000000E-03 0. -1.
    9900012    2    1    2    0    0 -0.39818805411E+02  0.65661223050E+01  0.15967910964E+02  0.47787246470E+02  0.19999887954E+02 0.  0.
         12    1    1    2    0    0  0.39818805411E+02 -0.65661223050E+01 -0.15967910964E+02  0.43400753530E+02  0.00000000000E+00 0. -1.
         11    1    3    3    0    0 -0.71605708361E+01  0.20449217643E+01 -0.31769012417E+01  0.80961831428E+01  0.51100000000E-03 0. -1.
        -11    1    3    3    0    0  0.36668617559E+00  0.14111081001E+01  0.14802011696E+00  0.14654675150E+01  0.51100000000E-03 0.  1.
        -12    1    3    3    0    0 -0.33024920750E+02  0.31100924407E+01  0.18996792088E+02  0.38225595812E+02  0.00000000000E+00 0.  1.
</event>
<event>
 7    1  0.4005571E-009  0.4778728E+02  0.7816164E-02  0.1312668E+00
        -11   -1    0    0    0    0  0.00000000000E+00  0.00000000000E+00  0.45593999997E+02  0.45594000000E+02  0.51100000000E-03 0. -1.
         11   -1    0    0    0    0 -0.00000000000E+00 -0.00000000000E+00 -0.45593999997E+02  0.45594000000E+02  0.51100000000E-03 0.  1.
    9900012    2    1    2    0    0  0.17697161308E+02 -0.38244110725E+02  0.10383674042E+02  0.47787283299E+02  0.20000055875E+02 0.  0.
         12    1    1    2    0    0 -0.17697161308E+02  0.38244110725E+02 -0.10383674042E+02  0.43400716701E+02  0.00000000000E+00 0. -1.
         11    1    3    3    0    0  0.21014029615E+01 -0.10471952585E+02  0.33317151899E+01  0.11188297981E+02  0.51100000000E-03 0.  1.
        -11    1    3    3    0    0  0.17305809345E+02 -0.17429657228E+02  0.11951216417E+01  0.24590898807E+02  0.51100000000E-03 0. -1.
         12    1    3    3    0    0 -0.17100509981E+01 -0.10342500912E+02  0.58568372108E+01  0.12008086511E+02  0.00000000000E+00 0. -1.
</event>
<event>
 7    1  0.4005571E-009  0.4778727E+02  0.7816164E-02  0.1312668E+00
        -11   -1    0    0    0    0  0.00000000000E+00  0.00000000000E+00  0.45593999997E+02  0.45594000000E+02  0.51100000000E-03 0.  1.
         11   -1    0    0    0    0 -0.00000000000E+00 -0.00000000000E+00 -0.45593999997E+02  0.45594000000E+02  0.51100000000E-03 0. -1.
    9900012    2    1    2    0    0  0.12956859604E+02  0.40553010346E+02  0.84377934700E+01  0.47787271694E+02  0.20000002959E+02 0.  0.
         12    1    1    2    0    0 -0.12956859604E+02 -0.40553010346E+02 -0.84377934700E+01  0.43400728306E+02  0.00000000000E+00 0. -1.
         11    1    3    3    0    0  0.16199894938E+01  0.12183117258E+02  0.26461284386E+00  0.12293198619E+02  0.51100000000E-03 0. -1.
        -11    1    3    3    0    0 -0.19169337830E+01  0.15792360702E+01  0.48128732077E+01  0.54159367120E+01  0.51100000000E-03 0.  1.
        -12    1    3    3    0    0  0.13253803893E+02  0.26790657018E+02  0.33603074184E+01  0.30078136362E+02  0.00000000000E+00 0.  1.
</event>
<event>
 7    1  0.4005571E-009  0.4778727E+02  0.7816164E-02  0.1312668E+00
        -11   -1    0    0    0    0  0.00000000000E+00  0.00000000000E+00  0.45593999997E+02  0.45594000000E+02  0.51100000000E-03 0.  1.
         11   -1    0    0    0    0 -0.00000000000E+00 -0.00000000000E+00 -0.45593999997E+02  0.45594000000E+02  0.51100000000E-03 0. -1.
    9900012    2    1    2    0    0 -0.30577117420E+02  0.26618553653E+02  0.15495676663E+02  0.47787268398E+02  0.19999987934E+02 0.  0.
         12    1    1    2    0    0  0.30577117420E+02 -0.26618553653E+02 -0.15495676663E+02  0.43400731602E+02  0.00000000000E+00 0. -1.
         11    1    3    3    0    0 -0.42114373389E+01 -0.16219806163E+01  0.66958512226E+01  0.80747414470E+01  0.51100000000E-03 0. -1.
        -11    1    3    3    0    0 -0.10543126952E+02  0.12238764923E+02  0.25199018305E+01  0.16349152830E+02  0.51100000000E-03 0.  1.
         12    1    3    3    0    0 -0.15822553130E+02  0.16001769347E+02  0.62799236102E+01  0.23363374121E+02  0.00000000000E+00 0. -1.
</event>
<event>
 7    1  0.4005571E-009  0.4778727E+02  0.7816164E-02  0.1312668E+00
        -11   -1    0    0    0    0  0.00000000000E+00  0.00000000000E+00  0.45593999997E+02  0.45594000000E+02  0.51100000000E-03 0.  1.
         11   -1    0    0    0    0 -0.00000000000E+00 -0.00000000000E+00 -0.45593999997E+02  0.45594000000E+02  0.51100000000E-03 0. -1.
    9900012    2    1    2    0    0 -0.32994078529E+00  0.28357029787E+02  0.32854123730E+02  0.47787269069E+02  0.19999990993E+02 0.  0.
         12    1    1    2    0    0  0.32994078529E+00 -0.28357029787E+02 -0.32854123730E+02  0.43400730931E+02  0.00000000000E+00 0. -1.
         11    1    3    3    0    0 -0.43371229728E+01  0.32801574775E+01  0.66962898423E+01  0.86261443689E+01  0.51100000000E-03 0. -1.
        -11    1    3    3    0    0  0.15224631185E+01  0.53604325877E+01  0.15794827535E+02  0.16748991271E+02  0.51100000000E-03 0.  1.
        -12    1    3    3    0    0  0.24847190691E+01  0.19716439722E+02  0.10363006352E+02  0.22412133429E+02  0.00000000000E+00 0.  1.
</event>
<event>
 7    1  0.4005571E-009  0.4778727E+02  0.7816164E-02  0.1312668E+00
        -11   -1    0    0    0    0  0.00000000000E+00  0.00000000000E+00  0.45593999997E+02  0.45594000000E+02  0.51100000000E-03 0. -1.
         11   -1    0    0    0    0 -0.00000000000E+00 -0.00000000000E+00 -0.45593999997E+02  0.45594000000E+02  0.51100000000E-03 0.  1.
    9900012    2    1    2    0    0  0.41398753432E+02 -0.11197951183E+02  0.66612533224E+01  0.47787271985E+02  0.20000004289E+02 0.  0.
         12    1    1    2    0    0 -0.41398753432E+02  0.11197951183E+02 -0.66612533224E+01  0.43400728015E+02  0.00000000000E+00 0. -1.
         11    1    3    3    0    0  0.60345229958E+01 -0.47381109862E+01  0.66106014044E+01  0.10127448578E+02  0.51100000000E-03 0. -1.
        -11    1    3    3    0    0  0.55839035636E+01 -0.52350428219E+01  0.15784581427E+01  0.78151892315E+01  0.51100000000E-03 0.  1.
        -12    1    3    3    0    0  0.29780326872E+02 -0.12247973750E+01 -0.15278062246E+01  0.29844634176E+02  0.00000000000E+00 0.  1.
</event>
<event>
 7    1  0.4005571E-009  0.4778724E+02  0.7816164E-02  0.1312668E+00
        -11   -1    0    0    0    0  0.00000000000E+00  0.00000000000E+00  0.45593999997E+02  0.45594000000E+02  0.51100000000E-03 0.  1.
         11   -1    0    0    0    0 -0.00000000000E+00 -0.00000000000E+00 -0.45593999997E+02  0.45594000000E+02  0.51100000000E-03 0. -1.
    9900012    2    1    2    0    0  0.21541827423E+02  0.12449641360E+02  0.35560965086E+02  0.47787238065E+02  0.19999849632E+02 0.  0.
         12    1    1    2    0    0 -0.21541827423E+02 -0.12449641360E+02 -0.35560965086E+02  0.43400761935E+02  0.00000000000E+00 0. -1.
         11    1    3    3    0    0  0.29051388326E+01  0.79695890370E+01  0.91855667475E+01  0.12503152314E+02  0.51100000000E-03 0.  1.
        -11    1    3    3    0    0  0.17916314413E+02  0.27419684061E+01  0.14364878227E+02  0.23127093194E+02  0.51100000000E-03 0. -1.
         12    1    3    3    0    0  0.72037417708E+00  0.17380839166E+01  0.12010520112E+02  0.12156992556E+02  0.00000000000E+00 0. -1.
</event>
<event>
 7    1  0.4005571E-009  0.4778727E+02  0.7816164E-02  0.1312668E+00
        -11   -1    0    0    0    0  0.00000000000E+00  0.00000000000E+00  0.45593999997E+02  0.45594000000E+02  0.51100000000E-03 0.  1.
         11   -1    0    0    0    0 -0.00000000000E+00 -0.00000000000E+00 -0.45593999997E+02  0.45594000000E+02  0.51100000000E-03 0. -1.
    9900012    2    1    2    0    0 -0.16624036058E+02 -0.36724834169E+02  0.16079539802E+02  0.47787267059E+02  0.19999981829E+02 0.  0.
         12    1    1    2    0    0  0.16624036058E+02  0.36724834169E+02 -0.16079539802E+02  0.43400732941E+02  0.00000000000E+00 0. -1.
         11    1    3    3    0    0 -0.69601185828E+01 -0.22788973472E+02  0.63519617246E+01  0.24660251025E+02  0.51100000000E-03 0. -1.
        -11    1    3    3    0    0 -0.60306433864E+01 -0.18417227721E+01 -0.12101175951E+01  0.64206687563E+01  0.51100000000E-03 0.  1.
         12    1    3    3    0    0 -0.36332740888E+01 -0.12094137925E+02  0.10937695673E+02  0.16706347278E+02  0.00000000000E+00 0. -1.
</event>
<event>
 7    1  0.4005571E-009  0.4778727E+02  0.7816164E-02  0.1312668E+00
        -11   -1    0    0    0    0  0.00000000000E+00  0.00000000000E+00  0.45593999997E+02  0.45594000000E+02  0.51100000000E-03 0.  1.
         11   -1    0    0    0    0 -0.00000000000E+00 -0.00000000000E+00 -0.45593999997E+02  0.45594000000E+02  0.51100000000E-03 0. -1.
    9900012    2    1    2    0    0  0.17814710279E+02 -0.37911899005E+02  0.11355491005E+02  0.47787272306E+02  0.20000005750E+02 0.  0.
         12    1    1    2    0    0 -0.17814710279E+02  0.37911899005E+02 -0.11355491005E+02  0.43400727694E+02  0.00000000000E+00 0. -1.
         11    1    3    3    0    0  0.47573730129E+01 -0.92833962692E+01 -0.46111625498E+01  0.11405124488E+02  0.51100000000E-03 0.  1.
        -11    1    3    3    0    0  0.28810141686E+01 -0.73500543415E+00  0.18838937258E+01  0.35198766256E+01  0.51100000000E-03 0. -1.
        -12    1    3    3    0    0  0.10176323097E+02 -0.27893497301E+02  0.14082759829E+02  0.32862271192E+02  0.00000000000E+00 0.  1.
</event>
<event>
 7    1  0.4005571E-009  0.4778727E+02  0.7816164E-02  0.1312668E+00
        -11   -1    0    0    0    0  0.00000000000E+00  0.00000000000E+00  0.45593999997E+02  0.45594000000E+02  0.51100000000E-03 0.  1.
         11   -1    0    0    0    0 -0.00000000000E+00 -0.00000000000E+00 -0.45593999997E+02  0.45594000000E+02  0.51100000000E-03 0. -1.
    9900012    2    1    2    0    0 -0.11394143653E+02 -0.22022906989E+01  0.41820410132E+02  0.47787270772E+02  0.19999998757E+02 0.  0.
         12    1    1    2    0    0  0.11394143653E+02  0.22022906989E+01 -0.41820410132E+02  0.43400729228E+02  0.00000000000E+00 0. -1.
         11    1    3    3    0    0  0.30708831861E+01 -0.44153391517E+01  0.35579616231E+01  0.64486149319E+01  0.51100000000E-03 0. -1.
        -11    1    3    3    0    0 -0.48613174931E+01  0.12099729777E+01  0.69232888530E+01  0.85456638817E+01  0.51100000000E-03 0.  1.
        -12    1    3    3    0    0 -0.96037093456E+01  0.10030754751E+01  0.31339159656E+02  0.32792991958E+02  0.00000000000E+00 0.  1.
</event>
<event>
 7    1  0.4005571E-009  0.4778727E+02  0.7816164E-02  0.1312668E+00
        -11   -1    0    0    0    0  0.00000000000E+00  0.00000000000E+00  0.45593999997E+02  0.45594000000E+02  0.51100000000E-03 0. -1.
         11   -1    0    0    0    0 -0.00000000000E+00 -0.00000000000E+00 -0.45593999997E+02  0.45594000000E+02  0.51100000000E-03 0.  1.
    9900012    2    1    2    0    0 -0.13903523578E+02  0.40311249713E+02  0.80819769140E+01  0.47787272216E+02  0.20000005342E+02 0.  0.
         12    1    1    2    0    0  0.13903523578E+02 -0.40311249713E+02 -0.80819769140E+01  0.43400727784E+02  0.00000000000E+00 0. -1.
         11    1    3    3    0    0 -0.22007426586E+01 -0.62521606433E+00 -0.11050476813E+01  0.25407270644E+01  0.51100000000E-03 0. -1.
        -11    1    3    3    0    0 -0.30012333126E+01  0.59603567705E+01  0.61525957924E+01  0.90767664657E+01  0.51100000000E-03 0.  1.
         12    1    3    3    0    0 -0.87015476072E+01  0.34976109007E+02  0.30344288030E+01  0.36169778686E+02  0.00000000000E+00 0. -1.
</event>
<event>
 7    1  0.4005571E-009  0.4778727E+02  0.7816164E-02  0.1312668E+00
        -11   -1    0    0    0    0  0.00000000000E+00  0.00000000000E+00  0.45593999997E+02  0.45594000000E+02  0.51100000000E-03 0.  1.
         11   -1    0    0    0    0 -0.00000000000E+00 -0.00000000000E+00 -0.45593999997E+02  0.45594000000E+02  0.51100000000E-03 0. -1.
    9900012    2    1    2    0    0 -0.30352057798E+02  0.23480891360E+02  0.20273715842E+02  0.47787271600E+02  0.20000002531E+02 0.  0.
         12    1    1    2    0    0  0.30352057798E+02 -0.23480891360E+02 -0.20273715842E+02  0.43400728400E+02  0.00000000000E+00 0. -1.
         11    1    3    3    0    0  0.10882263932E+01  0.31030289115E+01  0.26611036413E+00  0.32990665491E+01  0.51100000000E-03 0. -1.
        -11    1    3    3    0    0 -0.25167382698E+01  0.14049521693E+01  0.69336242185E+01  0.75088619098E+01  0.51100000000E-03 0.  1.
         12    1    3    3    0    0 -0.28923545921E+02  0.18972910280E+02  0.13073981259E+02  0.36979343141E+02  0.00000000000E+00 0. -1.
</event>
<event>
 7    1  0.4005571E-009  0.4778727E+02  0.7816164E-02  0.1312668E+00
        -11   -1    0    0    0    0  0.00000000000E+00  0.00000000000E+00  0.45593999997E+02  0.45594000000E+02  0.51100000000E-03 0.  1.
         11   -1    0    0    0    0 -0.00000000000E+00 -0.00000000000E+00 -0.45593999997E+02  0.45594000000E+02  0.51100000000E-03 0. -1.
    9900012    2    1    2    0    0 -0.74976896478E+01  0.17658122538E+02  0.38930690568E+02  0.47787270632E+02  0.19999998119E+02 0.  0.
         12    1    1    2    0    0  0.74976896478E+01 -0.17658122538E+02 -0.38930690568E+02  0.43400729368E+02  0.00000000000E+00 0. -1.
         11    1    3    3    0    0  0.52389853847E+01  0.36824961278E+01  0.77713061977E+01  0.10069803666E+02  0.51100000000E-03 0. -1.
        -11    1    3    3    0    0 -0.27406145479E+01  0.93103657694E+01  0.18756736451E+02  0.21118926143E+02  0.51100000000E-03 0.  1.
         12    1    3    3    0    0 -0.99960604846E+01  0.46652606410E+01  0.12402647918E+02  0.16598540823E+02  0.00000000000E+00 0. -1.
</event>
<event>
 7    1  0.4005571E-009  0.4778728E+02  0.7816164E-02  0.1312668E+00
        -11   -1    0    0    0    0  0.00000000000E+00  0.00000000000E+00  0.45593999997E+02  0.45594000000E+02  0.51100000000E-03 0. -1.
         11   -1    0    0    0    0 -0.00000000000E+00 -0.00000000000E+00 -0.45593999997E+02  0.45594000000E+02  0.51100000000E-03 0.  1.
    9900012    2    1    2    0    0 -0.64623074565E+01 -0.15527535176E+02 -0.40009461628E+02  0.47787276664E+02  0.20000025623E+02 0.  0.
         12    1    1    2    0    0  0.64623074565E+01  0.15527535176E+02  0.40009461628E+02  0.43400723336E+02  0.00000000000E+00 0. -1.
         11    1    3    3    0    0  0.35941758177E+01 -0.38757518565E+01 -0.11215082969E+02  0.12398291759E+02  0.51100000000E-03 0. -1.
        -11    1    3    3    0    0 -0.44562241902E+01 -0.91002730979E+01 -0.27208182991E+02  0.29033741172E+02  0.51100000000E-03 0.  1.
         12    1    3    3    0    0 -0.56002590841E+01 -0.25515102220E+01 -0.15861956673E+01  0.63552437339E+01  0.00000000000E+00 0. -1.
</event>
<event>
 7    1  0.4005571E-009  0.4778727E+02  0.7816164E-02  0.1312668E+00
        -11   -1    0    0    0    0  0.00000000000E+00  0.00000000000E+00  0.45593999997E+02  0.45594000000E+02  0.51100000000E-03 0.  1.
         11   -1    0    0    0    0 -0.00000000000E+00 -0.00000000000E+00 -0.45593999997E+02  0.45594000000E+02  0.51100000000E-03 0. -1.
    9900012    2    1    2    0    0 -0.30530114668E+02  0.24438779723E+02  0.18822368805E+02  0.47787269322E+02  0.19999992147E+02 0.  0.
         12    1    1    2    0    0  0.30530114668E+02 -0.24438779723E+02 -0.18822368805E+02  0.43400730678E+02  0.00000000000E+00 0. -1.
         11    1    3    3    0    0  0.18058058097E+01 -0.45206112707E-01  0.97705768359E+00  0.20536845408E+01  0.51100000000E-03 0. -1.
        -11    1    3    3    0    0 -0.91683038974E+01  0.14135999082E+01  0.55044339253E+01  0.10786790725E+02  0.51100000000E-03 0.  1.
        -12    1    3    3    0    0 -0.23167616580E+02  0.23070385927E+02  0.12340877196E+02  0.34946794056E+02  0.00000000000E+00 0.  1.
</event>
<event>
 7    1  0.4005571E-009  0.4778727E+02  0.7816164E-02  0.1312668E+00
        -11   -1    0    0    0    0  0.00000000000E+00  0.00000000000E+00  0.45593999997E+02  0.45594000000E+02  0.51100000000E-03 0.  1.
         11   -1    0    0    0    0 -0.00000000000E+00 -0.00000000000E+00 -0.45593999997E+02  0.45594000000E+02  0.51100000000E-03 0. -1.
    9900012    2    1    2    0    0 -0.32688322704E+02  0.12696127556E+01  0.28521657614E+02  0.47787270619E+02  0.19999998062E+02 0.  0.
         12    1    1    2    0    0  0.32688322704E+02 -0.12696127556E+01 -0.28521657614E+02  0.43400729381E+02  0.00000000000E+00 0. -1.
         11    1    3    3    0    0  0.77291942717E+00  0.15377605468E+01  0.95595698379E+00  0.19687473063E+01  0.51100000000E-03 0. -1.
        -11    1    3    3    0    0 -0.18798474599E+02  0.72146498339E+01  0.15381298504E+02  0.25338077343E+02  0.51100000000E-03 0.  1.
         12    1    3    3    0    0 -0.14662767532E+02 -0.74827976251E+01  0.12184402125E+02  0.20480445970E+02  0.00000000000E+00 0. -1.
</event>
<event>
 7    1  0.4005571E-009  0.4778728E+02  0.7816164E-02  0.1312668E+00
        -11   -1    0    0    0    0  0.00000000000E+00  0.00000000000E+00  0.45593999997E+02  0.45594000000E+02  0.51100000000E-03 0.  1.
         11   -1    0    0    0    0 -0.00000000000E+00 -0.00000000000E+00 -0.45593999997E+02  0.45594000000E+02  0.51100000000E-03 0. -1.
    9900012    2    1    2    0    0  0.42460212571E+02  0.85893553481E+01  0.26412124291E+01  0.47787277887E+02  0.20000031196E+02 0.  0.
         12    1    1    2    0    0 -0.42460212571E+02 -0.85893553481E+01 -0.26412124291E+01  0.43400722113E+02  0.00000000000E+00 0. -1.
         11    1    3    3    0    0  0.41569217875E+02  0.86433931578E+01  0.67948627676E+01  0.42998584631E+02  0.51100000000E-03 0.  1.
        -11    1    3    3    0    0  0.59091023581E-01 -0.33423664592E+00  0.16804875131E+00  0.37874335437E+00  0.51100000000E-03 0. -1.
        -12    1    3    3    0    0  0.83190367283E+00  0.28019883617E+00 -0.43216990898E+01  0.44099499012E+01  0.00000000000E+00 0.  1.
</event>
<event>
 7    1  0.4005571E-009  0.4778727E+02  0.7816164E-02  0.1312668E+00
        -11   -1    0    0    0    0  0.00000000000E+00  0.00000000000E+00  0.45593999997E+02  0.45594000000E+02  0.51100000000E-03 0. -1.
         11   -1    0    0    0    0 -0.00000000000E+00 -0.00000000000E+00 -0.45593999997E+02  0.45594000000E+02  0.51100000000E-03 0.  1.
    9900012    2    1    2    0    0 -0.60931938152E+01 -0.42955538461E+02  0.11480792889E+01  0.47787269806E+02  0.19999994353E+02 0.  0.
         12    1    1    2    0    0  0.60931938152E+01  0.42955538461E+02 -0.11480792889E+01  0.43400730194E+02  0.00000000000E+00 0. -1.
         11    1    3    3    0    0 -0.91264850631E+00 -0.20513101731E+02 -0.13582542062E+01  0.20578268262E+02  0.51100000000E-03 0. -1.
        -11    1    3    3    0    0 -0.12788383873E+01 -0.11567395503E+02 -0.57768596743E+01  0.12992773926E+02  0.51100000000E-03 0.  1.
         12    1    3    3    0    0 -0.39017069216E+01 -0.10875041227E+02  0.82831931694E+01  0.14216227618E+02  0.00000000000E+00 0. -1.
</event>
<event>
 7    1  0.4005571E-009  0.4778728E+02  0.7816164E-02  0.1312668E+00
        -11   -1    0    0    0    0  0.00000000000E+00  0.00000000000E+00  0.45593999997E+02  0.45594000000E+02  0.51100000000E-03 0.  1.
         11   -1    0    0    0    0 -0.00000000000E+00 -0.00000000000E+00 -0.45593999997E+02  0.45594000000E+02  0.51100000000E-03 0. -1.
    9900012    2    1    2    0    0  0.49163896085E+01  0.32078841895E+02  0.28816658868E+02  0.47787276360E+02  0.20000024237E+02 0.  0.
         12    1    1    2    0    0 -0.49163896085E+01 -0.32078841895E+02 -0.28816658868E+02  0.43400723640E+02  0.00000000000E+00 0. -1.
         11    1    3    3    0    0  0.10524697246E+02  0.26010515868E+02  0.23850634503E+02  0.36826199292E+02  0.51100000000E-03 0. -1.
        -11    1    3    3    0    0  0.24861884688E-02  0.24752481540E+01 -0.26618769439E+00  0.24895211898E+01  0.51100000000E-03 0.  1.
         12    1    3    3    0    0 -0.56107938262E+01  0.35930778732E+01  0.52322120591E+01  0.84715558780E+01  0.00000000000E+00 0. -1.
</event>
<event>
 7    1  0.4005571E-009  0.4778726E+02  0.7816164E-02  0.1312668E+00
        -11   -1    0    0    0    0  0.00000000000E+00  0.00000000000E+00  0.45593999997E+02  0.45594000000E+02  0.51100000000E-03 0. -1.
         11   -1    0    0    0    0 -0.00000000000E+00 -0.00000000000E+00 -0.45593999997E+02  0.45594000000E+02  0.51100000000E-03 0.  1.
    9900012    2    1    2    0    0 -0.38398094209E+02 -0.18661089200E+02  0.78085868902E+01  0.47787263621E+02  0.19999966154E+02 0.  0.
         12    1    1    2    0    0  0.38398094209E+02  0.18661089200E+02 -0.78085868902E+01  0.43400736379E+02  0.00000000000E+00 0. -1.
         11    1    3    3    0    0 -0.44568183761E+01  0.13125844784E+00 -0.78468864235E+00  0.45272723957E+01  0.51100000000E-03 0. -1.
        -11    1    3    3    0    0 -0.49942029508E+01 -0.11196580729E+02  0.55621151688E+00  0.12272524380E+02  0.51100000000E-03 0.  1.
        -12    1    3    3    0    0 -0.28947072882E+02 -0.75957669189E+01  0.80370640156E+01  0.30987466846E+02  0.00000000000E+00 0.  1.
</event>
<event>
 7    1  0.4005571E-009  0.4778729E+02  0.7816164E-02  0.1312668E+00
        -11   -1    0    0    0    0  0.00000000000E+00  0.00000000000E+00  0.45593999997E+02  0.45594000000E+02  0.51100000000E-03 0. -1.
         11   -1    0    0    0    0 -0.00000000000E+00 -0.00000000000E+00 -0.45593999997E+02  0.45594000000E+02  0.51100000000E-03 0.  1.
    9900012    2    1    2    0    0  0.25240899498E+02 -0.21046636329E+02 -0.28347098171E+02  0.47787287069E+02  0.20000073061E+02 0.  0.
         12    1    1    2    0    0 -0.25240899498E+02  0.21046636329E+02  0.28347098171E+02  0.43400712931E+02  0.00000000000E+00 0. -1.
         11    1    3    3    0    0  0.69466788224E+01 -0.83235672530E+01 -0.18649114281E+02  0.21571452946E+02  0.51100000000E-03 0. -1.
        -11    1    3    3    0    0  0.15130172102E+02 -0.10574012875E+02 -0.11743964179E+02  0.21878129513E+02  0.51100000000E-03 0.  1.
         12    1    3    3    0    0  0.31640485736E+01 -0.21490562013E+01  0.20459802891E+01  0.43377046091E+01  0.00000000000E+00 0. -1.
</event>
<event>
 7    1  0.4005571E-009  0.4778727E+02  0.7816164E-02  0.1312668E+00
        -11   -1    0    0    0    0  0.00000000000E+00  0.00000000000E+00  0.45593999997E+02  0.45594000000E+02  0.51100000000E-03 0.  1.
         11   -1    0    0    0    0 -0.00000000000E+00 -0.00000000000E+00 -0.45593999997E+02  0.45594000000E+02  0.51100000000E-03 0. -1.
    9900012    2    1    2    0    0 -0.40424453817E+02  0.99921566292E+01  0.12232882025E+02  0.47787273472E+02  0.20000011070E+02 0.  0.
         12    1    1    2    0    0  0.40424453817E+02 -0.99921566292E+01 -0.12232882025E+02  0.43400726528E+02  0.00000000000E+00 0. -1.
         11    1    3    3    0    0 -0.15165602143E+02  0.87476179785E+00 -0.13126376936E+01  0.15247416651E+02  0.51100000000E-03 0. -1.
        -11    1    3    3    0    0 -0.15067610679E+02  0.53450535629E+01  0.11112668614E+01  0.16026147493E+02  0.51100000000E-03 0.  1.
        -12    1    3    3    0    0 -0.10191240995E+02  0.37723412684E+01  0.12434252857E+02  0.16513709328E+02  0.00000000000E+00 0.  1.
</event>
<event>
 7    1  0.4005571E-009  0.4778727E+02  0.7816164E-02  0.1312668E+00
        -11   -1    0    0    0    0  0.00000000000E+00  0.00000000000E+00  0.45593999997E+02  0.45594000000E+02  0.51100000000E-03 0. -1.
         11   -1    0    0    0    0 -0.00000000000E+00 -0.00000000000E+00 -0.45593999997E+02  0.45594000000E+02  0.51100000000E-03 0.  1.
    9900012    2    1    2    0    0  0.35174316148E+02 -0.19085806628E+02  0.16796511034E+02  0.47787270582E+02  0.19999997891E+02 0.  0.
         12    1    1    2    0    0 -0.35174316148E+02  0.19085806628E+02 -0.16796511034E+02  0.43400729418E+02  0.00000000000E+00 0. -1.
         11    1    3    3    0    0  0.61343138648E+01 -0.92554808501E+01  0.64062517490E+01  0.12819274320E+02  0.51100000000E-03 0. -1.
        -11    1    3    3    0    0  0.12164442759E+02 -0.11084417200E+02  0.55380682378E+01  0.17363990681E+02  0.51100000000E-03 0.  1.
        -12    1    3    3    0    0  0.16875559523E+02  0.12540914222E+01  0.48521910472E+01  0.17604005581E+02  0.00000000000E+00 0.  1.
</event>
<event>
 7    1  0.4005571E-009  0.4778727E+02  0.7816164E-02  0.1312668E+00
        -11   -1    0    0    0    0  0.00000000000E+00  0.00000000000E+00  0.45593999997E+02  0.45594000000E+02  0.51100000000E-03 0.  1.
         11   -1    0    0    0    0 -0.00000000000E+00 -0.00000000000E+00 -0.45593999997E+02  0.45594000000E+02  0.51100000000E-03 0. -1.
    9900012    2    1    2    0    0 -0.38810296254E+02  0.16693551754E+02  0.99352554324E+01  0.47787273439E+02  0.20000010918E+02 0.  0.
         12    1    1    2    0    0  0.38810296254E+02 -0.16693551754E+02 -0.99352554324E+01  0.43400726561E+02  0.00000000000E+00 0. -1.
         11    1    3    3    0    0  0.23723860301E+00 -0.79565951709E+00  0.12765002414E+01  0.15227637208E+01  0.51100000000E-03 0. -1.
        -11    1    3    3    0    0 -0.24745033974E+00  0.87300839991E+00 -0.24551560761E+01  0.26174733917E+01  0.51100000000E-03 0.  1.
        -12    1    3    3    0    0 -0.38800084518E+02  0.16616202871E+02  0.11113911267E+02  0.43647036327E+02  0.00000000000E+00 0.  1.
</event>
<event>
 7    1  0.4005571E-009  0.4778727E+02  0.7816164E-02  0.1312668E+00
        -11   -1    0    0    0    0  0.00000000000E+00  0.00000000000E+00  0.45593999997E+02  0.45594000000E+02  0.51100000000E-03 0.  1.
         11   -1    0    0    0    0 -0.00000000000E+00 -0.00000000000E+00 -0.45593999997E+02  0.45594000000E+02  0.51100000000E-03 0. -1.
    9900012    2    1    2    0    0  0.72548127229E+01 -0.39032479694E+02  0.17534449589E+02  0.47787266122E+02  0.19999977559E+02 0.  0.
         12    1    1    2    0    0 -0.72548127229E+01  0.39032479694E+02 -0.17534449589E+02  0.43400733878E+02  0.00000000000E+00 0. -1.
         11    1    3    3    0    0  0.43999197985E+00 -0.19522412361E+00  0.33077264979E+01  0.33425679120E+01  0.51100000000E-03 0. -1.
        -11    1    3    3    0    0  0.58227555866E+01 -0.24899094544E+02  0.16291324105E+02  0.30319575081E+02  0.51100000000E-03 0.  1.
        -12    1    3    3    0    0  0.99206515641E+00 -0.13938161026E+02 -0.20646010138E+01  0.14125123129E+02  0.00000000000E+00 0.  1.
</event>
<event>
 7    1  0.4005571E-009  0.4778728E+02  0.7816164E-02  0.1312668E+00
        -11   -1    0    0    0    0  0.00000000000E+00  0.00000000000E+00  0.45593999997E+02  0.45594000000E+02  0.51100000000E-03 0.  1.
         11   -1    0    0    0    0 -0.00000000000E+00 -0.00000000000E+00 -0.45593999997E+02  0.45594000000E+02  0.51100000000E-03 0. -1.
    9900012    2    1    2    0    0 -0.33484668492E+02  0.20477925851E+02  0.18521727639E+02  0.47787275744E+02  0.20000021428E+02 0.  0.
         12    1    1    2    0    0  0.33484668492E+02 -0.20477925851E+02 -0.18521727639E+02  0.43400724256E+02  0.00000000000E+00 0. -1.
         11    1    3    3    0    0 -0.19861828849E+02  0.10840289982E+02  0.76707835354E+01  0.23892363894E+02  0.51100000000E-03 0. -1.
        -11    1    3    3    0    0 -0.11209523031E+02  0.12344225780E+02  0.11439555971E+02  0.20221195755E+02  0.51100000000E-03 0.  1.
         12    1    3    3    0    0 -0.24133166125E+01 -0.27065899112E+01 -0.58861186713E+00  0.36737160955E+01  0.00000000000E+00 0. -1.
</event>
<event>
 7    1  0.4005571E-009  0.4778727E+02  0.7816164E-02  0.1312668E+00
        -11   -1    0    0    0    0  0.00000000000E+00  0.00000000000E+00  0.45593999997E+02  0.45594000000E+02  0.51100000000E-03 0. -1.
         11   -1    0    0    0    0 -0.00000000000E+00 -0.00000000000E+00 -0.45593999997E+02  0.45594000000E+02  0.51100000000E-03 0.  1.
    9900012    2    1    2    0    0 -0.13224380486E+02  0.33016973508E+02 -0.24872043930E+02  0.47787270189E+02  0.19999996100E+02 0.  0.
         12    1    1    2    0    0  0.13224380486E+02 -0.33016973508E+02  0.24872043930E+02  0.43400729811E+02  0.00000000000E+00 0. -1.
         11    1    3    3    0    0 -0.16678960015E+01  0.72180837577E+01 -0.86068829915E+01  0.11356101677E+02  0.51100000000E-03 0.  1.
        -11    1    3    3    0    0 -0.37680599727E+00  0.17301763732E+02 -0.39437677874E+01  0.17749544096E+02  0.51100000000E-03 0. -1.
         12    1    3    3    0    0 -0.11179678487E+02  0.84971260186E+01 -0.12321393151E+02  0.18681624416E+02  0.00000000000E+00 0. -1.
</event>
<event>
 7    1  0.4005571E-009  0.4778726E+02  0.7816164E-02  0.1312668E+00
        -11   -1    0    0    0    0  0.00000000000E+00  0.00000000000E+00  0.45593999997E+02  0.45594000000E+02  0.51100000000E-03 0. -1.
         11   -1    0    0    0    0 -0.00000000000E+00 -0.00000000000E+00 -0.45593999997E+02  0.45594000000E+02  0.51100000000E-03 0.  1.
    9900012    2    1    2    0    0  0.42647475225E+01  0.30227176426E+02 -0.30850508974E+02  0.47787260719E+02  0.19999952924E+02 0.  0.
         12    1    1    2    0    0 -0.42647475225E+01 -0.30227176426E+02  0.30850508974E+02  0.43400739281E+02  0.00000000000E+00 0. -1.
         11    1    3    3    0    0 -0.31036497896E+01  0.58628142508E+01 -0.76085968546E+01  0.10094353833E+02  0.51100000000E-03 0. -1.
        -11    1    3    3    0    0  0.42938276449E-01  0.16543427514E+02 -0.21019637344E+02  0.26749055907E+02  0.51100000000E-03 0.  1.
         12    1    3    3    0    0  0.73254590357E+01  0.78209346618E+01 -0.22222747754E+01  0.10943850979E+02  0.00000000000E+00 0. -1.
</event>
<event>
 7    1  0.4005571E-009  0.4778727E+02  0.7816164E-02  0.1312668E+00
        -11   -1    0    0    0    0  0.00000000000E+00  0.00000000000E+00  0.45593999997E+02  0.45594000000E+02  0.51100000000E-03 0.  1.
         11   -1    0    0    0    0 -0.00000000000E+00 -0.00000000000E+00 -0.45593999997E+02  0.45594000000E+02  0.51100000000E-03 0. -1.
    9900012    2    1    2    0    0 -0.12045133982E+02 -0.29190662989E+02  0.29773197636E+02  0.47787270100E+02  0.19999995693E+02 0.  0.
         12    1    1    2    0    0  0.12045133982E+02  0.29190662989E+02 -0.29773197636E+02  0.43400729900E+02  0.00000000000E+00 0. -1.
         11    1    3    3    0    0  0.25412406885E+00  0.13326225993E+00  0.22438497299E+01  0.22621228401E+01  0.51100000000E-03 0. -1.
        -11    1    3    3    0    0 -0.33819838875E+01 -0.72634589999E+00  0.10526905470E+02  0.11080664800E+02  0.51100000000E-03 0.  1.
         12    1    3    3    0    0 -0.89172741632E+01 -0.28597579349E+02  0.17002442437E+02  0.34444482460E+02  0.00000000000E+00 0. -1.
</event>
<event>
 7    1  0.4005571E-009  0.4778727E+02  0.7816164E-02  0.1312668E+00
        -11   -1    0    0    0    0  0.00000000000E+00  0.00000000000E+00  0.45593999997E+02  0.45594000000E+02  0.51100000000E-03 0.  1.
         11   -1    0    0    0    0 -0.00000000000E+00 -0.00000000000E+00 -0.45593999997E+02  0.45594000000E+02  0.51100000000E-03 0. -1.
    9900012    2    1    2    0    0 -0.28117790172E+02 -0.21372056648E+02  0.25223960920E+02  0.47787272656E+02  0.20000007347E+02 0.  0.
         12    1    1    2    0    0  0.28117790172E+02  0.21372056648E+02 -0.25223960920E+02  0.43400727344E+02  0.00000000000E+00 0. -1.
         11    1    3    3    0    0 -0.20195510903E+02 -0.24316937620E+02  0.19128773349E+02  0.36947017281E+02  0.51100000000E-03 0. -1.
        -11    1    3    3    0    0 -0.22836047071E+01  0.27478130039E+00  0.29003629433E+00  0.23182917276E+01  0.51100000000E-03 0.  1.
         12    1    3    3    0    0 -0.56386745616E+01  0.26700996713E+01  0.58051512760E+01  0.85219636472E+01  0.00000000000E+00 0. -1.
</event>
<event>
 7    1  0.4005571E-009  0.4778731E+02  0.7816164E-02  0.1312668E+00
        -11   -1    0    0    0    0  0.00000000000E+00  0.00000000000E+00  0.45593999997E+02  0.45594000000E+02  0.51100000000E-03 0. -1.
         11   -1    0    0    0    0 -0.00000000000E+00 -0.00000000000E+00 -0.45593999997E+02  0.45594000000E+02  0.51100000000E-03 0.  1.
    9900012    2    1    2    0    0 -0.55277324335E+01  0.42880268571E+02  0.37876804253E+01  0.47787311277E+02  0.20000183436E+02 0.  0.
         12    1    1    2    0    0  0.55277324335E+01 -0.42880268571E+02 -0.37876804253E+01  0.43400688723E+02  0.00000000000E+00 0. -1.
         11    1    3    3    0    0 -0.52602714205E+00  0.25566839428E+00  0.46121613647E+01  0.46490970733E+01  0.51100000000E-03 0. -1.
        -11    1    3    3    0    0  0.32245477826E+00  0.54784646641E+01  0.95442537108E+00  0.55703213740E+01  0.51100000000E-03 0.  1.
        -12    1    3    3    0    0 -0.53241600697E+01  0.37146135513E+02 -0.17789063105E+01  0.37567892830E+02  0.00000000000E+00 0.  1.
</event>
<event>
 7    1  0.4005571E-009  0.4778727E+02  0.7816164E-02  0.1312668E+00
        -11   -1    0    0    0    0  0.00000000000E+00  0.00000000000E+00  0.45593999997E+02  0.45594000000E+02  0.51100000000E-03 0.  1.
         11   -1    0    0    0    0 -0.00000000000E+00 -0.00000000000E+00 -0.45593999997E+02  0.45594000000E+02  0.51100000000E-03 0. -1.
    9900012    2    1    2    0    0  0.37272636470E+02  0.21305968993E+02 -0.63583985432E+01  0.47787274474E+02  0.20000015637E+02 0.  0.
         12    1    1    2    0    0 -0.37272636470E+02 -0.21305968993E+02  0.63583985432E+01  0.43400725526E+02  0.00000000000E+00 0. -1.
         11    1    3    3    0    0  0.15080287505E+02  0.42369713523E+01 -0.19583525082E+01  0.15786137662E+02  0.51100000000E-03 0. -1.
        -11    1    3    3    0    0  0.97066318901E+01  0.44623381235E+01  0.51404597707E+01  0.11855610111E+02  0.51100000000E-03 0.  1.
         12    1    3    3    0    0  0.12485717075E+02  0.12606659517E+02 -0.95405058057E+01  0.20145526702E+02  0.00000000000E+00 0. -1.
</event>
<event>
 7    1  0.4005571E-009  0.4778727E+02  0.7816164E-02  0.1312668E+00
        -11   -1    0    0    0    0  0.00000000000E+00  0.00000000000E+00  0.45593999997E+02  0.45594000000E+02  0.51100000000E-03 0. -1.
         11   -1    0    0    0    0 -0.00000000000E+00 -0.00000000000E+00 -0.45593999997E+02  0.45594000000E+02  0.51100000000E-03 0.  1.
    9900012    2    1    2    0    0 -0.25536936829E+02  0.24548062567E+02 -0.25077494727E+02  0.47787271203E+02  0.20000000722E+02 0.  0.
         12    1    1    2    0    0  0.25536936829E+02 -0.24548062567E+02  0.25077494727E+02  0.43400728797E+02  0.00000000000E+00 0. -1.
         11    1    3    3    0    0 -0.36768631630E+01  0.54883577622E+01  0.20609309155E+01  0.69201755863E+01  0.51100000000E-03 0. -1.
        -11    1    3    3    0    0 -0.34217181679E+01  0.93554996983E+00 -0.23635427958E+00  0.35551754631E+01  0.51100000000E-03 0.  1.
        -12    1    3    3    0    0 -0.18438355498E+02  0.18124154835E+02 -0.26902071363E+02  0.37311920153E+02  0.00000000000E+00 0.  1.
</event>
<event>
 7    1  0.4005571E-009  0.4778728E+02  0.7816164E-02  0.1312668E+00
        -11   -1    0    0    0    0  0.00000000000E+00  0.00000000000E+00  0.45593999997E+02  0.45594000000E+02  0.51100000000E-03 0.  1.
         11   -1    0    0    0    0 -0.00000000000E+00 -0.00000000000E+00 -0.45593999997E+02  0.45594000000E+02  0.51100000000E-03 0. -1.
    9900012    2    1    2    0    0  0.10557886616E+02  0.31865685526E+02  0.27508760787E+02  0.47787276459E+02  0.20000024688E+02 0.  0.
         12    1    1    2    0    0 -0.10557886616E+02 -0.31865685526E+02 -0.27508760787E+02  0.43400723541E+02  0.00000000000E+00 0. -1.
         11    1    3    3    0    0 -0.13797518068E+01  0.11079263951E+02  0.10579994566E+01  0.11214863702E+02  0.51100000000E-03 0. -1.
        -11    1    3    3    0    0  0.52155907002E+01  0.13719244529E+02  0.11170107142E+02  0.18444276907E+02  0.51100000000E-03 0.  1.
         12    1    3    3    0    0  0.67220477227E+01  0.70671770461E+01  0.15280654188E+02  0.18128135850E+02  0.00000000000E+00 0. -1.
</event>
<event>
 7    1  0.4005571E-009  0.4778726E+02  0.7816164E-02  0.1312668E+00
        -11   -1    0    0    0    0  0.00000000000E+00  0.00000000000E+00  0.45593999997E+02  0.45594000000E+02  0.51100000000E-03 0.  1.
         11   -1    0    0    0    0 -0.00000000000E+00 -0.00000000000E+00 -0.45593999997E+02  0.45594000000E+02  0.51100000000E-03 0. -1.
    9900012    2    1    2    0    0 -0.22206381703E+01 -0.34317201572E+02  0.26476832946E+02  0.47787259909E+02  0.19999949228E+02 0.  0.
         12    1    1    2    0    0  0.22206381703E+01  0.34317201572E+02 -0.26476832946E+02  0.43400740091E+02  0.00000000000E+00 0. -1.
         11    1    3    3    0    0 -0.36597372786E+01 -0.10546439875E+02  0.22581016832E+01  0.11389472966E+02  0.51100000000E-03 0. -1.
        -11    1    3    3    0    0 -0.16251993481E+01 -0.18688037276E+02  0.10610137839E+02  0.21551311686E+02  0.51100000000E-03 0.  1.
         12    1    3    3    0    0  0.30642984564E+01 -0.50827244209E+01  0.13608593423E+02  0.14846475256E+02  0.00000000000E+00 0. -1.
</event>
<event>
 7    1  0.4005571E-009  0.4778727E+02  0.7816164E-02  0.1312668E+00
        -11   -1    0    0    0    0  0.00000000000E+00  0.00000000000E+00  0.45593999997E+02  0.45594000000E+02  0.51100000000E-03 0.  1.
         11   -1    0    0    0    0 -0.00000000000E+00 -0.00000000000E+00 -0.45593999997E+02  0.45594000000E+02  0.51100000000E-03 0. -1.
    9900012    2    1    2    0    0  0.69663174487E+01  0.31277035599E+02  0.29271841395E+02  0.47787271511E+02  0.20000002129E+02 0.  0.
         12    1    1    2    0    0 -0.69663174487E+01 -0.31277035599E+02 -0.29271841395E+02  0.43400728489E+02  0.00000000000E+00 0. -1.
         11    1    3    3    0    0 -0.36739634237E+01  0.72010899909E+00  0.65037682690E+01  0.75043698048E+01  0.51100000000E-03 0. -1.
        -11    1    3    3    0    0  0.52348944211E+01  0.80044032681E+01  0.98805518397E+01  0.13751359794E+02  0.51100000000E-03 0.  1.
        -12    1    3    3    0    0  0.54053864513E+01  0.22552523332E+02  0.12887521287E+02  0.26531541912E+02  0.00000000000E+00 0.  1.
</event>
<event>
 7    1  0.4005571E-009  0.4778727E+02  0.7816164E-02  0.1312668E+00
        -11   -1    0    0    0    0  0.00000000000E+00  0.00000000000E+00  0.45593999997E+02  0.45594000000E+02  0.51100000000E-03 0.  1.
         11   -1    0    0    0    0 -0.00000000000E+00 -0.00000000000E+00 -0.45593999997E+02  0.45594000000E+02  0.51100000000E-03 0. -1.
    9900012    2    1    2    0    0 -0.14842870940E+02 -0.12680377144E+02  0.38762364570E+02  0.47787266259E+02  0.19999978181E+02 0.  0.
         12    1    1    2    0    0  0.14842870940E+02  0.12680377144E+02 -0.38762364570E+02  0.43400733741E+02  0.00000000000E+00 0. -1.
         11    1    3    3    0    0 -0.95973283337E+00  0.35611059289E+01  0.75683024367E+01  0.84191308686E+01  0.51100000000E-03 0. -1.
        -11    1    3    3    0    0  0.75687535658E+00 -0.12807273445E+01  0.79504469899E+01  0.80884318898E+01  0.51100000000E-03 0.  1.
         12    1    3    3    0    0 -0.14640013463E+02 -0.14960755728E+02  0.23243615143E+02  0.31279703500E+02  0.00000000000E+00 0. -1.
</event>
<event>
 7    1  0.4005571E-009  0.4778727E+02  0.7816164E-02  0.1312668E+00
        -11   -1    0    0    0    0  0.00000000000E+00  0.00000000000E+00  0.45593999997E+02  0.45594000000E+02  0.51100000000E-03 0.  1.
         11   -1    0    0    0    0 -0.00000000000E+00 -0.00000000000E+00 -0.45593999997E+02  0.45594000000E+02  0.51100000000E-03 0. -1.
    9900012    2    1    2    0    0 -0.38260446754E+02 -0.20412663513E+02 -0.17563827320E+01  0.47787268464E+02  0.19999988236E+02 0.  0.
         12    1    1    2    0    0  0.38260446754E+02  0.20412663513E+02  0.17563827320E+01  0.43400731536E+02  0.00000000000E+00 0. -1.
         11    1    3    3    0    0 -0.11530956539E+02 -0.11843166783E+02 -0.81433451267E+01  0.18426546835E+02  0.51100000000E-03 0. -1.
        -11    1    3    3    0    0 -0.50747562899E+01 -0.25495866796E+01 -0.86305222397E+00  0.57444236475E+01  0.51100000000E-03 0.  1.
         12    1    3    3    0    0 -0.21654733925E+02 -0.60199100513E+01  0.72500146187E+01  0.23616297982E+02  0.00000000000E+00 0. -1.
</event>
<event>
 7    1  0.4005571E-009  0.4778727E+02  0.7816164E-02  0.1312668E+00
        -11   -1    0    0    0    0  0.00000000000E+00  0.00000000000E+00  0.45593999997E+02  0.45594000000E+02  0.51100000000E-03 0.  1.
         11   -1    0    0    0    0 -0.00000000000E+00 -0.00000000000E+00 -0.45593999997E+02  0.45594000000E+02  0.51100000000E-03 0. -1.
    9900012    2    1    2    0    0 -0.31846705672E+02  0.35529302071E+01  0.29270929307E+02  0.47787271001E+02  0.19999999800E+02 0.  0.
         12    1    1    2    0    0  0.31846705672E+02 -0.35529302071E+01 -0.29270929307E+02  0.43400728999E+02  0.00000000000E+00 0. -1.
         11    1    3    3    0    0 -0.33415696619E+01 -0.43048893320E+01  0.10318897742E+02  0.11669524876E+02  0.51100000000E-03 0. -1.
        -11    1    3    3    0    0 -0.10495338921E+02  0.37326652498E+01  0.12009486867E+02  0.16380253478E+02  0.51100000000E-03 0.  1.
         12    1    3    3    0    0 -0.18009797088E+02  0.41251542894E+01  0.69425446982E+01  0.19737492646E+02  0.00000000000E+00 0. -1.
</event>
<event>
 7    1  0.4005571E-009  0.4778727E+02  0.7816164E-02  0.1312668E+00
        -11   -1    0    0    0    0  0.00000000000E+00  0.00000000000E+00  0.45593999997E+02  0.45594000000E+02  0.51100000000E-03 0. -1.
         11   -1    0    0    0    0 -0.00000000000E+00 -0.00000000000E+00 -0.45593999997E+02  0.45594000000E+02  0.51100000000E-03 0.  1.
    9900012    2    1    2    0    0  0.15000320980E+02  0.40390376625E+02 -0.52183327051E+01  0.47787272476E+02  0.20000006526E+02 0.  0.
         12    1    1    2    0    0 -0.15000320980E+02 -0.40390376625E+02  0.52183327051E+01  0.43400727524E+02  0.00000000000E+00 0. -1.
         11    1    3    3    0    0  0.43690158081E+01 -0.65944103557E+00  0.98327981337E+00  0.45265882366E+01  0.51100000000E-03 0. -1.
        -11    1    3    3    0    0  0.18360753059E+01  0.97885585519E+01 -0.39291607009E+01  0.10706323138E+02  0.51100000000E-03 0.  1.
        -12    1    3    3    0    0  0.87952298657E+01  0.31261259109E+02 -0.22724518175E+01  0.32554361101E+02  0.00000000000E+00 0.  1.
</event>
<event>
 7    1  0.4005571E-009  0.4778727E+02  0.7816164E-02  0.1312668E+00
        -11   -1    0    0    0    0  0.00000000000E+00  0.00000000000E+00  0.45593999997E+02  0.45594000000E+02  0.51100000000E-03 0.  1.
         11   -1    0    0    0    0 -0.00000000000E+00 -0.00000000000E+00 -0.45593999997E+02  0.45594000000E+02  0.51100000000E-03 0. -1.
    9900012    2    1    2    0    0 -0.78139487726E+01  0.23581256576E+02  0.35587778192E+02  0.47787269432E+02  0.19999992650E+02 0.  0.
         12    1    1    2    0    0  0.78139487726E+01 -0.23581256576E+02 -0.35587778192E+02  0.43400730568E+02  0.00000000000E+00 0. -1.
         11    1    3    3    0    0 -0.74450374675E+01  0.63080791846E+01  0.29405750801E+01  0.10191537075E+02  0.51100000000E-03 0. -1.
        -11    1    3    3    0    0  0.14835278582E+01  0.26820858579E+01  0.21711949869E+01  0.37561319715E+01  0.51100000000E-03 0.  1.
         12    1    3    3    0    0 -0.18524391633E+01  0.14591091534E+02  0.30476008125E+02  0.33839600386E+02  0.00000000000E+00 0. -1.
</event>
<event>
 7    1  0.4005571E-009  0.4778727E+02  0.7816164E-02  0.1312668E+00
        -11   -1    0    0    0    0  0.00000000000E+00  0.00000000000E+00  0.45593999997E+02  0.45594000000E+02  0.51100000000E-03 0.  1.
         11   -1    0    0    0    0 -0.00000000000E+00 -0.00000000000E+00 -0.45593999997E+02  0.45594000000E+02  0.51100000000E-03 0. -1.
    9900012    2    1    2    0    0 -0.95282074364E+01  0.42323934780E+02  0.12333632709E+01  0.47787269854E+02  0.19999994575E+02 0.  0.
         12    1    1    2    0    0  0.95282074364E+01 -0.42323934780E+02 -0.12333632709E+01  0.43400730146E+02  0.00000000000E+00 0. -1.
         11    1    3    3    0    0 -0.38357500759E+01  0.14626020803E+01 -0.35536247973E+01  0.54295886540E+01  0.51100000000E-03 0. -1.
        -11    1    3    3    0    0  0.79231713042E-02  0.12609334845E+02 -0.19505207130E+01  0.12759307165E+02  0.51100000000E-03 0.  1.
         12    1    3    3    0    0 -0.57003805318E+01  0.28251997854E+02  0.67375087813E+01  0.29598374035E+02  0.00000000000E+00 0. -1.
</event>
<event>
 7    1  0.4005571E-009  0.4778727E+02  0.7816164E-02  0.1312668E+00
        -11   -1    0    0    0    0  0.00000000000E+00  0.00000000000E+00  0.45593999997E+02  0.45594000000E+02  0.51100000000E-03 0.  1.
         11   -1    0    0    0    0 -0.00000000000E+00 -0.00000000000E+00 -0.45593999997E+02  0.45594000000E+02  0.51100000000E-03 0. -1.
    9900012    2    1    2    0    0 -0.32390599346E+02 -0.14204786043E+02  0.25153458284E+02  0.47787270327E+02  0.19999996727E+02 0.  0.
         12    1    1    2    0    0  0.32390599346E+02  0.14204786043E+02 -0.25153458284E+02  0.43400729673E+02  0.00000000000E+00 0. -1.
         11    1    3    3    0    0 -0.42226913411E+01 -0.17435490169E+01  0.53512295348E+01  0.70361028369E+01  0.51100000000E-03 0.  1.
        -11    1    3    3    0    0 -0.85983078066E+01  0.40754201806E+01  0.25098174244E+01  0.98406875040E+01  0.51100000000E-03 0. -1.
         12    1    3    3    0    0 -0.19569600198E+02 -0.16536657207E+02  0.17292411325E+02  0.30910479986E+02  0.00000000000E+00 0. -1.
</event>
<event>
 7    1  0.4005571E-009  0.4778727E+02  0.7816164E-02  0.1312668E+00
        -11   -1    0    0    0    0  0.00000000000E+00  0.00000000000E+00  0.45593999997E+02  0.45594000000E+02  0.51100000000E-03 0.  1.
         11   -1    0    0    0    0 -0.00000000000E+00 -0.00000000000E+00 -0.45593999997E+02  0.45594000000E+02  0.51100000000E-03 0. -1.
    9900012    2    1    2    0    0  0.32482963599E+02  0.84690718486E+01  0.27509180095E+02  0.47787273144E+02  0.20000009572E+02 0.  0.
         12    1    1    2    0    0 -0.32482963599E+02 -0.84690718486E+01 -0.27509180095E+02  0.43400726856E+02  0.00000000000E+00 0. -1.
         11    1    3    3    0    0  0.80125256986E+01  0.39485583200E+01  0.26820436601E+01  0.93265770427E+01  0.51100000000E-03 0. -1.
        -11    1    3    3    0    0  0.65328930068E+01  0.55888297270E+01  0.10559166179E+01  0.86619090806E+01  0.51100000000E-03 0.  1.
        -12    1    3    3    0    0  0.17937544894E+02 -0.10683161984E+01  0.23771219817E+02  0.29798787020E+02  0.00000000000E+00 0.  1.
</event>
<event>
 7    1  0.4005571E-009  0.4778727E+02  0.7816164E-02  0.1312668E+00
        -11   -1    0    0    0    0  0.00000000000E+00  0.00000000000E+00  0.45593999997E+02  0.45594000000E+02  0.51100000000E-03 0.  1.
         11   -1    0    0    0    0 -0.00000000000E+00 -0.00000000000E+00 -0.45593999997E+02  0.45594000000E+02  0.51100000000E-03 0. -1.
    9900012    2    1    2    0    0  0.25860336167E+02  0.30376887047E+02  0.17091255348E+02  0.47787271173E+02  0.20000000587E+02 0.  0.
         12    1    1    2    0    0 -0.25860336167E+02 -0.30376887047E+02 -0.17091255348E+02  0.43400728827E+02  0.00000000000E+00 0. -1.
         11    1    3    3    0    0  0.27389197296E+02  0.30329527027E+02  0.14214024554E+02  0.43267618752E+02  0.51100000000E-03 0. -1.
        -11    1    3    3    0    0 -0.32632450409E+00  0.13512496112E+01  0.22373048882E+01  0.26339887277E+01  0.51100000000E-03 0.  1.
         12    1    3    3    0    0 -0.12025366248E+01 -0.13038895911E+01  0.63992590570E+00  0.18856636934E+01  0.00000000000E+00 0. -1.
</event>
<event>
 7    1  0.4005571E-009  0.4778727E+02  0.7816164E-02  0.1312668E+00
        -11   -1    0    0    0    0  0.00000000000E+00  0.00000000000E+00  0.45593999997E+02  0.45594000000E+02  0.51100000000E-03 0.  1.
         11   -1    0    0    0    0 -0.00000000000E+00 -0.00000000000E+00 -0.45593999997E+02  0.45594000000E+02  0.51100000000E-03 0. -1.
    9900012    2    1    2    0    0 -0.13120949409E+02 -0.41244294422E+02  0.32206175742E+01  0.47787268286E+02  0.19999987421E+02 0.  0.
         12    1    1    2    0    0  0.13120949409E+02  0.41244294422E+02 -0.32206175742E+01  0.43400731714E+02  0.00000000000E+00 0. -1.
         11    1    3    3    0    0  0.14660399134E+00  0.20416240735E+01  0.32828813451E+00  0.20730400257E+01  0.51100000000E-03 0. -1.
        -11    1    3    3    0    0 -0.70683114232E+00 -0.10155717539E+02  0.10636281503E+01  0.10235698026E+02  0.51100000000E-03 0.  1.
        -12    1    3    3    0    0 -0.12560722258E+02 -0.33130200957E+02  0.18287012894E+01  0.35478530233E+02  0.00000000000E+00 0.  1.
</event>
<event>
 7    1  0.4005571E-009  0.4778729E+02  0.7816164E-02  0.1312668E+00
        -11   -1    0    0    0    0  0.00000000000E+00  0.00000000000E+00  0.45593999997E+02  0.45594000000E+02  0.51100000000E-03 0.  1.
         11   -1    0    0    0    0 -0.00000000000E+00 -0.00000000000E+00 -0.45593999997E+02  0.45594000000E+02  0.51100000000E-03 0. -1.
    9900012    2    1    2    0    0 -0.58456153150E+01 -0.97196914070E+01  0.41892457469E+02  0.47787290187E+02  0.20000087278E+02 0.  0.
         12    1    1    2    0    0  0.58456153150E+01  0.97196914070E+01 -0.41892457469E+02  0.43400709813E+02  0.00000000000E+00 0. -1.
         11    1    3    3    0    0  0.34179854502E+01 -0.36858250253E+01  0.15636230667E+02  0.16424361186E+02  0.51100000000E-03 0. -1.
        -11    1    3    3    0    0 -0.21182918275E+01 -0.91197918564E+01  0.14805763256E+02  0.17517659365E+02  0.51100000000E-03 0.  1.
         12    1    3    3    0    0 -0.71453089376E+01  0.30859254747E+01  0.11450463547E+02  0.13845269636E+02  0.00000000000E+00 0. -1.
</event>
<event>
 7    1  0.4005571E-009  0.4778726E+02  0.7816164E-02  0.1312668E+00
        -11   -1    0    0    0    0  0.00000000000E+00  0.00000000000E+00  0.45593999997E+02  0.45594000000E+02  0.51100000000E-03 0.  1.
         11   -1    0    0    0    0 -0.00000000000E+00 -0.00000000000E+00 -0.45593999997E+02  0.45594000000E+02  0.51100000000E-03 0. -1.
    9900012    2    1    2    0    0 -0.40440842945E+02 -0.15749988059E+02 -0.31713261260E+00  0.47787257206E+02  0.19999936904E+02 0.  0.
         12    1    1    2    0    0  0.40440842945E+02  0.15749988059E+02  0.31713261260E+00  0.43400742794E+02  0.00000000000E+00 0. -1.
         11    1    3    3    0    0 -0.50605623396E+01 -0.12940902345E+01  0.78297366593E+00  0.52817618983E+01  0.51100000000E-03 0.  1.
        -11    1    3    3    0    0 -0.29602924323E+02 -0.48290248478E+01  0.38405606574E+01  0.30239089204E+02  0.51100000000E-03 0. -1.
         12    1    3    3    0    0 -0.57773562824E+01 -0.96268729766E+01 -0.49406669359E+01  0.12266406103E+02  0.00000000000E+00 0. -1.
</event>
<event>
 7    1  0.4005571E-009  0.4778727E+02  0.7816164E-02  0.1312668E+00
        -11   -1    0    0    0    0  0.00000000000E+00  0.00000000000E+00  0.45593999997E+02  0.45594000000E+02  0.51100000000E-03 0. -1.
         11   -1    0    0    0    0 -0.00000000000E+00 -0.00000000000E+00 -0.45593999997E+02  0.45594000000E+02  0.51100000000E-03 0.  1.
    9900012    2    1    2    0    0  0.78767217608E+01  0.30127883755E+02 -0.30230630625E+02  0.47787272434E+02  0.20000006335E+02 0.  0.
         12    1    1    2    0    0 -0.78767217608E+01 -0.30127883755E+02  0.30230630625E+02  0.43400727566E+02  0.00000000000E+00 0. -1.
         11    1    3    3    0    0 -0.34373835314E+01  0.11654437158E+01 -0.16940142622E+01  0.40054399481E+01  0.51100000000E-03 0. -1.
        -11    1    3    3    0    0 -0.81554963939E+00 -0.12027470027E+00 -0.33272011886E+01  0.34278061831E+01  0.51100000000E-03 0.  1.
        -12    1    3    3    0    0  0.12129654932E+02  0.29082714740E+02 -0.25209415174E+02  0.40354026303E+02  0.00000000000E+00 0.  1.
</event>
<event>
 7    1  0.4005571E-009  0.4778727E+02  0.7816164E-02  0.1312668E+00
        -11   -1    0    0    0    0  0.00000000000E+00  0.00000000000E+00  0.45593999997E+02  0.45594000000E+02  0.51100000000E-03 0.  1.
         11   -1    0    0    0    0 -0.00000000000E+00 -0.00000000000E+00 -0.45593999997E+02  0.45594000000E+02  0.51100000000E-03 0. -1.
    9900012    2    1    2    0    0  0.20959972938E+02  0.34356816411E+02  0.16245379997E+02  0.47787266473E+02  0.19999979157E+02 0.  0.
         12    1    1    2    0    0 -0.20959972938E+02 -0.34356816411E+02 -0.16245379997E+02  0.43400733527E+02  0.00000000000E+00 0. -1.
         11    1    3    3    0    0  0.93635146803E+01  0.58989103543E+01  0.11243264909E+02  0.15776043756E+02  0.51100000000E-03 0. -1.
        -11    1    3    3    0    0 -0.11728726009E+00  0.14517160732E+01  0.19246926186E+01  0.24136440906E+01  0.51100000000E-03 0.  1.
        -12    1    3    3    0    0  0.11713745517E+02  0.27006189984E+02  0.30774224694E+01  0.29597578626E+02  0.00000000000E+00 0.  1.
</event>
<event>
 7    1  0.4005571E-009  0.4778727E+02  0.7816164E-02  0.1312668E+00
        -11   -1    0    0    0    0  0.00000000000E+00  0.00000000000E+00  0.45593999997E+02  0.45594000000E+02  0.51100000000E-03 0. -1.
         11   -1    0    0    0    0 -0.00000000000E+00 -0.00000000000E+00 -0.45593999997E+02  0.45594000000E+02  0.51100000000E-03 0.  1.
    9900012    2    1    2    0    0  0.13193631577E+02 -0.57022806341E+01 -0.40951622633E+02  0.47787270572E+02  0.19999997846E+02 0.  0.
         12    1    1    2    0    0 -0.13193631577E+02  0.57022806341E+01  0.40951622633E+02  0.43400729428E+02  0.00000000000E+00 0. -1.
         11    1    3    3    0    0  0.18428688838E+01 -0.57748479683E+01 -0.88101796076E+01  0.10694124544E+02  0.51100000000E-03 0. -1.
        -11    1    3    3    0    0  0.23405471171E+01 -0.35526136515E+01 -0.24132693942E+02  0.24504818745E+02  0.51100000000E-03 0.  1.
        -12    1    3    3    0    0  0.90102155763E+01  0.36251809857E+01 -0.80087490836E+01  0.12588327283E+02  0.00000000000E+00 0.  1.
</event>
<event>
 7    1  0.4005571E-009  0.4778727E+02  0.7816164E-02  0.1312668E+00
        -11   -1    0    0    0    0  0.00000000000E+00  0.00000000000E+00  0.45593999997E+02  0.45594000000E+02  0.51100000000E-03 0.  1.
         11   -1    0    0    0    0 -0.00000000000E+00 -0.00000000000E+00 -0.45593999997E+02  0.45594000000E+02  0.51100000000E-03 0. -1.
    9900012    2    1    2    0    0  0.41464673073E+02 -0.10168553703E+02 -0.78041371540E+01  0.47787272424E+02  0.20000006289E+02 0.  0.
         12    1    1    2    0    0 -0.41464673073E+02  0.10168553703E+02  0.78041371540E+01  0.43400727576E+02  0.00000000000E+00 0. -1.
         11    1    3    3    0    0  0.14743297658E+01  0.14629227463E+01  0.29299018419E+00  0.20975306265E+01  0.51100000000E-03 0. -1.
        -11    1    3    3    0    0  0.22883998138E+02  0.11072270631E+01 -0.98986244427E-01  0.22910982543E+02  0.51100000000E-03 0.  1.
         12    1    3    3    0    0  0.17106345169E+02 -0.12738703512E+02 -0.79981410938E+01  0.22778759255E+02  0.00000000000E+00 0. -1.
</event>
<event>
 7    1  0.4005571E-009  0.4778727E+02  0.7816164E-02  0.1312668E+00
        -11   -1    0    0    0    0  0.00000000000E+00  0.00000000000E+00  0.45593999997E+02  0.45594000000E+02  0.51100000000E-03 0.  1.
         11   -1    0    0    0    0 -0.00000000000E+00 -0.00000000000E+00 -0.45593999997E+02  0.45594000000E+02  0.51100000000E-03 0. -1.
    9900012    2    1    2    0    0 -0.40450719795E+02  0.12958309224E+02  0.89131729066E+01  0.47787272343E+02  0.20000005921E+02 0.  0.
         12    1    1    2    0    0  0.40450719795E+02 -0.12958309224E+02 -0.89131729066E+01  0.43400727657E+02  0.00000000000E+00 0. -1.
         11    1    3    3    0    0 -0.22549716121E+01  0.28424512412E+01 -0.23409551564E+00  0.36358254911E+01  0.51100000000E-03 0. -1.
        -11    1    3    3    0    0 -0.73064534011E+01 -0.43303145591E+01 -0.10524985423E+01  0.85582497583E+01  0.51100000000E-03 0.  1.
        -12    1    3    3    0    0 -0.30889294782E+02  0.14446172542E+02  0.10199766964E+02  0.35593197094E+02  0.00000000000E+00 0.  1.
</event>
<event>
 7    1  0.4005571E-009  0.4778727E+02  0.7816164E-02  0.1312668E+00
        -11   -1    0    0    0    0  0.00000000000E+00  0.00000000000E+00  0.45593999997E+02  0.45594000000E+02  0.51100000000E-03 0.  1.
         11   -1    0    0    0    0 -0.00000000000E+00 -0.00000000000E+00 -0.45593999997E+02  0.45594000000E+02  0.51100000000E-03 0. -1.
    9900012    2    1    2    0    0  0.22962489567E+01 -0.42253998647E+02  0.96410741499E+01  0.47787268765E+02  0.19999989608E+02 0.  0.
         12    1    1    2    0    0 -0.22962489567E+01  0.42253998647E+02 -0.96410741499E+01  0.43400731235E+02  0.00000000000E+00 0. -1.
         11    1    3    3    0    0 -0.11818522894E+00  0.11331421796E+01  0.13444748381E+00  0.11471945496E+01  0.51100000000E-03 0. -1.
        -11    1    3    3    0    0 -0.25867978719E+01 -0.11373602480E+02  0.81132764211E+01  0.14208293745E+02  0.51100000000E-03 0.  1.
         12    1    3    3    0    0  0.50012320575E+01 -0.32013538347E+02  0.13933502450E+01  0.32431780470E+02  0.00000000000E+00 0. -1.
</event>
<event>
 7    1  0.4005571E-009  0.4778727E+02  0.7816164E-02  0.1312668E+00
        -11   -1    0    0    0    0  0.00000000000E+00  0.00000000000E+00  0.45593999997E+02  0.45594000000E+02  0.51100000000E-03 0.  1.
         11   -1    0    0    0    0 -0.00000000000E+00 -0.00000000000E+00 -0.45593999997E+02  0.45594000000E+02  0.51100000000E-03 0. -1.
    9900012    2    1    2    0    0  0.27205334549E+02 -0.14363452729E+02  0.30613465483E+02  0.47787271077E+02  0.20000000146E+02 0.  0.
         12    1    1    2    0    0 -0.27205334549E+02  0.14363452729E+02 -0.30613465483E+02  0.43400728923E+02  0.00000000000E+00 0. -1.
         11    1    3    3    0    0  0.32091071442E+01 -0.41006139351E+01  0.24221792684E+01  0.57428525993E+01  0.51100000000E-03 0. -1.
        -11    1    3    3    0    0  0.27474591263E+01 -0.37039382394E+01  0.16067571971E+02  0.16716296224E+02  0.51100000000E-03 0.  1.
        -12    1    3    3    0    0  0.21248768278E+02 -0.65589005545E+01  0.12123714243E+02  0.25328122254E+02  0.00000000000E+00 0.  1.
</event>
<event>
 7    1  0.4005571E-009  0.4778727E+02  0.7816164E-02  0.1312668E+00
        -11   -1    0    0    0    0  0.00000000000E+00  0.00000000000E+00  0.45593999997E+02  0.45594000000E+02  0.51100000000E-03 0.  1.
         11   -1    0    0    0    0 -0.00000000000E+00 -0.00000000000E+00 -0.45593999997E+02  0.45594000000E+02  0.51100000000E-03 0. -1.
    9900012    2    1    2    0    0  0.43240205568E+02 -0.35828223921E+01 -0.10349679423E+01  0.47787272442E+02  0.20000006374E+02 0.  0.
         12    1    1    2    0    0 -0.43240205568E+02  0.35828223921E+01  0.10349679423E+01  0.43400727558E+02  0.00000000000E+00 0. -1.
         11    1    3    3    0    0  0.59801020555E+01  0.59717573207E+00 -0.55392462197E+01  0.81732177502E+01  0.51100000000E-03 0. -1.
        -11    1    3    3    0    0  0.24255444573E+02 -0.31257249177E+01 -0.28751404171E+01  0.24624442743E+02  0.51100000000E-03 0.  1.
        -12    1    3    3    0    0  0.13004658940E+02 -0.10542732064E+01  0.73794186945E+01  0.14989611950E+02  0.00000000000E+00 0.  1.
</event>
<event>
 7    1  0.4005571E-009  0.4778728E+02  0.7816164E-02  0.1312668E+00
        -11   -1    0    0    0    0  0.00000000000E+00  0.00000000000E+00  0.45593999997E+02  0.45594000000E+02  0.51100000000E-03 0. -1.
         11   -1    0    0    0    0 -0.00000000000E+00 -0.00000000000E+00 -0.45593999997E+02  0.45594000000E+02  0.51100000000E-03 0.  1.
    9900012    2    1    2    0    0  0.29203428764E+02  0.23435991788E+02 -0.21943949534E+02  0.47787275538E+02  0.20000020487E+02 0.  0.
         12    1    1    2    0    0 -0.29203428764E+02 -0.23435991788E+02  0.21943949534E+02  0.43400724462E+02  0.00000000000E+00 0. -1.
         11    1    3    3    0    0  0.18715408532E+02  0.11215790214E+02 -0.69820590192E+01  0.22908723558E+02  0.51100000000E-03 0. -1.
        -11    1    3    3    0    0  0.70709891940E+01  0.45667538538E+01 -0.14141222889E+02  0.16456862216E+02  0.51100000000E-03 0.  1.
         12    1    3    3    0    0  0.34170310380E+01  0.76534477198E+01 -0.82066762599E+00  0.84216897631E+01  0.00000000000E+00 0. -1.
</event>
<event>
 7    1  0.4005571E-009  0.4778727E+02  0.7816164E-02  0.1312668E+00
        -11   -1    0    0    0    0  0.00000000000E+00  0.00000000000E+00  0.45593999997E+02  0.45594000000E+02  0.51100000000E-03 0.  1.
         11   -1    0    0    0    0 -0.00000000000E+00 -0.00000000000E+00 -0.45593999997E+02  0.45594000000E+02  0.51100000000E-03 0. -1.
    9900012    2    1    2    0    0  0.29426948439E+02 -0.26049228047E+02  0.18415093925E+02  0.47787271198E+02  0.20000000699E+02 0.  0.
         12    1    1    2    0    0 -0.29426948439E+02  0.26049228047E+02 -0.18415093925E+02  0.43400728802E+02  0.00000000000E+00 0. -1.
         11    1    3    3    0    0  0.19631267310E+02 -0.20139865034E+02  0.13877234782E+02  0.31362054545E+02  0.51100000000E-03 0. -1.
        -11    1    3    3    0    0  0.63977810953E+01 -0.49737087086E+01  0.80692749889E+01  0.11436021177E+02  0.51100000000E-03 0.  1.
         12    1    3    3    0    0  0.33979000338E+01 -0.93565430443E+00 -0.35314158460E+01  0.49891954757E+01  0.00000000000E+00 0. -1.
</event>
<event>
 7    1  0.4005571E-009  0.4778727E+02  0.7816164E-02  0.1312668E+00
        -11   -1    0    0    0    0  0.00000000000E+00  0.00000000000E+00  0.45593999997E+02  0.45594000000E+02  0.51100000000E-03 0.  1.
         11   -1    0    0    0    0 -0.00000000000E+00 -0.00000000000E+00 -0.45593999997E+02  0.45594000000E+02  0.51100000000E-03 0. -1.
    9900012    2    1    2    0    0 -0.11868034931E+02 -0.79574856923E+01  0.40981111404E+02  0.47787270472E+02  0.19999997388E+02 0.  0.
         12    1    1    2    0    0  0.11868034931E+02  0.79574856923E+01 -0.40981111404E+02  0.43400729528E+02  0.00000000000E+00 0. -1.
         11    1    3    3    0    0 -0.40214870531E+01 -0.30358340618E+01  0.12329248659E+02  0.13319122318E+02  0.51100000000E-03 0. -1.
        -11    1    3    3    0    0 -0.74318704427E+01 -0.76618839319E+01  0.29657499398E+02  0.31519905369E+02  0.51100000000E-03 0.  1.
         12    1    3    3    0    0 -0.41467743524E+00  0.27402323014E+01 -0.10056366525E+01  0.29482427848E+01  0.00000000000E+00 0. -1.
</event>
<event>
 7    1  0.4005571E-009  0.4778726E+02  0.7816164E-02  0.1312668E+00
        -11   -1    0    0    0    0  0.00000000000E+00  0.00000000000E+00  0.45593999997E+02  0.45594000000E+02  0.51100000000E-03 0.  1.
         11   -1    0    0    0    0 -0.00000000000E+00 -0.00000000000E+00 -0.45593999997E+02  0.45594000000E+02  0.51100000000E-03 0. -1.
    9900012    2    1    2    0    0  0.17810969039E+02  0.39570726357E+02 -0.74233260915E+00  0.47787261985E+02  0.19999958695E+02 0.  0.
         12    1    1    2    0    0 -0.17810969039E+02 -0.39570726357E+02  0.74233260915E+00  0.43400738015E+02  0.00000000000E+00 0. -1.
         11    1    3    3    0    0 -0.91664719340E+00  0.58618948904E+00  0.16374604472E+01  0.19659952114E+01  0.51100000000E-03 0. -1.
        -11    1    3    3    0    0  0.70807640344E+01  0.17541414866E+02 -0.83842490594E+01  0.20691401290E+02  0.51100000000E-03 0.  1.
         12    1    3    3    0    0  0.11646852198E+02  0.21443122002E+02  0.60044560031E+01  0.25129865483E+02  0.00000000000E+00 0. -1.
</event>
<event>
 7    1  0.4005571E-009  0.4778727E+02  0.7816164E-02  0.1312668E+00
        -11   -1    0    0    0    0  0.00000000000E+00  0.00000000000E+00  0.45593999997E+02  0.45594000000E+02  0.51100000000E-03 0.  1.
         11   -1    0    0    0    0 -0.00000000000E+00 -0.00000000000E+00 -0.45593999997E+02  0.45594000000E+02  0.51100000000E-03 0. -1.
    9900012    2    1    2    0    0 -0.63620757487E+01  0.27132727923E+02  0.33271048948E+02  0.47787266937E+02  0.19999981271E+02 0.  0.
         12    1    1    2    0    0  0.63620757487E+01 -0.27132727923E+02 -0.33271048948E+02  0.43400733063E+02  0.00000000000E+00 0. -1.
         11    1    3    3    0    0 -0.44954304773E+01  0.60220437118E+01  0.94430649856E+01  0.12068362864E+02  0.51100000000E-03 0. -1.
        -11    1    3    3    0    0 -0.69038280749E+01  0.19546174760E+02  0.21759814576E+02  0.30053374527E+02  0.51100000000E-03 0.  1.
         12    1    3    3    0    0  0.50371828035E+01  0.15645094508E+01  0.20681693865E+01  0.56655295453E+01  0.00000000000E+00 0. -1.
</event>
<event>
 7    1  0.4005571E-009  0.4778727E+02  0.7816164E-02  0.1312668E+00
        -11   -1    0    0    0    0  0.00000000000E+00  0.00000000000E+00  0.45593999997E+02  0.45594000000E+02  0.51100000000E-03 0.  1.
         11   -1    0    0    0    0 -0.00000000000E+00 -0.00000000000E+00 -0.45593999997E+02  0.45594000000E+02  0.51100000000E-03 0. -1.
    9900012    2    1    2    0    0 -0.67481659994E+01 -0.17718301639E+02  0.39040331925E+02  0.47787268737E+02  0.19999989480E+02 0.  0.
         12    1    1    2    0    0  0.67481659994E+01  0.17718301639E+02 -0.39040331925E+02  0.43400731263E+02  0.00000000000E+00 0. -1.
         11    1    3    3    0    0  0.23364967588E+01 -0.79761966982E+00  0.92355925143E+00  0.26359772748E+01  0.51100000000E-03 0. -1.
        -11    1    3    3    0    0  0.36660491582E+01 -0.66613255722E+01  0.15138800174E+02  0.16940969446E+02  0.51100000000E-03 0.  1.
         12    1    3    3    0    0 -0.12750711916E+02 -0.10259356397E+02  0.22977972500E+02  0.28210322016E+02  0.00000000000E+00 0. -1.
</event>
<event>
 7    1  0.4005571E-009  0.4778727E+02  0.7816164E-02  0.1312668E+00
        -11   -1    0    0    0    0  0.00000000000E+00  0.00000000000E+00  0.45593999997E+02  0.45594000000E+02  0.51100000000E-03 0.  1.
         11   -1    0    0    0    0 -0.00000000000E+00 -0.00000000000E+00 -0.45593999997E+02  0.45594000000E+02  0.51100000000E-03 0. -1.
    9900012    2    1    2    0    0 -0.26937461913E+02  0.28798943975E+02  0.18127801573E+02  0.47787271685E+02  0.20000002921E+02 0.  0.
         12    1    1    2    0    0  0.26937461913E+02 -0.28798943975E+02 -0.18127801573E+02  0.43400728315E+02  0.00000000000E+00 0. -1.
         11    1    3    3    0    0  0.23579868411E+01  0.20668089922E+01  0.15366805188E+01  0.34918746586E+01  0.51100000000E-03 0. -1.
        -11    1    3    3    0    0 -0.10614596007E+02  0.44588501818E+01  0.78676824437E+01  0.13944583917E+02  0.51100000000E-03 0.  1.
        -12    1    3    3    0    0 -0.18680852748E+02  0.22273284801E+02  0.87234386101E+01  0.30350813109E+02  0.00000000000E+00 0.  1.
</event>
<event>
 7    1  0.4005571E-009  0.4778727E+02  0.7816164E-02  0.1312668E+00
        -11   -1    0    0    0    0  0.00000000000E+00  0.00000000000E+00  0.45593999997E+02  0.45594000000E+02  0.51100000000E-03 0. -1.
         11   -1    0    0    0    0 -0.00000000000E+00 -0.00000000000E+00 -0.45593999997E+02  0.45594000000E+02  0.51100000000E-03 0.  1.
    9900012    2    1    2    0    0 -0.13251663297E+02  0.36601063717E+02 -0.19193193906E+02  0.47787272614E+02  0.20000007157E+02 0.  0.
         12    1    1    2    0    0  0.13251663297E+02 -0.36601063717E+02  0.19193193906E+02  0.43400727386E+02  0.00000000000E+00 0. -1.
         11    1    3    3    0    0 -0.13815465969E+02  0.16384945322E+02 -0.13011113174E+02  0.25072347306E+02  0.51100000000E-03 0. -1.
        -11    1    3    3    0    0  0.33462602990E+00  0.12443700526E+01 -0.32762693567E+01  0.35205642398E+01  0.51100000000E-03 0.  1.
         12    1    3    3    0    0  0.22917664223E+00  0.18971748342E+02 -0.29058113751E+01  0.19194361068E+02  0.00000000000E+00 0. -1.
</event>
<event>
 7    1  0.4005571E-009  0.4778727E+02  0.7816164E-02  0.1312668E+00
        -11   -1    0    0    0    0  0.00000000000E+00  0.00000000000E+00  0.45593999997E+02  0.45594000000E+02  0.51100000000E-03 0. -1.
         11   -1    0    0    0    0 -0.00000000000E+00 -0.00000000000E+00 -0.45593999997E+02  0.45594000000E+02  0.51100000000E-03 0.  1.
    9900012    2    1    2    0    0 -0.17671070576E+02 -0.30960675700E+02 -0.24754664133E+02  0.47787267617E+02  0.19999984371E+02 0.  0.
         12    1    1    2    0    0  0.17671070576E+02  0.30960675700E+02  0.24754664133E+02  0.43400732383E+02  0.00000000000E+00 0. -1.
         11    1    3    3    0    0 -0.18961023516E+02 -0.24020687158E+02 -0.25552308464E+02  0.39867709897E+02  0.51100000000E-03 0.  1.
        -11    1    3    3    0    0 -0.41735686352E+00 -0.56580338637E+01  0.10288238876E+00  0.56743386400E+01  0.51100000000E-03 0. -1.
        -12    1    3    3    0    0  0.17073098032E+01 -0.12819546779E+01  0.69476194233E+00  0.22452190799E+01  0.00000000000E+00 0.  1.
</event>
<event>
 7    1  0.4005571E-009  0.4778727E+02  0.7816164E-02  0.1312668E+00
        -11   -1    0    0    0    0  0.00000000000E+00  0.00000000000E+00  0.45593999997E+02  0.45594000000E+02  0.51100000000E-03 0.  1.
         11   -1    0    0    0    0 -0.00000000000E+00 -0.00000000000E+00 -0.45593999997E+02  0.45594000000E+02  0.51100000000E-03 0. -1.
    9900012    2    1    2    0    0  0.13414406580E+02  0.27330118477E+02  0.30931243619E+02  0.47787268304E+02  0.19999987507E+02 0.  0.
         12    1    1    2    0    0 -0.13414406580E+02 -0.27330118477E+02 -0.30931243619E+02  0.43400731696E+02  0.00000000000E+00 0. -1.
         11    1    3    3    0    0  0.57294629608E+01  0.43337485577E+01  0.85463178490E+01  0.11164572156E+02  0.51100000000E-03 0. -1.
        -11    1    3    3    0    0  0.86073605019E+01  0.24606928540E+02  0.17502619753E+02  0.31399510912E+02  0.51100000000E-03 0.  1.
        -12    1    3    3    0    0 -0.92241688254E+00 -0.16105586209E+01  0.48823060172E+01  0.52231852372E+01  0.00000000000E+00 0.  1.
</event>
<event>
 7    1  0.4005571E-009  0.4778727E+02  0.7816164E-02  0.1312668E+00
        -11   -1    0    0    0    0  0.00000000000E+00  0.00000000000E+00  0.45593999997E+02  0.45594000000E+02  0.51100000000E-03 0. -1.
         11   -1    0    0    0    0 -0.00000000000E+00 -0.00000000000E+00 -0.45593999997E+02  0.45594000000E+02  0.51100000000E-03 0.  1.
    9900012    2    1    2    0    0 -0.12016542154E+02 -0.23284193230E+02 -0.34598736922E+02  0.47787268021E+02  0.19999986214E+02 0.  0.
         12    1    1    2    0    0  0.12016542154E+02  0.23284193230E+02  0.34598736922E+02  0.43400731979E+02  0.00000000000E+00 0. -1.
         11    1    3    3    0    0  0.18495539303E+01 -0.16315929207E+01 -0.16448975153E+01  0.29645629184E+01  0.51100000000E-03 0. -1.
        -11    1    3    3    0    0 -0.11686750128E+02 -0.23719647001E+02 -0.32309771974E+02  0.41750726313E+02  0.51100000000E-03 0.  1.
        -12    1    3    3    0    0 -0.21793459569E+01  0.20670466915E+01 -0.64406743278E+00  0.30719787894E+01  0.00000000000E+00 0.  1.
</event>
<event>
 7    1  0.4005571E-009  0.4778726E+02  0.7816164E-02  0.1312668E+00
        -11   -1    0    0    0    0  0.00000000000E+00  0.00000000000E+00  0.45593999997E+02  0.45594000000E+02  0.51100000000E-03 0. -1.
         11   -1    0    0    0    0 -0.00000000000E+00 -0.00000000000E+00 -0.45593999997E+02  0.45594000000E+02  0.51100000000E-03 0.  1.
    9900012    2    1    2    0    0  0.25366450261E+02  0.20597550840E+02 -0.28564112128E+02  0.47787258058E+02  0.19999940789E+02 0.  0.
         12    1    1    2    0    0 -0.25366450261E+02 -0.20597550840E+02  0.28564112128E+02  0.43400741942E+02  0.00000000000E+00 0. -1.
         11    1    3    3    0    0  0.10572084812E+01  0.62444151639E+01 -0.83781284596E+01  0.10502544799E+02  0.51100000000E-03 0. -1.
        -11    1    3    3    0    0  0.22621071694E+02  0.13751551245E+02 -0.12287793485E+02  0.29185748495E+02  0.51100000000E-03 0.  1.
         12    1    3    3    0    0  0.16881700859E+01  0.60158443132E+00 -0.78981901838E+01  0.80989647639E+01  0.00000000000E+00 0. -1.
</event>
<event>
 7    1  0.4005571E-009  0.4778727E+02  0.7816164E-02  0.1312668E+00
        -11   -1    0    0    0    0  0.00000000000E+00  0.00000000000E+00  0.45593999997E+02  0.45594000000E+02  0.51100000000E-03 0.  1.
         11   -1    0    0    0    0 -0.00000000000E+00 -0.00000000000E+00 -0.45593999997E+02  0.45594000000E+02  0.51100000000E-03 0. -1.
    9900012    2    1    2    0    0  0.22566220710E+02 -0.15194647568E+02  0.33815845712E+02  0.47787273588E+02  0.20000011596E+02 0.  0.
         12    1    1    2    0    0 -0.22566220710E+02  0.15194647568E+02 -0.33815845712E+02  0.43400726412E+02  0.00000000000E+00 0. -1.
         11    1    3    3    0    0 -0.13458310929E+01  0.32236890009E+00 -0.10401030947E+01  0.17311839149E+01  0.51100000000E-03 0. -1.
        -11    1    3    3    0    0  0.45093905503E+01 -0.45335050294E+01  0.27330734856E+01  0.69539170203E+01  0.51100000000E-03 0.  1.
        -12    1    3    3    0    0  0.19402661253E+02 -0.10983511439E+02  0.32122875322E+02  0.39102172653E+02  0.00000000000E+00 0.  1.
</event>
<event>
 7    1  0.4005571E-009  0.4778727E+02  0.7816164E-02  0.1312668E+00
        -11   -1    0    0    0    0  0.00000000000E+00  0.00000000000E+00  0.45593999997E+02  0.45594000000E+02  0.51100000000E-03 0.  1.
         11   -1    0    0    0    0 -0.00000000000E+00 -0.00000000000E+00 -0.45593999997E+02  0.45594000000E+02  0.51100000000E-03 0. -1.
    9900012    2    1    2    0    0 -0.23034564601E+02  0.32818783750E+02  0.16612026510E+02  0.47787272380E+02  0.20000006087E+02 0.  0.
         12    1    1    2    0    0  0.23034564601E+02 -0.32818783750E+02 -0.16612026510E+02  0.43400727620E+02  0.00000000000E+00 0. -1.
         11    1    3    3    0    0 -0.82673343388E+00  0.27124725173E+00 -0.17529366483E+01  0.19570003567E+01  0.51100000000E-03 0. -1.
        -11    1    3    3    0    0  0.18447963509E+01  0.44943268298E+01  0.35556970299E+01  0.60204010547E+01  0.51100000000E-03 0.  1.
        -12    1    3    3    0    0 -0.24052627518E+02  0.28053209669E+02  0.14809266129E+02  0.39809870968E+02  0.00000000000E+00 0.  1.
</event>
<event>
 7    1  0.4005571E-009  0.4778727E+02  0.7816164E-02  0.1312668E+00
        -11   -1    0    0    0    0  0.00000000000E+00  0.00000000000E+00  0.45593999997E+02  0.45594000000E+02  0.51100000000E-03 0. -1.
         11   -1    0    0    0    0 -0.00000000000E+00 -0.00000000000E+00 -0.45593999997E+02  0.45594000000E+02  0.51100000000E-03 0.  1.
    9900012    2    1    2    0    0 -0.69874572912E+01  0.19257895170E+02 -0.38261367051E+02  0.47787270808E+02  0.19999998924E+02 0.  0.
         12    1    1    2    0    0  0.69874572912E+01 -0.19257895170E+02  0.38261367051E+02  0.43400729192E+02  0.00000000000E+00 0. -1.
         11    1    3    3    0    0 -0.15479208442E+01  0.62249965980E+01 -0.28555156023E+02  0.29266765748E+02  0.51100000000E-03 0. -1.
        -11    1    3    3    0    0 -0.12871477742E+01  0.75059309631E+01 -0.86543234996E+01  0.11527925421E+02  0.51100000000E-03 0.  1.
         12    1    3    3    0    0 -0.41523886728E+01  0.55269676089E+01 -0.10518875276E+01  0.69925796392E+01  0.00000000000E+00 0. -1.
</event>
<event>
 7    1  0.4005571E-009  0.4778727E+02  0.7816164E-02  0.1312668E+00
        -11   -1    0    0    0    0  0.00000000000E+00  0.00000000000E+00  0.45593999997E+02  0.45594000000E+02  0.51100000000E-03 0.  1.
         11   -1    0    0    0    0 -0.00000000000E+00 -0.00000000000E+00 -0.45593999997E+02  0.45594000000E+02  0.51100000000E-03 0. -1.
    9900012    2    1    2    0    0  0.51579751586E+01  0.36644814160E+02 -0.22675457147E+02  0.47787268792E+02  0.19999989729E+02 0.  0.
         12    1    1    2    0    0 -0.51579751586E+01 -0.36644814160E+02  0.22675457147E+02  0.43400731208E+02  0.00000000000E+00 0. -1.
         11    1    3    3    0    0 -0.12803461466E+01  0.10694725157E+02 -0.78204633221E+01  0.13310750515E+02  0.51100000000E-03 0. -1.
        -11    1    3    3    0    0  0.78694620746E+01  0.27605417274E+02 -0.14780577868E+02  0.32287040413E+02  0.51100000000E-03 0.  1.
         12    1    3    3    0    0 -0.14311407694E+01 -0.16553282705E+01 -0.74415956799E-01  0.21894778646E+01  0.00000000000E+00 0. -1.
</event>
<event>
 7    1  0.4005571E-009  0.4778727E+02  0.7816164E-02  0.1312668E+00
        -11   -1    0    0    0    0  0.00000000000E+00  0.00000000000E+00  0.45593999997E+02  0.45594000000E+02  0.51100000000E-03 0.  1.
         11   -1    0    0    0    0 -0.00000000000E+00 -0.00000000000E+00 -0.45593999997E+02  0.45594000000E+02  0.51100000000E-03 0. -1.
    9900012    2    1    2    0    0  0.10241894437E+01  0.19142354599E+02  0.38937699745E+02  0.47787272298E+02  0.20000005717E+02 0.  0.
         12    1    1    2    0    0 -0.10241894437E+01 -0.19142354599E+02 -0.38937699745E+02  0.43400727702E+02  0.00000000000E+00 0. -1.
         11    1    3    3    0    0 -0.50745825651E+01  0.85482868762E+01  0.21117617613E+02  0.23340487798E+02  0.51100000000E-03 0. -1.
        -11    1    3    3    0    0  0.27800972780E+01  0.12360130502E+01  0.13107725622E+02  0.13456193383E+02  0.51100000000E-03 0.  1.
        -12    1    3    3    0    0  0.33186747308E+01  0.93580546728E+01  0.47123565103E+01  0.10990591117E+02  0.00000000000E+00 0.  1.
</event>
<event>
 7    1  0.4005571E-009  0.4778733E+02  0.7816164E-02  0.1312667E+00
        -11   -1    0    0    0    0  0.00000000000E+00  0.00000000000E+00  0.45593999997E+02  0.45594000000E+02  0.51100000000E-03 0.  1.
         11   -1    0    0    0    0 -0.00000000000E+00 -0.00000000000E+00 -0.45593999997E+02  0.45594000000E+02  0.51100000000E-03 0. -1.
    9900012    2    1    2    0    0 -0.30048878908E+02 -0.18329611916E+02  0.25391104410E+02  0.47787332035E+02  0.20000278079E+02 0.  0.
         12    1    1    2    0    0  0.30048878908E+02  0.18329611916E+02 -0.25391104410E+02  0.43400667965E+02  0.00000000000E+00 0. -1.
         11    1    3    3    0    0 -0.50764214519E+01 -0.94128544554E+01  0.44216734192E+01  0.11572513981E+02  0.51100000000E-03 0. -1.
        -11    1    3    3    0    0 -0.29062673904E+00 -0.28809320182E+01  0.61557620078E+01  0.68027670365E+01  0.51100000000E-03 0.  1.
        -12    1    3    3    0    0 -0.24681830717E+02 -0.60358254429E+01  0.14813668983E+02  0.29412051018E+02  0.00000000000E+00 0.  1.
</event>
<event>
 7    1  0.4005571E-009  0.4778727E+02  0.7816164E-02  0.1312668E+00
        -11   -1    0    0    0    0  0.00000000000E+00  0.00000000000E+00  0.45593999997E+02  0.45594000000E+02  0.51100000000E-03 0. -1.
         11   -1    0    0    0    0 -0.00000000000E+00 -0.00000000000E+00 -0.45593999997E+02  0.45594000000E+02  0.51100000000E-03 0.  1.
    9900012    2    1    2    0    0  0.40823263027E+02 -0.12559541286E+02  0.77034078140E+01  0.47787269897E+02  0.19999994770E+02 0.  0.
         12    1    1    2    0    0 -0.40823263027E+02  0.12559541286E+02 -0.77034078140E+01  0.43400730103E+02  0.00000000000E+00 0. -1.
         11    1    3    3    0    0  0.15393793413E+02 -0.41733536396E+01 -0.10906052935E+01  0.15986718751E+02  0.51100000000E-03 0.  1.
        -11    1    3    3    0    0  0.57122581840E+01 -0.40989706865E+01 -0.38227792167E+01  0.80028179693E+01  0.51100000000E-03 0. -1.
         12    1    3    3    0    0  0.19717211429E+02 -0.42872169604E+01  0.12616792324E+02  0.23797733177E+02  0.00000000000E+00 0. -1.
</event>
<event>
 7    1  0.4005571E-009  0.4778727E+02  0.7816164E-02  0.1312668E+00
        -11   -1    0    0    0    0  0.00000000000E+00  0.00000000000E+00  0.45593999997E+02  0.45594000000E+02  0.51100000000E-03 0.  1.
         11   -1    0    0    0    0 -0.00000000000E+00 -0.00000000000E+00 -0.45593999997E+02  0.45594000000E+02  0.51100000000E-03 0. -1.
    9900012    2    1    2    0    0 -0.26682631663E+02 -0.17195008784E+02  0.29597163105E+02  0.47787271626E+02  0.20000002651E+02 0.  0.
         12    1    1    2    0    0  0.26682631663E+02  0.17195008784E+02 -0.29597163105E+02  0.43400728374E+02  0.00000000000E+00 0. -1.
         11    1    3    3    0    0 -0.11146809659E+02 -0.98302887543E+00  0.13409125521E+02  0.17464889317E+02  0.51100000000E-03 0. -1.
        -11    1    3    3    0    0 -0.81364050290E+01 -0.23515613391E+01  0.11025681578E+01  0.85408772577E+01  0.51100000000E-03 0.  1.
        -12    1    3    3    0    0 -0.73994169747E+01 -0.13860418570E+02  0.15085469426E+02  0.21781505051E+02  0.00000000000E+00 0.  1.
</event>
<event>
 7    1  0.4005571E-009  0.4778731E+02  0.7816164E-02  0.1312668E+00
        -11   -1    0    0    0    0  0.00000000000E+00  0.00000000000E+00  0.45593999997E+02  0.45594000000E+02  0.51100000000E-03 0. -1.
         11   -1    0    0    0    0 -0.00000000000E+00 -0.00000000000E+00 -0.45593999997E+02  0.45594000000E+02  0.51100000000E-03 0.  1.
    9900012    2    1    2    0    0  0.20800278245E+02  0.26493465073E+02 -0.27369048470E+02  0.47787307830E+02  0.20000167720E+02 0.  0.
         12    1    1    2    0    0 -0.20800278245E+02 -0.26493465073E+02  0.27369048470E+02  0.43400692170E+02  0.00000000000E+00 0. -1.
         11    1    3    3    0    0 -0.13029578830E+01  0.28776433261E+01 -0.11653200894E+01  0.33669721604E+01  0.51100000000E-03 0. -1.
        -11    1    3    3    0    0 -0.43576566471E+00  0.66734295646E+01 -0.13261231216E+01  0.68178557232E+01  0.51100000000E-03 0.  1.
        -12    1    3    3    0    0  0.22539001793E+02  0.16942392183E+02 -0.24877605259E+02  0.37602479946E+02  0.00000000000E+00 0.  1.
</event>
<event>
 7    1  0.4005571E-009  0.4778727E+02  0.7816164E-02  0.1312668E+00
        -11   -1    0    0    0    0  0.00000000000E+00  0.00000000000E+00  0.45593999997E+02  0.45594000000E+02  0.51100000000E-03 0.  1.
         11   -1    0    0    0    0 -0.00000000000E+00 -0.00000000000E+00 -0.45593999997E+02  0.45594000000E+02  0.51100000000E-03 0. -1.
    9900012    2    1    2    0    0  0.90365383825E+01 -0.56219237207E+01  0.42075624885E+02  0.47787271185E+02  0.20000000640E+02 0.  0.
         12    1    1    2    0    0 -0.90365383825E+01  0.56219237207E+01 -0.42075624885E+02  0.43400728815E+02  0.00000000000E+00 0. -1.
         11    1    3    3    0    0 -0.10208131635E+01  0.16051923043E+01 -0.10083795477E+01  0.21530284303E+01  0.51100000000E-03 0. -1.
        -11    1    3    3    0    0  0.13309576685E+01  0.14049509054E+01  0.21186137982E+01  0.28694703429E+01  0.51100000000E-03 0.  1.
        -12    1    3    3    0    0  0.87263938775E+01 -0.86320669304E+01  0.40965390634E+02  0.42764772412E+02  0.00000000000E+00 0.  1.
</event>
<event>
 7    1  0.4005571E-009  0.4778727E+02  0.7816164E-02  0.1312668E+00
        -11   -1    0    0    0    0  0.00000000000E+00  0.00000000000E+00  0.45593999997E+02  0.45594000000E+02  0.51100000000E-03 0.  1.
         11   -1    0    0    0    0 -0.00000000000E+00 -0.00000000000E+00 -0.45593999997E+02  0.45594000000E+02  0.51100000000E-03 0. -1.
    9900012    2    1    2    0    0 -0.53682394847E+01  0.25646466956E+02  0.34598611126E+02  0.47787272422E+02  0.20000006281E+02 0.  0.
         12    1    1    2    0    0  0.53682394847E+01 -0.25646466956E+02 -0.34598611126E+02  0.43400727578E+02  0.00000000000E+00 0. -1.
         11    1    3    3    0    0 -0.73437967262E+00  0.49750224242E+01  0.13788220724E+02  0.14676688748E+02  0.51100000000E-03 0. -1.
        -11    1    3    3    0    0 -0.20947787672E+01 -0.63973322637E+00  0.75989096587E+01  0.79082731962E+01  0.51100000000E-03 0.  1.
         12    1    3    3    0    0 -0.25390810449E+01  0.21311177758E+02  0.13211480743E+02  0.25202310478E+02  0.00000000000E+00 0. -1.
</event>
<event>
 7    1  0.4005571E-009  0.4778727E+02  0.7816164E-02  0.1312668E+00
        -11   -1    0    0    0    0  0.00000000000E+00  0.00000000000E+00  0.45593999997E+02  0.45594000000E+02  0.51100000000E-03 0. -1.
         11   -1    0    0    0    0 -0.00000000000E+00 -0.00000000000E+00 -0.45593999997E+02  0.45594000000E+02  0.51100000000E-03 0.  1.
    9900012    2    1    2    0    0  0.26851049481E+02 -0.31946724193E+02 -0.11918519192E+02  0.47787272533E+02  0.20000006788E+02 0.  0.
         12    1    1    2    0    0 -0.26851049481E+02  0.31946724193E+02  0.11918519192E+02  0.43400727467E+02  0.00000000000E+00 0. -1.
         11    1    3    3    0    0  0.86611822481E+01 -0.38334485334E+01 -0.18400463451E+01  0.96486878075E+01  0.51100000000E-03 0. -1.
        -11    1    3    3    0    0  0.19716174415E+02 -0.22477672561E+02 -0.48285835114E+01  0.30286771309E+02  0.51100000000E-03 0.  1.
         12    1    3    3    0    0 -0.15263071820E+01 -0.56356030982E+01 -0.52498893354E+01  0.78518134165E+01  0.00000000000E+00 0. -1.
</event>
<event>
 7    1  0.4005571E-009  0.4778727E+02  0.7816164E-02  0.1312668E+00
        -11   -1    0    0    0    0  0.00000000000E+00  0.00000000000E+00  0.45593999997E+02  0.45594000000E+02  0.51100000000E-03 0.  1.
         11   -1    0    0    0    0 -0.00000000000E+00 -0.00000000000E+00 -0.45593999997E+02  0.45594000000E+02  0.51100000000E-03 0. -1.
    9900012    2    1    2    0    0 -0.17045518713E+02  0.75289617935E+01  0.39196787151E+02  0.47787273084E+02  0.20000009301E+02 0.  0.
         12    1    1    2    0    0  0.17045518713E+02 -0.75289617935E+01 -0.39196787151E+02  0.43400726916E+02  0.00000000000E+00 0. -1.
         11    1    3    3    0    0 -0.17786757883E+02  0.71209372151E+01  0.22359591416E+02  0.29445336326E+02  0.51100000000E-03 0. -1.
        -11    1    3    3    0    0 -0.13183580693E+01 -0.26154509226E+01  0.37801029436E+01  0.47820320004E+01  0.51100000000E-03 0.  1.
         12    1    3    3    0    0  0.20595972393E+01  0.30234755009E+01  0.13057092791E+02  0.13559904758E+02  0.00000000000E+00 0. -1.
</event>
<event>
 7    1  0.4005571E-009  0.4778727E+02  0.7816164E-02  0.1312668E+00
        -11   -1    0    0    0    0  0.00000000000E+00  0.00000000000E+00  0.45593999997E+02  0.45594000000E+02  0.51100000000E-03 0.  1.
         11   -1    0    0    0    0 -0.00000000000E+00 -0.00000000000E+00 -0.45593999997E+02  0.45594000000E+02  0.51100000000E-03 0. -1.
    9900012    2    1    2    0    0  0.16733755865E+02  0.34844294461E+02  0.19735241520E+02  0.47787271899E+02  0.20000003898E+02 0.  0.
         12    1    1    2    0    0 -0.16733755865E+02 -0.34844294461E+02 -0.19735241520E+02  0.43400728101E+02  0.00000000000E+00 0. -1.
         11    1    3    3    0    0  0.47145745024E+01  0.62860622333E+01 -0.11979732947E+01  0.79483917503E+01  0.51100000000E-03 0. -1.
        -11    1    3    3    0    0  0.12312035702E+02  0.13848535700E+02  0.77558814232E+01  0.20087853571E+02  0.51100000000E-03 0.  1.
         12    1    3    3    0    0 -0.29285433980E+00  0.14709696528E+02  0.13177333392E+02  0.19751026579E+02  0.00000000000E+00 0. -1.
</event>
<event>
 7    1  0.4005571E-009  0.4778727E+02  0.7816164E-02  0.1312668E+00
        -11   -1    0    0    0    0  0.00000000000E+00  0.00000000000E+00  0.45593999997E+02  0.45594000000E+02  0.51100000000E-03 0.  1.
         11   -1    0    0    0    0 -0.00000000000E+00 -0.00000000000E+00 -0.45593999997E+02  0.45594000000E+02  0.51100000000E-03 0. -1.
    9900012    2    1    2    0    0  0.10271827480E+02  0.10269586562E+02  0.40898024382E+02  0.47787271363E+02  0.20000001451E+02 0.  0.
         12    1    1    2    0    0 -0.10271827480E+02 -0.10269586562E+02 -0.40898024382E+02  0.43400728637E+02  0.00000000000E+00 0. -1.
         11    1    3    3    0    0  0.27238175268E+01  0.32424825031E+01  0.32447579938E+01  0.53349160632E+01  0.51100000000E-03 0. -1.
        -11    1    3    3    0    0  0.98404810425E+01  0.62102172947E+01  0.12113815156E+02  0.16797213575E+02  0.51100000000E-03 0.  1.
        -12    1    3    3    0    0 -0.22924710892E+01  0.81688676479E+00  0.25539451231E+02  0.25655141724E+02  0.00000000000E+00 0.  1.
</event>
<event>
 7    1  0.4005571E-009  0.4778727E+02  0.7816164E-02  0.1312668E+00
        -11   -1    0    0    0    0  0.00000000000E+00  0.00000000000E+00  0.45593999997E+02  0.45594000000E+02  0.51100000000E-03 0.  1.
         11   -1    0    0    0    0 -0.00000000000E+00 -0.00000000000E+00 -0.45593999997E+02  0.45594000000E+02  0.51100000000E-03 0. -1.
    9900012    2    1    2    0    0  0.40945537415E+02  0.14165312168E+02 -0.25357575908E+01  0.47787272246E+02  0.20000005478E+02 0.  0.
         12    1    1    2    0    0 -0.40945537415E+02 -0.14165312168E+02  0.25357575908E+01  0.43400727754E+02  0.00000000000E+00 0. -1.
         11    1    3    3    0    0  0.30961411113E+01  0.60107529107E+01 -0.29679035283E+01  0.73840159770E+01  0.51100000000E-03 0. -1.
        -11    1    3    3    0    0  0.13745516726E+02  0.76833901638E+01  0.34081863851E+01  0.16111779826E+02  0.51100000000E-03 0.  1.
         12    1    3    3    0    0  0.24103879578E+02  0.47116909313E+00 -0.29760404476E+01  0.24291476443E+02  0.00000000000E+00 0. -1.
</event>
<event>
 7    1  0.4005571E-009  0.4778727E+02  0.7816164E-02  0.1312668E+00
        -11   -1    0    0    0    0  0.00000000000E+00  0.00000000000E+00  0.45593999997E+02  0.45594000000E+02  0.51100000000E-03 0. -1.
         11   -1    0    0    0    0 -0.00000000000E+00 -0.00000000000E+00 -0.45593999997E+02  0.45594000000E+02  0.51100000000E-03 0.  1.
    9900012    2    1    2    0    0  0.10460024531E+02  0.15589248567E+02 -0.39130377696E+02  0.47787271403E+02  0.20000001637E+02 0.  0.
         12    1    1    2    0    0 -0.10460024531E+02 -0.15589248567E+02  0.39130377696E+02  0.43400728597E+02  0.00000000000E+00 0. -1.
         11    1    3    3    0    0  0.16865329824E+01 -0.14044369233E+01 -0.26752173302E+01  0.34602925595E+01  0.51100000000E-03 0. -1.
        -11    1    3    3    0    0 -0.27740267864E+01 -0.14645442949E+01 -0.72459793698E+01  0.78958426967E+01  0.51100000000E-03 0.  1.
         12    1    3    3    0    0  0.11547518335E+02  0.18458229785E+02 -0.29209180996E+02  0.36431136147E+02  0.00000000000E+00 0. -1.
</event>
<event>
 7    1  0.4005571E-009  0.4778727E+02  0.7816164E-02  0.1312668E+00
        -11   -1    0    0    0    0  0.00000000000E+00  0.00000000000E+00  0.45593999997E+02  0.45594000000E+02  0.51100000000E-03 0. -1.
         11   -1    0    0    0    0 -0.00000000000E+00 -0.00000000000E+00 -0.45593999997E+02  0.45594000000E+02  0.51100000000E-03 0.  1.
    9900012    2    1    2    0    0  0.14457748415E+02  0.39092489994E+02  0.12098513153E+02  0.47787270932E+02  0.19999999485E+02 0.  0.
         12    1    1    2    0    0 -0.14457748415E+02 -0.39092489994E+02 -0.12098513153E+02  0.43400729068E+02  0.00000000000E+00 0. -1.
         11    1    3    3    0    0  0.11823196077E+01 -0.85950662238E+00  0.27634829221E+01  0.31262548537E+01  0.51100000000E-03 0. -1.
        -11    1    3    3    0    0  0.56712287131E+01  0.60304389311E+01 -0.11337187771E+01  0.83554980309E+01  0.51100000000E-03 0.  1.
        -12    1    3    3    0    0  0.76042000942E+01  0.33921557685E+02  0.10468749008E+02  0.36305518047E+02  0.00000000000E+00 0.  1.
</event>
<event>
 7    1  0.4005571E-009  0.4778727E+02  0.7816164E-02  0.1312668E+00
        -11   -1    0    0    0    0  0.00000000000E+00  0.00000000000E+00  0.45593999997E+02  0.45594000000E+02  0.51100000000E-03 0.  1.
         11   -1    0    0    0    0 -0.00000000000E+00 -0.00000000000E+00 -0.45593999997E+02  0.45594000000E+02  0.51100000000E-03 0. -1.
    9900012    2    1    2    0    0 -0.15201920388E+02  0.30870908297E+02  0.26448291508E+02  0.47787268598E+02  0.19999988844E+02 0.  0.
         12    1    1    2    0    0  0.15201920388E+02 -0.30870908297E+02 -0.26448291508E+02  0.43400731402E+02  0.00000000000E+00 0. -1.
         11    1    3    3    0    0 -0.34465011911E+01  0.23525749930E+02  0.18317583061E+02  0.30014548633E+02  0.51100000000E-03 0.  1.
        -11    1    3    3    0    0  0.91215700789E+00  0.14756902706E+01  0.28550005729E+00  0.17581816532E+01  0.51100000000E-03 0. -1.
        -12    1    3    3    0    0 -0.12667576205E+02  0.58694680971E+01  0.78452083896E+01  0.16014538311E+02  0.00000000000E+00 0.  1.
</event>
<event>
 7    1  0.4005571E-009  0.4778727E+02  0.7816164E-02  0.1312668E+00
        -11   -1    0    0    0    0  0.00000000000E+00  0.00000000000E+00  0.45593999997E+02  0.45594000000E+02  0.51100000000E-03 0.  1.
         11   -1    0    0    0    0 -0.00000000000E+00 -0.00000000000E+00 -0.45593999997E+02  0.45594000000E+02  0.51100000000E-03 0. -1.
    9900012    2    1    2    0    0  0.32223810744E+02  0.10928376541E+02  0.26941044762E+02  0.47787270909E+02  0.19999999384E+02 0.  0.
         12    1    1    2    0    0 -0.32223810744E+02 -0.10928376541E+02 -0.26941044762E+02  0.43400729091E+02  0.00000000000E+00 0. -1.
         11    1    3    3    0    0  0.76682796629E+01  0.11242303924E+02  0.10525051205E+02  0.17203738362E+02  0.51100000000E-03 0. -1.
        -11    1    3    3    0    0  0.10451537714E+00  0.81454017473E+00  0.20350522367E+01  0.21945015442E+01  0.51100000000E-03 0.  1.
        -12    1    3    3    0    0  0.24451015704E+02 -0.11284675581E+01  0.14380941321E+02  0.28389031003E+02  0.00000000000E+00 0.  1.
</event>
<event>
 7    1  0.4005571E-009  0.4778727E+02  0.7816164E-02  0.1312668E+00
        -11   -1    0    0    0    0  0.00000000000E+00  0.00000000000E+00  0.45593999997E+02  0.45594000000E+02  0.51100000000E-03 0.  1.
         11   -1    0    0    0    0 -0.00000000000E+00 -0.00000000000E+00 -0.45593999997E+02  0.45594000000E+02  0.51100000000E-03 0. -1.
    9900012    2    1    2    0    0  0.17947251409E+02 -0.70632651362E+01  0.38879683363E+02  0.47787270445E+02  0.19999997265E+02 0.  0.
         12    1    1    2    0    0 -0.17947251409E+02  0.70632651362E+01 -0.38879683363E+02  0.43400729555E+02  0.00000000000E+00 0. -1.
         11    1    3    3    0    0  0.19559780240E+01  0.19841527873E+01  0.51809993480E+01  0.58826411432E+01  0.51100000000E-03 0. -1.
        -11    1    3    3    0    0  0.17198689309E+01  0.40621750722E+01  0.12139471439E+02  0.12916113291E+02  0.51100000000E-03 0.  1.
        -12    1    3    3    0    0  0.14271404454E+02 -0.13109592996E+02  0.21559212576E+02  0.28988516011E+02  0.00000000000E+00 0.  1.
</event>
<event>
 7    1  0.4005571E-009  0.4778727E+02  0.7816164E-02  0.1312668E+00
        -11   -1    0    0    0    0  0.00000000000E+00  0.00000000000E+00  0.45593999997E+02  0.45594000000E+02  0.51100000000E-03 0.  1.
         11   -1    0    0    0    0 -0.00000000000E+00 -0.00000000000E+00 -0.45593999997E+02  0.45594000000E+02  0.51100000000E-03 0. -1.
    9900012    2    1    2    0    0 -0.36497994515E+01 -0.15597414948E+02 -0.40336373908E+02  0.47787269025E+02  0.19999990794E+02 0.  0.
         12    1    1    2    0    0  0.36497994515E+01  0.15597414948E+02  0.40336373908E+02  0.43400730975E+02  0.00000000000E+00 0. -1.
         11    1    3    3    0    0 -0.86249941042E+00 -0.10655034753E+02 -0.20745358736E+02  0.23337600138E+02  0.51100000000E-03 0. -1.
        -11    1    3    3    0    0 -0.56101442774E+01 -0.84186747557E+01 -0.12802938193E+02  0.16317568142E+02  0.51100000000E-03 0.  1.
         12    1    3    3    0    0  0.28228442363E+01  0.34762945609E+01 -0.67880769788E+01  0.81321007450E+01  0.00000000000E+00 0. -1.
</event>
<event>
 7    1  0.4005571E-009  0.4778726E+02  0.7816164E-02  0.1312668E+00
        -11   -1    0    0    0    0  0.00000000000E+00  0.00000000000E+00  0.45593999997E+02  0.45594000000E+02  0.51100000000E-03 0.  1.
         11   -1    0    0    0    0 -0.00000000000E+00 -0.00000000000E+00 -0.45593999997E+02  0.45594000000E+02  0.51100000000E-03 0. -1.
    9900012    2    1    2    0    0 -0.19086516618E+02  0.32408337104E+02  0.21657065093E+02  0.47787263844E+02  0.19999967171E+02 0.  0.
         12    1    1    2    0    0  0.19086516618E+02 -0.32408337104E+02 -0.21657065093E+02  0.43400736156E+02  0.00000000000E+00 0. -1.
         11    1    3    3    0    0 -0.18326068360E+02  0.24285364262E+02  0.20211985455E+02  0.36525991501E+02  0.51100000000E-03 0.  1.
        -11    1    3    3    0    0 -0.13224772312E+01 -0.99067974854E+00  0.13436565473E+01  0.21297430760E+01  0.51100000000E-03 0. -1.
         12    1    3    3    0    0  0.56202897290E+00  0.91136525907E+01  0.10142309032E+00  0.91315292669E+01  0.00000000000E+00 0. -1.
</event>
<event>
 7    1  0.4005571E-009  0.4778727E+02  0.7816164E-02  0.1312668E+00
        -11   -1    0    0    0    0  0.00000000000E+00  0.00000000000E+00  0.45593999997E+02  0.45594000000E+02  0.51100000000E-03 0.  1.
         11   -1    0    0    0    0 -0.00000000000E+00 -0.00000000000E+00 -0.45593999997E+02  0.45594000000E+02  0.51100000000E-03 0. -1.
    9900012    2    1    2    0    0 -0.40217279913E+02  0.14836205777E+02  0.67882776898E+01  0.47787270520E+02  0.19999997607E+02 0.  0.
         12    1    1    2    0    0  0.40217279913E+02 -0.14836205777E+02 -0.67882776898E+01  0.43400729480E+02  0.00000000000E+00 0. -1.
         11    1    3    3    0    0 -0.53123866347E+01  0.45633644126E+00 -0.38411420050E+01  0.65714585039E+01  0.51100000000E-03 0. -1.
        -11    1    3    3    0    0 -0.14689540508E+02  0.19269689030E+01 -0.85708167482E+00  0.14840161682E+02  0.51100000000E-03 0.  1.
        -12    1    3    3    0    0 -0.20215352770E+02  0.12452900433E+02  0.11486501370E+02  0.26375650333E+02  0.00000000000E+00 0.  1.
</event>
<event>
 7    1  0.4005571E-009  0.4778727E+02  0.7816164E-02  0.1312668E+00
        -11   -1    0    0    0    0  0.00000000000E+00  0.00000000000E+00  0.45593999997E+02  0.45594000000E+02  0.51100000000E-03 0. -1.
         11   -1    0    0    0    0 -0.00000000000E+00 -0.00000000000E+00 -0.45593999997E+02  0.45594000000E+02  0.51100000000E-03 0.  1.
    9900012    2    1    2    0    0  0.42287473269E+02 -0.66880421924E+01  0.71177863697E+01  0.47787272049E+02  0.20000004580E+02 0.  0.
         12    1    1    2    0    0 -0.42287473269E+02  0.66880421924E+01 -0.71177863697E+01  0.43400727951E+02  0.00000000000E+00 0. -1.
         11    1    3    3    0    0  0.22416729526E+02 -0.42940332972E+01  0.50727278322E+01  0.23381211528E+02  0.51100000000E-03 0. -1.
        -11    1    3    3    0    0  0.13891035000E+02 -0.29862332575E+01 -0.50765512679E+01  0.15088068647E+02  0.51100000000E-03 0.  1.
         12    1    3    3    0    0  0.59797087428E+01  0.59222436235E+00  0.71216098054E+01  0.93179918740E+01  0.00000000000E+00 0. -1.
</event>
<event>
 7    1  0.4005571E-009  0.4778727E+02  0.7816164E-02  0.1312668E+00
        -11   -1    0    0    0    0  0.00000000000E+00  0.00000000000E+00  0.45593999997E+02  0.45594000000E+02  0.51100000000E-03 0.  1.
         11   -1    0    0    0    0 -0.00000000000E+00 -0.00000000000E+00 -0.45593999997E+02  0.45594000000E+02  0.51100000000E-03 0. -1.
    9900012    2    1    2    0    0  0.29537421909E+02 -0.45132078087E+01  0.31476896033E+02  0.47787270494E+02  0.19999997492E+02 0.  0.
         12    1    1    2    0    0 -0.29537421909E+02  0.45132078087E+01 -0.31476896033E+02  0.43400729506E+02  0.00000000000E+00 0. -1.
         11    1    3    3    0    0 -0.17083357771E+01 -0.72601366501E-02  0.63818434486E+00  0.18236620728E+01  0.51100000000E-03 0. -1.
        -11    1    3    3    0    0  0.12049331319E+02  0.44416570059E+01  0.12991726986E+02  0.18267448441E+02  0.51100000000E-03 0.  1.
         12    1    3    3    0    0  0.19196426368E+02 -0.89476046779E+01  0.17846984701E+02  0.27696159981E+02  0.00000000000E+00 0. -1.
</event>
<event>
 7    1  0.4005571E-009  0.4778727E+02  0.7816164E-02  0.1312668E+00
        -11   -1    0    0    0    0  0.00000000000E+00  0.00000000000E+00  0.45593999997E+02  0.45594000000E+02  0.51100000000E-03 0. -1.
         11   -1    0    0    0    0 -0.00000000000E+00 -0.00000000000E+00 -0.45593999997E+02  0.45594000000E+02  0.51100000000E-03 0.  1.
    9900012    2    1    2    0    0  0.52248999955E+00  0.35417277711E+02 -0.25079208816E+02  0.47787271077E+02  0.20000000148E+02 0.  0.
         12    1    1    2    0    0 -0.52248999955E+00 -0.35417277711E+02  0.25079208816E+02  0.43400728923E+02  0.00000000000E+00 0. -1.
         11    1    3    3    0    0 -0.45310366430E+01  0.30354080095E+02 -0.16315303640E+02  0.34757583411E+02  0.51100000000E-03 0. -1.
        -11    1    3    3    0    0 -0.12422038912E-01  0.35833249098E+01 -0.62027119763E+01  0.71633796380E+01  0.51100000000E-03 0.  1.
         12    1    3    3    0    0  0.50659486815E+01  0.14798727058E+01 -0.25611931994E+01  0.58663080275E+01  0.00000000000E+00 0. -1.
</event>
<event>
 7    1  0.4005571E-009  0.4778723E+02  0.7816164E-02  0.1312668E+00
        -11   -1    0    0    0    0  0.00000000000E+00  0.00000000000E+00  0.45593999997E+02  0.45594000000E+02  0.51100000000E-03 0.  1.
         11   -1    0    0    0    0 -0.00000000000E+00 -0.00000000000E+00 -0.45593999997E+02  0.45594000000E+02  0.51100000000E-03 0. -1.
    9900012    2    1    2    0    0  0.31181606345E+01 -0.87229273095E+01  0.42400639204E+02  0.47787232824E+02  0.19999825735E+02 0.  0.
         12    1    1    2    0    0 -0.31181606345E+01  0.87229273095E+01 -0.42400639204E+02  0.43400767176E+02  0.00000000000E+00 0. -1.
         11    1    3    3    0    0  0.28994417904E+01 -0.45183030199E+01  0.34007381826E+01  0.63550645412E+01  0.51100000000E-03 0. -1.
        -11    1    3    3    0    0 -0.25816639572E+01 -0.55713587537E+01  0.71273994661E+01  0.94077016620E+01  0.51100000000E-03 0.  1.
         12    1    3    3    0    0  0.28003828012E+01  0.13667344641E+01  0.31872501555E+02  0.32024466620E+02  0.00000000000E+00 0. -1.
</event>
<event>
 7    1  0.4005571E-009  0.4778727E+02  0.7816164E-02  0.1312668E+00
        -11   -1    0    0    0    0  0.00000000000E+00  0.00000000000E+00  0.45593999997E+02  0.45594000000E+02  0.51100000000E-03 0.  1.
         11   -1    0    0    0    0 -0.00000000000E+00 -0.00000000000E+00 -0.45593999997E+02  0.45594000000E+02  0.51100000000E-03 0. -1.
    9900012    2    1    2    0    0 -0.30636015008E+02 -0.26483636546E+01  0.30627508739E+02  0.47787268011E+02  0.19999986169E+02 0.  0.
         12    1    1    2    0    0  0.30636015008E+02  0.26483636546E+01 -0.30627508739E+02  0.43400731989E+02  0.00000000000E+00 0. -1.
         11    1    3    3    0    0 -0.13918003400E+02  0.48731595088E+01  0.11916604619E+02  0.18959535019E+02  0.51100000000E-03 0. -1.
        -11    1    3    3    0    0 -0.15732308556E+02 -0.14719714881E+01  0.13482893783E+02  0.20771631077E+02  0.51100000000E-03 0.  1.
         12    1    3    3    0    0 -0.98570305235E+00 -0.60495516754E+01  0.52280103374E+01  0.80561019152E+01  0.00000000000E+00 0. -1.
</event>
<event>
 7    1  0.4005571E-009  0.4778727E+02  0.7816164E-02  0.1312668E+00
        -11   -1    0    0    0    0  0.00000000000E+00  0.00000000000E+00  0.45593999997E+02  0.45594000000E+02  0.51100000000E-03 0.  1.
         11   -1    0    0    0    0 -0.00000000000E+00 -0.00000000000E+00 -0.45593999997E+02  0.45594000000E+02  0.51100000000E-03 0. -1.
    9900012    2    1    2    0    0 -0.29109275668E+02 -0.32052929559E+02 -0.29804446903E+01  0.47787271045E+02  0.20000000004E+02 0.  0.
         12    1    1    2    0    0  0.29109275668E+02  0.32052929559E+02  0.29804446903E+01  0.43400728955E+02  0.00000000000E+00 0. -1.
         11    1    3    3    0    0 -0.95342401216E+01 -0.31480170374E+01 -0.27272293233E+01  0.10404303245E+02  0.51100000000E-03 0. -1.
        -11    1    3    3    0    0 -0.11948599020E+02 -0.10292565407E+02 -0.53143731683E+01  0.16641769245E+02  0.51100000000E-03 0.  1.
         12    1    3    3    0    0 -0.76264365270E+01 -0.18612347115E+02  0.50611578013E+01  0.20741198555E+02  0.00000000000E+00 0. -1.
</event>
<event>
 7    1  0.4005571E-009  0.4778727E+02  0.7816164E-02  0.1312668E+00
        -11   -1    0    0    0    0  0.00000000000E+00  0.00000000000E+00  0.45593999997E+02  0.45594000000E+02  0.51100000000E-03 0. -1.
         11   -1    0    0    0    0 -0.00000000000E+00 -0.00000000000E+00 -0.45593999997E+02  0.45594000000E+02  0.51100000000E-03 0.  1.
    9900012    2    1    2    0    0 -0.32371863659E+02  0.52305025535E+01  0.28431100912E+02  0.47787271748E+02  0.20000003209E+02 0.  0.
         12    1    1    2    0    0  0.32371863659E+02 -0.52305025535E+01 -0.28431100912E+02  0.43400728252E+02  0.00000000000E+00 0. -1.
         11    1    3    3    0    0 -0.61997975042E+01  0.24783390546E+01  0.58410620459E+01  0.88711701397E+01  0.51100000000E-03 0. -1.
        -11    1    3    3    0    0 -0.27413582251E+02  0.60634709239E+01  0.20872192007E+02  0.34984547602E+02  0.51100000000E-03 0.  1.
         12    1    3    3    0    0  0.12415160957E+01 -0.33113074250E+01  0.17178468587E+01  0.39315540068E+01  0.00000000000E+00 0. -1.
</event>
<event>
 7    1  0.4005571E-009  0.4778727E+02  0.7816164E-02  0.1312668E+00
        -11   -1    0    0    0    0  0.00000000000E+00  0.00000000000E+00  0.45593999997E+02  0.45594000000E+02  0.51100000000E-03 0. -1.
         11   -1    0    0    0    0 -0.00000000000E+00 -0.00000000000E+00 -0.45593999997E+02  0.45594000000E+02  0.51100000000E-03 0.  1.
    9900012    2    1    2    0    0 -0.95970270998E+01 -0.37044941513E+02 -0.20474190914E+02  0.47787272882E+02  0.20000008377E+02 0.  0.
         12    1    1    2    0    0  0.95970270998E+01  0.37044941513E+02  0.20474190914E+02  0.43400727118E+02  0.00000000000E+00 0. -1.
         11    1    3    3    0    0 -0.44742338841E+01 -0.41938318724E+01 -0.80412409109E+01  0.10112791418E+02  0.51100000000E-03 0. -1.
        -11    1    3    3    0    0 -0.44767704493E+01 -0.71090014030E+01 -0.78926282901E+01  0.11527053231E+02  0.51100000000E-03 0.  1.
         12    1    3    3    0    0 -0.64602276647E+00 -0.25742108237E+02 -0.45403217125E+01  0.26147428232E+02  0.00000000000E+00 0. -1.
</event>
<event>
 7    1  0.4005571E-009  0.4778726E+02  0.7816164E-02  0.1312668E+00
        -11   -1    0    0    0    0  0.00000000000E+00  0.00000000000E+00  0.45593999997E+02  0.45594000000E+02  0.51100000000E-03 0.  1.
         11   -1    0    0    0    0 -0.00000000000E+00 -0.00000000000E+00 -0.45593999997E+02  0.45594000000E+02  0.51100000000E-03 0. -1.
    9900012    2    1    2    0    0  0.39254313670E+02  0.65307318125E+01  0.17322614314E+02  0.47787256154E+02  0.19999932108E+02 0.  0.
         12    1    1    2    0    0 -0.39254313670E+02 -0.65307318125E+01 -0.17322614314E+02  0.43400743846E+02  0.00000000000E+00 0. -1.
         11    1    3    3    0    0  0.14481145176E+01  0.43093168426E+01 -0.98049349946E+00  0.46506574879E+01  0.51100000000E-03 0. -1.
        -11    1    3    3    0    0  0.99522362271E+01  0.37026662965E+01  0.83930331371E+01  0.13535130185E+02  0.51100000000E-03 0.  1.
         12    1    3    3    0    0  0.27853962925E+02 -0.14812513267E+01  0.99100746766E+01  0.29601468481E+02  0.00000000000E+00 0. -1.
</event>
<event>
 7    1  0.4005571E-009  0.4778727E+02  0.7816164E-02  0.1312668E+00
        -11   -1    0    0    0    0  0.00000000000E+00  0.00000000000E+00  0.45593999997E+02  0.45594000000E+02  0.51100000000E-03 0.  1.
         11   -1    0    0    0    0 -0.00000000000E+00 -0.00000000000E+00 -0.45593999997E+02  0.45594000000E+02  0.51100000000E-03 0. -1.
    9900012    2    1    2    0    0  0.17184727349E+02  0.39742982443E+02 -0.29670960795E+01  0.47787272279E+02  0.20000005631E+02 0.  0.
         12    1    1    2    0    0 -0.17184727349E+02 -0.39742982443E+02  0.29670960795E+01  0.43400727721E+02  0.00000000000E+00 0. -1.
         11    1    3    3    0    0  0.11816400303E+02  0.14136505550E+02 -0.87791302300E+01  0.20409341810E+02  0.51100000000E-03 0. -1.
        -11    1    3    3    0    0 -0.11055459918E+01  0.24580828367E+01  0.92473383570E+00  0.28494799701E+01  0.51100000000E-03 0.  1.
        -12    1    3    3    0    0  0.64738730376E+01  0.23148394057E+02  0.48873003148E+01  0.24528450499E+02  0.00000000000E+00 0.  1.
</event>
<event>
 7    1  0.4005571E-009  0.4778727E+02  0.7816164E-02  0.1312668E+00
        -11   -1    0    0    0    0  0.00000000000E+00  0.00000000000E+00  0.45593999997E+02  0.45594000000E+02  0.51100000000E-03 0. -1.
         11   -1    0    0    0    0 -0.00000000000E+00 -0.00000000000E+00 -0.45593999997E+02  0.45594000000E+02  0.51100000000E-03 0.  1.
    9900012    2    1    2    0    0 -0.24211116754E+02 -0.32431790514E+02 -0.15672393880E+02  0.47787272583E+02  0.20000007013E+02 0.  0.
         12    1    1    2    0    0  0.24211116754E+02  0.32431790514E+02  0.15672393880E+02  0.43400727417E+02  0.00000000000E+00 0. -1.
         11    1    3    3    0    0 -0.96594664096E+01 -0.12982844108E+02  0.83374703255E+00  0.16203538713E+02  0.51100000000E-03 0. -1.
        -11    1    3    3    0    0 -0.98305008780E+01 -0.16828831011E+02 -0.71088803761E+01  0.20745709947E+02  0.51100000000E-03 0.  1.
         12    1    3    3    0    0 -0.47211494664E+01 -0.26201153948E+01 -0.93972605364E+01  0.10838023923E+02  0.00000000000E+00 0. -1.
</event>
<event>
 7    1  0.4005571E-009  0.4778727E+02  0.7816164E-02  0.1312668E+00
        -11   -1    0    0    0    0  0.00000000000E+00  0.00000000000E+00  0.45593999997E+02  0.45594000000E+02  0.51100000000E-03 0.  1.
         11   -1    0    0    0    0 -0.00000000000E+00 -0.00000000000E+00 -0.45593999997E+02  0.45594000000E+02  0.51100000000E-03 0. -1.
    9900012    2    1    2    0    0 -0.92925015553E+00 -0.99009474425E+01  0.42246079311E+02  0.47787268633E+02  0.19999989003E+02 0.  0.
         12    1    1    2    0    0  0.92925015553E+00  0.99009474425E+01 -0.42246079311E+02  0.43400731367E+02  0.00000000000E+00 0. -1.
         11    1    3    3    0    0  0.47220774379E+01 -0.20800922530E+01  0.42902339735E+01  0.67105072028E+01  0.51100000000E-03 0. -1.
        -11    1    3    3    0    0 -0.32547336253E+01 -0.82923813785E+01  0.11688946837E+02  0.14696542393E+02  0.51100000000E-03 0.  1.
         12    1    3    3    0    0 -0.23965939681E+01  0.47152618897E+00  0.26266898500E+02  0.26380219037E+02  0.00000000000E+00 0. -1.
</event>
<event>
 7    1  0.4005571E-009  0.4778727E+02  0.7816164E-02  0.1312668E+00
        -11   -1    0    0    0    0  0.00000000000E+00  0.00000000000E+00  0.45593999997E+02  0.45594000000E+02  0.51100000000E-03 0. -1.
         11   -1    0    0    0    0 -0.00000000000E+00 -0.00000000000E+00 -0.45593999997E+02  0.45594000000E+02  0.51100000000E-03 0.  1.
    9900012    2    1    2    0    0 -0.39734285468E+01  0.30317730967E+02 -0.30800492340E+02  0.47787271045E+02  0.20000000004E+02 0.  0.
         12    1    1    2    0    0  0.39734285468E+01 -0.30317730967E+02  0.30800492340E+02  0.43400728955E+02  0.00000000000E+00 0. -1.
         11    1    3    3    0    0  0.68004902304E+00  0.73224934092E+01 -0.12199796968E+01  0.74545105221E+01  0.51100000000E-03 0. -1.
        -11    1    3    3    0    0 -0.38745361245E+01  0.13556512264E+02 -0.67826356076E+01  0.15645932410E+02  0.51100000000E-03 0.  1.
        -12    1    3    3    0    0 -0.77894144537E+00  0.94387252941E+01 -0.22797877036E+02  0.24686828113E+02  0.00000000000E+00 0.  1.
</event>
<event>
 7    1  0.4005571E-009  0.4778728E+02  0.7816164E-02  0.1312668E+00
        -11   -1    0    0    0    0  0.00000000000E+00  0.00000000000E+00  0.45593999997E+02  0.45594000000E+02  0.51100000000E-03 0. -1.
         11   -1    0    0    0    0 -0.00000000000E+00 -0.00000000000E+00 -0.45593999997E+02  0.45594000000E+02  0.51100000000E-03 0.  1.
    9900012    2    1    2    0    0 -0.17069851390E+02 -0.34818468690E+02  0.19491457686E+02  0.47787279832E+02  0.20000040066E+02 0.  0.
         12    1    1    2    0    0  0.17069851390E+02  0.34818468690E+02 -0.19491457686E+02  0.43400720168E+02  0.00000000000E+00 0. -1.
         11    1    3    3    0    0  0.87613009500E+00 -0.59777963543E+01  0.78069781350E+01  0.98717050735E+01  0.51100000000E-03 0. -1.
        -11    1    3    3    0    0 -0.11026092263E+02 -0.11668998910E+02  0.10862366553E+02  0.19383788421E+02  0.51100000000E-03 0.  1.
        -12    1    3    3    0    0 -0.69198892222E+01 -0.17171673425E+02  0.82211299801E+00  0.18531786337E+02  0.00000000000E+00 0.  1.
</event>
<event>
 7    1  0.4005571E-009  0.4778726E+02  0.7816164E-02  0.1312668E+00
        -11   -1    0    0    0    0  0.00000000000E+00  0.00000000000E+00  0.45593999997E+02  0.45594000000E+02  0.51100000000E-03 0.  1.
         11   -1    0    0    0    0 -0.00000000000E+00 -0.00000000000E+00 -0.45593999997E+02  0.45594000000E+02  0.51100000000E-03 0. -1.
    9900012    2    1    2    0    0 -0.19413154981E+01 -0.14899993635E+02  0.40716649764E+02  0.47787261709E+02  0.19999957436E+02 0.  0.
         12    1    1    2    0    0  0.19413154981E+01  0.14899993635E+02 -0.40716649764E+02  0.43400738291E+02  0.00000000000E+00 0. -1.
         11    1    3    3    0    0  0.30078471855E+01 -0.61773354164E+01  0.17209111395E+02  0.18529979299E+02  0.51100000000E-03 0. -1.
        -11    1    3    3    0    0 -0.47290028344E+01 -0.15818333069E+01  0.21156417819E+02  0.21736137642E+02  0.51100000000E-03 0.  1.
        -12    1    3    3    0    0 -0.22015984926E+00 -0.71408249120E+01  0.23511205501E+01  0.75211447682E+01  0.00000000000E+00 0.  1.
</event>
<event>
 7    1  0.4005571E-009  0.4778727E+02  0.7816164E-02  0.1312668E+00
        -11   -1    0    0    0    0  0.00000000000E+00  0.00000000000E+00  0.45593999997E+02  0.45594000000E+02  0.51100000000E-03 0.  1.
         11   -1    0    0    0    0 -0.00000000000E+00 -0.00000000000E+00 -0.45593999997E+02  0.45594000000E+02  0.51100000000E-03 0. -1.
    9900012    2    1    2    0    0 -0.42573634248E+02 -0.65678581529E+01  0.52888837339E+01  0.47787269764E+02  0.19999994164E+02 0.  0.
         12    1    1    2    0    0  0.42573634248E+02  0.65678581529E+01 -0.52888837339E+01  0.43400730236E+02  0.00000000000E+00 0. -1.
         11    1    3    3    0    0 -0.85992718078E+00 -0.42739494406E+00 -0.12533738870E+01  0.15789514104E+01  0.51100000000E-03 0. -1.
        -11    1    3    3    0    0 -0.18458321534E+02  0.49497403322E+01  0.72361156421E+01  0.20434552431E+02  0.51100000000E-03 0.  1.
        -12    1    3    3    0    0 -0.23255385533E+02 -0.11090203541E+02 -0.69385802118E+00  0.25773765923E+02  0.00000000000E+00 0.  1.
</event>
<event>
 7    1  0.4005571E-009  0.4778726E+02  0.7816164E-02  0.1312668E+00
        -11   -1    0    0    0    0  0.00000000000E+00  0.00000000000E+00  0.45593999997E+02  0.45594000000E+02  0.51100000000E-03 0.  1.
         11   -1    0    0    0    0 -0.00000000000E+00 -0.00000000000E+00 -0.45593999997E+02  0.45594000000E+02  0.51100000000E-03 0. -1.
    9900012    2    1    2    0    0 -0.36659449201E+02  0.12088675615E+02  0.19838678945E+02  0.47787257194E+02  0.19999936850E+02 0.  0.
         12    1    1    2    0    0  0.36659449201E+02 -0.12088675615E+02 -0.19838678945E+02  0.43400742806E+02  0.00000000000E+00 0. -1.
         11    1    3    3    0    0 -0.29072714525E+01  0.14360459270E+01  0.74706889508E+01  0.81440560450E+01  0.51100000000E-03 0. -1.
        -11    1    3    3    0    0 -0.15296716397E+02  0.78150884226E+01  0.12024132611E+02  0.20967711008E+02  0.51100000000E-03 0.  1.
        -12    1    3    3    0    0 -0.18455461351E+02  0.28375412659E+01  0.34385738266E+00  0.18675490141E+02  0.00000000000E+00 0.  1.
</event>
<event>
 7    1  0.4005571E-009  0.4778727E+02  0.7816164E-02  0.1312668E+00
        -11   -1    0    0    0    0  0.00000000000E+00  0.00000000000E+00  0.45593999997E+02  0.45594000000E+02  0.51100000000E-03 0. -1.
         11   -1    0    0    0    0 -0.00000000000E+00 -0.00000000000E+00 -0.45593999997E+02  0.45594000000E+02  0.51100000000E-03 0.  1.
    9900012    2    1    2    0    0 -0.27586367852E+02  0.27100144262E+02 -0.19702736773E+02  0.47787270206E+02  0.19999996177E+02 0.  0.
         12    1    1    2    0    0  0.27586367852E+02 -0.27100144262E+02  0.19702736773E+02  0.43400729794E+02  0.00000000000E+00 0. -1.
         11    1    3    3    0    0  0.26056787798E+00  0.13116928941E+01 -0.17098210234E+01  0.21706962157E+01  0.51100000000E-03 0. -1.
        -11    1    3    3    0    0  0.43438434018E+00  0.63426901026E+01  0.92828527462E+00  0.64249608018E+01  0.51100000000E-03 0.  1.
        -12    1    3    3    0    0 -0.28281320070E+02  0.19445761266E+02 -0.18921201024E+02  0.39191613188E+02  0.00000000000E+00 0.  1.
</event>
<event>
 7    1  0.4005571E-009  0.4778727E+02  0.7816164E-02  0.1312668E+00
        -11   -1    0    0    0    0  0.00000000000E+00  0.00000000000E+00  0.45593999997E+02  0.45594000000E+02  0.51100000000E-03 0. -1.
         11   -1    0    0    0    0 -0.00000000000E+00 -0.00000000000E+00 -0.45593999997E+02  0.45594000000E+02  0.51100000000E-03 0.  1.
    9900012    2    1    2    0    0  0.32821585249E+02 -0.43420527456E+01 -0.28062673393E+02  0.47787268229E+02  0.19999987163E+02 0.  0.
         12    1    1    2    0    0 -0.32821585249E+02  0.43420527456E+01  0.28062673393E+02  0.43400731771E+02  0.00000000000E+00 0. -1.
         11    1    3    3    0    0  0.87361169959E+01  0.31214577097E+01 -0.47862217090E+01  0.10438925084E+02  0.51100000000E-03 0. -1.
        -11    1    3    3    0    0 -0.11890933028E+00 -0.18203414536E+00 -0.76055485476E+01  0.76086559148E+01  0.51100000000E-03 0.  1.
        -12    1    3    3    0    0  0.24204377583E+02 -0.72814763099E+01 -0.15670903136E+02  0.29739687230E+02  0.00000000000E+00 0.  1.
</event>
<event>
 7    1  0.4005571E-009  0.4778727E+02  0.7816164E-02  0.1312668E+00
        -11   -1    0    0    0    0  0.00000000000E+00  0.00000000000E+00  0.45593999997E+02  0.45594000000E+02  0.51100000000E-03 0.  1.
         11   -1    0    0    0    0 -0.00000000000E+00 -0.00000000000E+00 -0.45593999997E+02  0.45594000000E+02  0.51100000000E-03 0. -1.
    9900012    2    1    2    0    0 -0.64754740148E+01 -0.34151358431E+02  0.25987998970E+02  0.47787272622E+02  0.20000007194E+02 0.  0.
         12    1    1    2    0    0  0.64754740148E+01  0.34151358431E+02 -0.25987998970E+02  0.43400727378E+02  0.00000000000E+00 0. -1.
         11    1    3    3    0    0  0.40392827182E+01 -0.13647814358E+02  0.12051375310E+02  0.18649779858E+02  0.51100000000E-03 0. -1.
        -11    1    3    3    0    0 -0.59971738919E+01 -0.18738341759E+01  0.47717865950E+01  0.78896956074E+01  0.51100000000E-03 0.  1.
         12    1    3    3    0    0 -0.45175828410E+01 -0.18629709897E+02  0.91648370657E+01  0.21247797157E+02  0.00000000000E+00 0. -1.
</event>
<event>
 7    1  0.4005571E-009  0.4778726E+02  0.7816164E-02  0.1312668E+00
        -11   -1    0    0    0    0  0.00000000000E+00  0.00000000000E+00  0.45593999997E+02  0.45594000000E+02  0.51100000000E-03 0. -1.
         11   -1    0    0    0    0 -0.00000000000E+00 -0.00000000000E+00 -0.45593999997E+02  0.45594000000E+02  0.51100000000E-03 0.  1.
    9900012    2    1    2    0    0 -0.33514710002E+02  0.24275147652E+02  0.13080725409E+02  0.47787263172E+02  0.19999964105E+02 0.  0.
         12    1    1    2    0    0  0.33514710002E+02 -0.24275147652E+02 -0.13080725409E+02  0.43400736828E+02  0.00000000000E+00 0. -1.
         11    1    3    3    0    0 -0.75736084174E+01  0.61808655693E+01 -0.98835090130E+00  0.98254506976E+01  0.51100000000E-03 0. -1.
        -11    1    3    3    0    0 -0.13751622542E+02  0.48253639895E+00  0.42643409190E+01  0.14405713021E+02  0.51100000000E-03 0.  1.
         12    1    3    3    0    0 -0.12189479043E+02  0.17611745683E+02  0.98047353917E+01  0.23556099453E+02  0.00000000000E+00 0. -1.
</event>
<event>
 7    1  0.4005571E-009  0.4778725E+02  0.7816164E-02  0.1312668E+00
        -11   -1    0    0    0    0  0.00000000000E+00  0.00000000000E+00  0.45593999997E+02  0.45594000000E+02  0.51100000000E-03 0. -1.
         11   -1    0    0    0    0 -0.00000000000E+00 -0.00000000000E+00 -0.45593999997E+02  0.45594000000E+02  0.51100000000E-03 0.  1.
    9900012    2    1    2    0    0  0.27521046985E+02 -0.32898256934E+02 -0.66273441381E+01  0.47787250850E+02  0.19999907926E+02 0.  0.
         12    1    1    2    0    0 -0.27521046985E+02  0.32898256934E+02  0.66273441381E+01  0.43400749150E+02  0.00000000000E+00 0. -1.
         11    1    3    3    0    0  0.76717251153E+01 -0.99777138246E+01 -0.99782872797E+01  0.16061642404E+02  0.51100000000E-03 0. -1.
        -11    1    3    3    0    0  0.25744513807E+01 -0.28166270995E+01 -0.25250843705E+01  0.45757228356E+01  0.51100000000E-03 0.  1.
        -12    1    3    3    0    0  0.17274870489E+02 -0.20103916010E+02  0.58760275122E+01  0.27149885611E+02  0.00000000000E+00 0.  1.
</event>
<event>
 7    1  0.4005571E-009  0.4778727E+02  0.7816164E-02  0.1312668E+00
        -11   -1    0    0    0    0  0.00000000000E+00  0.00000000000E+00  0.45593999997E+02  0.45594000000E+02  0.51100000000E-03 0.  1.
         11   -1    0    0    0    0 -0.00000000000E+00 -0.00000000000E+00 -0.45593999997E+02  0.45594000000E+02  0.51100000000E-03 0. -1.
    9900012    2    1    2    0    0  0.99717216605E+01 -0.17902304819E+02  0.38258270819E+02  0.47787273776E+02  0.20000012454E+02 0.  0.
         12    1    1    2    0    0 -0.99717216605E+01  0.17902304819E+02 -0.38258270819E+02  0.43400726224E+02  0.00000000000E+00 0. -1.
         11    1    3    3    0    0  0.37815615968E+01  0.17652159386E+01  0.76934714140E+01  0.87524681136E+01  0.51100000000E-03 0. -1.
        -11    1    3    3    0    0  0.51679888051E+01 -0.78123678124E+00  0.84402611477E+01  0.99275600074E+01  0.51100000000E-03 0.  1.
        -12    1    3    3    0    0  0.10221712586E+01 -0.18886283976E+02  0.22124538258E+02  0.29107245655E+02  0.00000000000E+00 0.  1.
</event>
<event>
 7    1  0.4005571E-009  0.4778727E+02  0.7816164E-02  0.1312668E+00
        -11   -1    0    0    0    0  0.00000000000E+00  0.00000000000E+00  0.45593999997E+02  0.45594000000E+02  0.51100000000E-03 0.  1.
         11   -1    0    0    0    0 -0.00000000000E+00 -0.00000000000E+00 -0.45593999997E+02  0.45594000000E+02  0.51100000000E-03 0. -1.
    9900012    2    1    2    0    0 -0.41903243688E+02  0.18654314045E-01  0.11302266337E+02  0.47787269546E+02  0.19999993170E+02 0.  0.
         12    1    1    2    0    0  0.41903243688E+02 -0.18654314045E-01 -0.11302266337E+02  0.43400730454E+02  0.00000000000E+00 0. -1.
         11    1    3    3    0    0 -0.89418251980E+01  0.51007640401E+01  0.47130976677E+01  0.11321983994E+02  0.51100000000E-03 0. -1.
        -11    1    3    3    0    0 -0.19534671122E+02 -0.29042015726E+01  0.10425729635E+02  0.22332344286E+02  0.51100000000E-03 0.  1.
         12    1    3    3    0    0 -0.13426747368E+02 -0.21779081535E+01 -0.38365609660E+01  0.14132941267E+02  0.00000000000E+00 0. -1.
</event>
<event>
 7    1  0.4005571E-009  0.4778727E+02  0.7816164E-02  0.1312668E+00
        -11   -1    0    0    0    0  0.00000000000E+00  0.00000000000E+00  0.45593999997E+02  0.45594000000E+02  0.51100000000E-03 0.  1.
         11   -1    0    0    0    0 -0.00000000000E+00 -0.00000000000E+00 -0.45593999997E+02  0.45594000000E+02  0.51100000000E-03 0. -1.
    9900012    2    1    2    0    0  0.42163194309E+02 -0.52177211256E+01  0.88692513630E+01  0.47787272036E+02  0.20000004519E+02 0.  0.
         12    1    1    2    0    0 -0.42163194309E+02  0.52177211256E+01 -0.88692513630E+01  0.43400727964E+02  0.00000000000E+00 0. -1.
         11    1    3    3    0    0  0.12090953630E+02 -0.30340454685E+00  0.80126078950E+01  0.14508104616E+02  0.51100000000E-03 0. -1.
        -11    1    3    3    0    0  0.15247287170E+02 -0.63048703847E+01  0.59539442511E+01  0.17540826920E+02  0.51100000000E-03 0.  1.
         12    1    3    3    0    0  0.14824953509E+02  0.13905538059E+01 -0.50973007830E+01  0.15738340500E+02  0.00000000000E+00 0. -1.
</event>
<event>
 7    1  0.4005571E-009  0.4778727E+02  0.7816164E-02  0.1312668E+00
        -11   -1    0    0    0    0  0.00000000000E+00  0.00000000000E+00  0.45593999997E+02  0.45594000000E+02  0.51100000000E-03 0.  1.
         11   -1    0    0    0    0 -0.00000000000E+00 -0.00000000000E+00 -0.45593999997E+02  0.45594000000E+02  0.51100000000E-03 0. -1.
    9900012    2    1    2    0    0  0.15442389435E+02 -0.88104981772E+01  0.39592053787E+02  0.47787274284E+02  0.20000014771E+02 0.  0.
         12    1    1    2    0    0 -0.15442389435E+02  0.88104981772E+01 -0.39592053787E+02  0.43400725716E+02  0.00000000000E+00 0. -1.
         11    1    3    3    0    0  0.13059136740E+01  0.32141901999E+01  0.20186025754E+01  0.40138741614E+01  0.51100000000E-03 0. -1.
        -11    1    3    3    0    0  0.85514391963E+01 -0.10708480491E+01  0.80546457701E+01  0.11796234425E+02  0.51100000000E-03 0.  1.
         12    1    3    3    0    0  0.55850365651E+01 -0.10953840328E+02  0.29518805441E+02  0.31977165698E+02  0.00000000000E+00 0. -1.
</event>
<event>
 7    1  0.4005571E-009  0.4778727E+02  0.7816164E-02  0.1312668E+00
        -11   -1    0    0    0    0  0.00000000000E+00  0.00000000000E+00  0.45593999997E+02  0.45594000000E+02  0.51100000000E-03 0.  1.
         11   -1    0    0    0    0 -0.00000000000E+00 -0.00000000000E+00 -0.45593999997E+02  0.45594000000E+02  0.51100000000E-03 0. -1.
    9900012    2    1    2    0    0 -0.32054801221E+02 -0.76454226581E+01  0.28242883017E+02  0.47787271780E+02  0.20000003352E+02 0.  0.
         12    1    1    2    0    0  0.32054801221E+02  0.76454226581E+01 -0.28242883017E+02  0.43400728220E+02  0.00000000000E+00 0. -1.
         11    1    3    3    0    0 -0.24761359895E+01 -0.35079777278E+01  0.22340966194E+01  0.48402835809E+01  0.51100000000E-03 0. -1.
        -11    1    3    3    0    0 -0.97104362316E+01 -0.35347573539E+01  0.19433743869E+02  0.22010394871E+02  0.51100000000E-03 0.  1.
         12    1    3    3    0    0 -0.19868229000E+02 -0.60268757639E+00  0.65750425283E+01  0.20936593327E+02  0.00000000000E+00 0. -1.
</event>
<event>
 7    1  0.4005571E-009  0.4778727E+02  0.7816164E-02  0.1312668E+00
        -11   -1    0    0    0    0  0.00000000000E+00  0.00000000000E+00  0.45593999997E+02  0.45594000000E+02  0.51100000000E-03 0. -1.
         11   -1    0    0    0    0 -0.00000000000E+00 -0.00000000000E+00 -0.45593999997E+02  0.45594000000E+02  0.51100000000E-03 0.  1.
    9900012    2    1    2    0    0 -0.19524905197E+02 -0.19452406190E+02 -0.33526188165E+02  0.47787270485E+02  0.19999997451E+02 0.  0.
         12    1    1    2    0    0  0.19524905197E+02  0.19452406190E+02  0.33526188165E+02  0.43400729515E+02  0.00000000000E+00 0. -1.
         11    1    3    3    0    0 -0.12892198442E+01  0.28701804117E+01 -0.11088835693E+01  0.33361124732E+01  0.51100000000E-03 0. -1.
        -11    1    3    3    0    0 -0.31996801461E+01 -0.10424067405E+01 -0.76029844272E+00  0.34500172222E+01  0.51100000000E-03 0.  1.
        -12    1    3    3    0    0 -0.15036005206E+02 -0.21280179861E+02 -0.31657006153E+02  0.41001140790E+02  0.00000000000E+00 0.  1.
</event>
<event>
 7    1  0.4005571E-009  0.4778727E+02  0.7816164E-02  0.1312668E+00
        -11   -1    0    0    0    0  0.00000000000E+00  0.00000000000E+00  0.45593999997E+02  0.45594000000E+02  0.51100000000E-03 0.  1.
         11   -1    0    0    0    0 -0.00000000000E+00 -0.00000000000E+00 -0.45593999997E+02  0.45594000000E+02  0.51100000000E-03 0. -1.
    9900012    2    1    2    0    0 -0.32120315674E+02  0.12370857765E+02  0.26436158362E+02  0.47787271092E+02  0.20000000215E+02 0.  0.
         12    1    1    2    0    0  0.32120315674E+02 -0.12370857765E+02 -0.26436158362E+02  0.43400728908E+02  0.00000000000E+00 0. -1.
         11    1    3    3    0    0 -0.14903114568E+02  0.25274304629E+01  0.40965909732E+01  0.15661187261E+02  0.51100000000E-03 0. -1.
        -11    1    3    3    0    0 -0.34954669467E+01 -0.18122038870E+01  0.73864464937E+00  0.40059915480E+01  0.51100000000E-03 0.  1.
        -12    1    3    3    0    0 -0.13721734159E+02  0.11655631189E+02  0.21600922740E+02  0.28120092282E+02  0.00000000000E+00 0.  1.
</event>
<event>
 7    1  0.4005571E-009  0.4778727E+02  0.7816164E-02  0.1312668E+00
        -11   -1    0    0    0    0  0.00000000000E+00  0.00000000000E+00  0.45593999997E+02  0.45594000000E+02  0.51100000000E-03 0. -1.
         11   -1    0    0    0    0 -0.00000000000E+00 -0.00000000000E+00 -0.45593999997E+02  0.45594000000E+02  0.51100000000E-03 0.  1.
    9900012    2    1    2    0    0 -0.26503043120E+02 -0.15101109972E+02 -0.30873422860E+02  0.47787273554E+02  0.20000011440E+02 0.  0.
         12    1    1    2    0    0  0.26503043120E+02  0.15101109972E+02  0.30873422860E+02  0.43400726446E+02  0.00000000000E+00 0. -1.
         11    1    3    3    0    0 -0.28337959816E+01  0.14123702956E+01 -0.95936583690E+01  0.10102646717E+02  0.51100000000E-03 0. -1.
        -11    1    3    3    0    0 -0.35219221766E+01  0.13059914451E+01 -0.49671089840E+01  0.62274972014E+01  0.51100000000E-03 0.  1.
        -12    1    3    3    0    0 -0.20147324962E+02 -0.17819471712E+02 -0.16312655507E+02  0.31457129636E+02  0.00000000000E+00 0.  1.
</event>
<event>
 7    1  0.4005571E-009  0.4778727E+02  0.7816164E-02  0.1312668E+00
        -11   -1    0    0    0    0  0.00000000000E+00  0.00000000000E+00  0.45593999997E+02  0.45594000000E+02  0.51100000000E-03 0.  1.
         11   -1    0    0    0    0 -0.00000000000E+00 -0.00000000000E+00 -0.45593999997E+02  0.45594000000E+02  0.51100000000E-03 0. -1.
    9900012    2    1    2    0    0  0.22577750289E+02 -0.25647574078E+02  0.26759488771E+02  0.47787273008E+02  0.20000008951E+02 0.  0.
         12    1    1    2    0    0 -0.22577750289E+02  0.25647574078E+02 -0.26759488771E+02  0.43400726992E+02  0.00000000000E+00 0. -1.
         11    1    3    3    0    0  0.11448926688E+02 -0.48850574116E+01  0.95375836057E+01  0.15681428810E+02  0.51100000000E-03 0. -1.
        -11    1    3    3    0    0  0.12223340044E+02 -0.10076745432E+02  0.13253888827E+02  0.20654694615E+02  0.51100000000E-03 0.  1.
         12    1    3    3    0    0 -0.10945164430E+01 -0.10685771234E+02  0.39680163375E+01  0.11451149583E+02  0.00000000000E+00 0. -1.
</event>
<event>
 7    1  0.4005571E-009  0.4778727E+02  0.7816164E-02  0.1312668E+00
        -11   -1    0    0    0    0  0.00000000000E+00  0.00000000000E+00  0.45593999997E+02  0.45594000000E+02  0.51100000000E-03 0. -1.
         11   -1    0    0    0    0 -0.00000000000E+00 -0.00000000000E+00 -0.45593999997E+02  0.45594000000E+02  0.51100000000E-03 0.  1.
    9900012    2    1    2    0    0  0.41338897405E+02  0.65808281504E+01 -0.11463496376E+02  0.47787268589E+02  0.19999988806E+02 0.  0.
         12    1    1    2    0    0 -0.41338897405E+02 -0.65808281504E+01  0.11463496376E+02  0.43400731411E+02  0.00000000000E+00 0. -1.
         11    1    3    3    0    0  0.16750846182E+02 -0.35200173221E+01 -0.41867939878E+01  0.17621311356E+02  0.51100000000E-03 0. -1.
        -11    1    3    3    0    0 -0.56575845853E+00 -0.91555716942E-01 -0.25543069910E+01  0.26178138872E+01  0.51100000000E-03 0.  1.
        -12    1    3    3    0    0  0.25153809682E+02  0.10192401189E+02 -0.47223953970E+01  0.27548143346E+02  0.00000000000E+00 0.  1.
</event>
<event>
 7    1  0.4005571E-009  0.4778726E+02  0.7816164E-02  0.1312668E+00
        -11   -1    0    0    0    0  0.00000000000E+00  0.00000000000E+00  0.45593999997E+02  0.45594000000E+02  0.51100000000E-03 0. -1.
         11   -1    0    0    0    0 -0.00000000000E+00 -0.00000000000E+00 -0.45593999997E+02  0.45594000000E+02  0.51100000000E-03 0.  1.
    9900012    2    1    2    0    0  0.40225456400E+02  0.50950109376E+01 -0.15478294964E+02  0.47787261596E+02  0.19999956921E+02 0.  0.
         12    1    1    2    0    0 -0.40225456400E+02 -0.50950109376E+01  0.15478294964E+02  0.43400738404E+02  0.00000000000E+00 0. -1.
         11    1    3    3    0    0  0.12330110829E+02  0.13764951347E+01  0.31412517148E+01  0.12798196533E+02  0.51100000000E-03 0. -1.
        -11    1    3    3    0    0  0.11969043016E+02 -0.11281616949E+00 -0.29659083144E+01  0.12331558320E+02  0.51100000000E-03 0.  1.
         12    1    3    3    0    0  0.15926302555E+02  0.38313319723E+01 -0.15653638364E+02  0.22657506742E+02  0.00000000000E+00 0. -1.
</event>
<event>
 7    1  0.4005571E-009  0.4778727E+02  0.7816164E-02  0.1312668E+00
        -11   -1    0    0    0    0  0.00000000000E+00  0.00000000000E+00  0.45593999997E+02  0.45594000000E+02  0.51100000000E-03 0.  1.
         11   -1    0    0    0    0 -0.00000000000E+00 -0.00000000000E+00 -0.45593999997E+02  0.45594000000E+02  0.51100000000E-03 0. -1.
    9900012    2    1    2    0    0  0.20930627154E+02  0.20220705632E+02  0.32197133308E+02  0.47787268641E+02  0.19999989040E+02 0.  0.
         12    1    1    2    0    0 -0.20930627154E+02 -0.20220705632E+02 -0.32197133308E+02  0.43400731359E+02  0.00000000000E+00 0. -1.
         11    1    3    3    0    0  0.71468126065E+01 -0.83240193453E+00  0.15247086983E+02  0.16859522091E+02  0.51100000000E-03 0. -1.
        -11    1    3    3    0    0  0.22630746584E+01  0.62395573737E+01  0.71535598108E+01  0.97584323207E+01  0.51100000000E-03 0.  1.
         12    1    3    3    0    0  0.11520739889E+02  0.14813550193E+02  0.97964865139E+01  0.21169314229E+02  0.00000000000E+00 0. -1.
</event>
<event>
 7    1  0.4005571E-009  0.4778727E+02  0.7816164E-02  0.1312668E+00
        -11   -1    0    0    0    0  0.00000000000E+00  0.00000000000E+00  0.45593999997E+02  0.45594000000E+02  0.51100000000E-03 0. -1.
         11   -1    0    0    0    0 -0.00000000000E+00 -0.00000000000E+00 -0.45593999997E+02  0.45594000000E+02  0.51100000000E-03 0.  1.
    9900012    2    1    2    0    0  0.68438281599E+01  0.31741303228E+02 -0.28797132834E+02  0.47787272195E+02  0.20000005248E+02 0.  0.
         12    1    1    2    0    0 -0.68438281599E+01 -0.31741303228E+02  0.28797132834E+02  0.43400727805E+02  0.00000000000E+00 0. -1.
         11    1    3    3    0    0 -0.32727660128E+00 -0.63959976480E+00 -0.40886363864E+01  0.41512824035E+01  0.51100000000E-03 0. -1.
        -11    1    3    3    0    0  0.99144203228E+00  0.77847063393E+01 -0.14118882364E+02  0.16153248886E+02  0.51100000000E-03 0.  1.
         12    1    3    3    0    0  0.61796627289E+01  0.24596196654E+02 -0.10589614083E+02  0.27482740906E+02  0.00000000000E+00 0. -1.
</event>
<event>
 7    1  0.4005571E-009  0.4778727E+02  0.7816164E-02  0.1312668E+00
        -11   -1    0    0    0    0  0.00000000000E+00  0.00000000000E+00  0.45593999997E+02  0.45594000000E+02  0.51100000000E-03 0. -1.
         11   -1    0    0    0    0 -0.00000000000E+00 -0.00000000000E+00 -0.45593999997E+02  0.45594000000E+02  0.51100000000E-03 0.  1.
    9900012    2    1    2    0    0  0.16754045347E+02  0.34879545215E+02 -0.19655603731E+02  0.47787268809E+02  0.19999989807E+02 0.  0.
         12    1    1    2    0    0 -0.16754045347E+02 -0.34879545215E+02  0.19655603731E+02  0.43400731191E+02  0.00000000000E+00 0. -1.
         11    1    3    3    0    0  0.12042922565E+02  0.17849336614E+02 -0.82879727065E+01  0.23072089054E+02  0.51100000000E-03 0. -1.
        -11    1    3    3    0    0  0.10574409728E+01  0.18076484350E+02 -0.88326816045E+01  0.20146804522E+02  0.51100000000E-03 0.  1.
         12    1    3    3    0    0  0.36536818091E+01 -0.10462757488E+01 -0.25349494203E+01  0.45683752329E+01  0.00000000000E+00 0. -1.
</event>
<event>
 7    1  0.4005571E-009  0.4778727E+02  0.7816164E-02  0.1312668E+00
        -11   -1    0    0    0    0  0.00000000000E+00  0.00000000000E+00  0.45593999997E+02  0.45594000000E+02  0.51100000000E-03 0.  1.
         11   -1    0    0    0    0 -0.00000000000E+00 -0.00000000000E+00 -0.45593999997E+02  0.45594000000E+02  0.51100000000E-03 0. -1.
    9900012    2    1    2    0    0  0.23297216462E+02  0.26821758732E+02  0.24929024854E+02  0.47787270553E+02  0.19999997760E+02 0.  0.
         12    1    1    2    0    0 -0.23297216462E+02 -0.26821758732E+02 -0.24929024854E+02  0.43400729447E+02  0.00000000000E+00 0. -1.
         11    1    3    3    0    0 -0.27211870456E+00  0.22816937926E+01  0.38505601058E+01  0.44840816832E+01  0.51100000000E-03 0. -1.
        -11    1    3    3    0    0  0.45093520997E+01  0.87534160365E+01  0.14790051193E+02  0.17768009545E+02  0.51100000000E-03 0.  1.
        -12    1    3    3    0    0  0.19059983067E+02  0.15786648903E+02  0.62884135556E+01  0.25535179324E+02  0.00000000000E+00 0.  1.
</event>
<event>
 7    1  0.4005571E-009  0.4778727E+02  0.7816164E-02  0.1312668E+00
        -11   -1    0    0    0    0  0.00000000000E+00  0.00000000000E+00  0.45593999997E+02  0.45594000000E+02  0.51100000000E-03 0. -1.
         11   -1    0    0    0    0 -0.00000000000E+00 -0.00000000000E+00 -0.45593999997E+02  0.45594000000E+02  0.51100000000E-03 0.  1.
    9900012    2    1    2    0    0 -0.10970392268E+02 -0.28816858654E+02 -0.30542801321E+02  0.47787267728E+02  0.19999984880E+02 0.  0.
         12    1    1    2    0    0  0.10970392268E+02  0.28816858654E+02  0.30542801321E+02  0.43400732272E+02  0.00000000000E+00 0. -1.
         11    1    3    3    0    0 -0.53440292985E+01 -0.11216897615E+02 -0.17817649849E+02  0.21722018499E+02  0.51100000000E-03 0. -1.
        -11    1    3    3    0    0 -0.98844667457E+01 -0.13357947173E+02 -0.81308445085E+01  0.18499947789E+02  0.51100000000E-03 0.  1.
         12    1    3    3    0    0  0.42581037765E+01 -0.42420138661E+01 -0.45943069628E+01  0.75653014402E+01  0.00000000000E+00 0. -1.
</event>
<event>
 7    1  0.4005571E-009  0.4778728E+02  0.7816164E-02  0.1312668E+00
        -11   -1    0    0    0    0  0.00000000000E+00  0.00000000000E+00  0.45593999997E+02  0.45594000000E+02  0.51100000000E-03 0. -1.
         11   -1    0    0    0    0 -0.00000000000E+00 -0.00000000000E+00 -0.45593999997E+02  0.45594000000E+02  0.51100000000E-03 0.  1.
    9900012    2    1    2    0    0 -0.36250904366E+02  0.14874449985E+02 -0.18661320774E+02  0.47787283154E+02  0.20000055213E+02 0.  0.
         12    1    1    2    0    0  0.36250904366E+02 -0.14874449985E+02  0.18661320774E+02  0.43400716846E+02  0.00000000000E+00 0. -1.
         11    1    3    3    0    0 -0.46118823548E+01  0.14906643786E+01 -0.73485514982E+01  0.88029965652E+01  0.51100000000E-03 0. -1.
        -11    1    3    3    0    0 -0.13056033966E+02 -0.49330293052E+00 -0.85809651198E+01  0.15631261412E+02  0.51100000000E-03 0.  1.
        -12    1    3    3    0    0 -0.18582988045E+02  0.13877088537E+02 -0.27318041566E+01  0.23353025177E+02  0.00000000000E+00 0.  1.
</event>
<event>
 7    1  0.4005571E-009  0.4778727E+02  0.7816164E-02  0.1312668E+00
        -11   -1    0    0    0    0  0.00000000000E+00  0.00000000000E+00  0.45593999997E+02  0.45594000000E+02  0.51100000000E-03 0.  1.
         11   -1    0    0    0    0 -0.00000000000E+00 -0.00000000000E+00 -0.45593999997E+02  0.45594000000E+02  0.51100000000E-03 0. -1.
    9900012    2    1    2    0    0 -0.19553812525E+02 -0.22570745078E+02  0.31493382239E+02  0.47787271406E+02  0.20000001650E+02 0.  0.
         12    1    1    2    0    0  0.19553812525E+02  0.22570745078E+02 -0.31493382239E+02  0.43400728594E+02  0.00000000000E+00 0. -1.
         11    1    3    3    0    0  0.21007433566E+00  0.10012006990E+01  0.60901676606E+01  0.61754899774E+01  0.51100000000E-03 0. -1.
        -11    1    3    3    0    0  0.85041023763E+00 -0.19619656388E+01 -0.36145284335E+00  0.21686759000E+01  0.51100000000E-03 0.  1.
        -12    1    3    3    0    0 -0.20614297098E+02 -0.21609980138E+02  0.25764667421E+02  0.39443105529E+02  0.00000000000E+00 0.  1.
</event>
<event>
 7    1  0.4005571E-009  0.4778726E+02  0.7816164E-02  0.1312668E+00
        -11   -1    0    0    0    0  0.00000000000E+00  0.00000000000E+00  0.45593999997E+02  0.45594000000E+02  0.51100000000E-03 0. -1.
         11   -1    0    0    0    0 -0.00000000000E+00 -0.00000000000E+00 -0.45593999997E+02  0.45594000000E+02  0.51100000000E-03 0.  1.
    9900012    2    1    2    0    0  0.20991488568E+02 -0.29045232378E+02 -0.24481751746E+02  0.47787259399E+02  0.19999946903E+02 0.  0.
         12    1    1    2    0    0 -0.20991488568E+02  0.29045232378E+02  0.24481751746E+02  0.43400740601E+02  0.00000000000E+00 0. -1.
         11    1    3    3    0    0  0.32562616461E+01 -0.65719190615E+01 -0.12221787661E+02  0.14253611962E+02  0.51100000000E-03 0. -1.
        -11    1    3    3    0    0  0.17983958419E+01 -0.46888754457E+01 -0.77444398852E+01  0.92301749683E+01  0.51100000000E-03 0.  1.
         12    1    3    3    0    0  0.15936831080E+02 -0.17784437871E+02 -0.45155241996E+01  0.24303472469E+02  0.00000000000E+00 0. -1.
</event>
<event>
 7    1  0.4005571E-009  0.4778727E+02  0.7816164E-02  0.1312668E+00
        -11   -1    0    0    0    0  0.00000000000E+00  0.00000000000E+00  0.45593999997E+02  0.45594000000E+02  0.51100000000E-03 0.  1.
         11   -1    0    0    0    0 -0.00000000000E+00 -0.00000000000E+00 -0.45593999997E+02  0.45594000000E+02  0.51100000000E-03 0. -1.
    9900012    2    1    2    0    0 -0.86985448719E+01 -0.95966385485E+01  0.41422980883E+02  0.47787268445E+02  0.19999988146E+02 0.  0.
         12    1    1    2    0    0  0.86985448719E+01  0.95966385485E+01 -0.41422980883E+02  0.43400731555E+02  0.00000000000E+00 0. -1.
         11    1    3    3    0    0 -0.41512277145E+01 -0.12766250971E+01  0.38762965036E+01  0.58213519066E+01  0.51100000000E-03 0. -1.
        -11    1    3    3    0    0 -0.38351529160E+01  0.44306635775E+01  0.97399372886E+01  0.11366862200E+02  0.51100000000E-03 0.  1.
         12    1    3    3    0    0 -0.71216424138E+00 -0.12750677029E+02  0.27806747091E+02  0.30599054338E+02  0.00000000000E+00 0. -1.
</event>
<event>
 7    1  0.4005571E-009  0.4778727E+02  0.7816164E-02  0.1312668E+00
        -11   -1    0    0    0    0  0.00000000000E+00  0.00000000000E+00  0.45593999997E+02  0.45594000000E+02  0.51100000000E-03 0.  1.
         11   -1    0    0    0    0 -0.00000000000E+00 -0.00000000000E+00 -0.45593999997E+02  0.45594000000E+02  0.51100000000E-03 0. -1.
    9900012    2    1    2    0    0  0.24286011073E+02  0.16215577703E+02  0.32107131030E+02  0.47787272390E+02  0.20000006137E+02 0.  0.
         12    1    1    2    0    0 -0.24286011073E+02 -0.16215577703E+02 -0.32107131030E+02  0.43400727610E+02  0.00000000000E+00 0. -1.
         11    1    3    3    0    0 -0.85239362854E+00  0.21805281918E+01 -0.13364405351E-01  0.23412511531E+01  0.51100000000E-03 0. -1.
        -11    1    3    3    0    0  0.10000530395E+02  0.11223493019E+02  0.85545565974E+01  0.17296179999E+02  0.51100000000E-03 0.  1.
         12    1    3    3    0    0  0.15137874307E+02  0.28115564927E+01  0.23565938838E+02  0.28149841238E+02  0.00000000000E+00 0. -1.
</event>
