<event>
 7    1  0.2945316E-011  0.5052887E+02  0.7816164E-02  0.1300439E+00
        -11   -1    0    0    0    0  0.00000000000E+00  0.00000000000E+00  0.45593999997E+02  0.45594000000E+02  0.51100000000E-03 0.  1.
         11   -1    0    0    0    0 -0.00000000000E+00 -0.00000000000E+00 -0.45593999997E+02  0.45594000000E+02  0.51100000000E-03 0. -1.
    9900012    2    1    2    0    0 -0.19182935345E+02  0.21771976884E+02 -0.28480879196E+02  0.50528874755E+02  0.30000045305E+02 0.  0.
        -12    1    1    2    0    0  0.19182935345E+02 -0.21771976884E+02  0.28480879196E+02  0.40659125245E+02  0.00000000000E+00 0.  1.
         11    1    3    3    0    0 -0.56580381189E+01  0.27686800560E+01 -0.17662073108E+02  0.18751741555E+02  0.51100000000E-03 0. -1.
        -11    1    3    3    0    0 -0.59928406290E+01  0.69066424064E+01 -0.14423936252E+02  0.17078225475E+02  0.51100000000E-03 0.  1.
        -12    1    3    3    0    0 -0.75320565974E+01  0.12096654422E+02  0.36051301637E+01  0.14698907724E+02  0.00000000000E+00 0.  1.
</event>
<event>
 7    1  0.2945316E-011  0.5052886E+02  0.7816164E-02  0.1300439E+00
        -11   -1    0    0    0    0  0.00000000000E+00  0.00000000000E+00  0.45593999997E+02  0.45594000000E+02  0.51100000000E-03 0. -1.
         11   -1    0    0    0    0 -0.00000000000E+00 -0.00000000000E+00 -0.45593999997E+02  0.45594000000E+02  0.51100000000E-03 0.  1.
    9900012    2    1    2    0    0  0.28292098560E+02 -0.62017084812E+01  0.28535277102E+02  0.50528855047E+02  0.29999985400E+02 0.  0.
        -12    1    1    2    0    0 -0.28292098560E+02  0.62017084812E+01 -0.28535277102E+02  0.40659144953E+02  0.00000000000E+00 0.  1.
         11    1    3    3    0    0  0.62299944886E+01  0.47613011118E+01 -0.13641356983E+01  0.79588746736E+01  0.51100000000E-03 0.  1.
        -11    1    3    3    0    0  0.11037948986E+02  0.34997060521E+01  0.78530134274E+01  0.13991214401E+02  0.51100000000E-03 0. -1.
         12    1    3    3    0    0  0.11024155086E+02 -0.14462715645E+02  0.22046399373E+02  0.28578765972E+02  0.00000000000E+00 0. -1.
</event>
<event>
 7    1  0.2945316E-011  0.5052886E+02  0.7816164E-02  0.1300439E+00
        -11   -1    0    0    0    0  0.00000000000E+00  0.00000000000E+00  0.45593999997E+02  0.45594000000E+02  0.51100000000E-03 0.  1.
         11   -1    0    0    0    0 -0.00000000000E+00 -0.00000000000E+00 -0.45593999997E+02  0.45594000000E+02  0.51100000000E-03 0. -1.
    9900012    2    1    2    0    0 -0.90786960949E+01 -0.38820142828E+02 -0.79837006645E+01  0.50528859720E+02  0.29999999606E+02 0.  0.
        -12    1    1    2    0    0  0.90786960949E+01  0.38820142828E+02  0.79837006645E+01  0.40659140280E+02  0.00000000000E+00 0.  1.
         11    1    3    3    0    0  0.20049980794E+01 -0.21625204637E+01  0.38280905044E+01  0.48322654341E+01  0.51100000000E-03 0. -1.
        -11    1    3    3    0    0 -0.46883928110E+01  0.19000716102E+01 -0.14141276961E+01  0.52527189793E+01  0.51100000000E-03 0.  1.
         12    1    3    3    0    0 -0.63953013634E+01 -0.38557693974E+02 -0.10397663473E+02  0.40443875307E+02  0.00000000000E+00 0. -1.
</event>
<event>
 7    1  0.2945316E-011  0.5052886E+02  0.7816164E-02  0.1300439E+00
        -11   -1    0    0    0    0  0.00000000000E+00  0.00000000000E+00  0.45593999997E+02  0.45594000000E+02  0.51100000000E-03 0. -1.
         11   -1    0    0    0    0 -0.00000000000E+00 -0.00000000000E+00 -0.45593999997E+02  0.45594000000E+02  0.51100000000E-03 0.  1.
    9900012    2    1    2    0    0 -0.17353223814E+02 -0.26884383681E+02  0.25085084290E+02  0.50528856914E+02  0.29999991076E+02 0.  0.
        -12    1    1    2    0    0  0.17353223814E+02  0.26884383681E+02 -0.25085084290E+02  0.40659143086E+02  0.00000000000E+00 0.  1.
         11    1    3    3    0    0 -0.19631423949E+01 -0.16766122124E+02 -0.25349715150E+01  0.17069940245E+02  0.51100000000E-03 0. -1.
        -11    1    3    3    0    0 -0.35669223444E+01 -0.42329238785E+01  0.63689814155E+01  0.84382761334E+01  0.51100000000E-03 0.  1.
         12    1    3    3    0    0 -0.11823159075E+02 -0.58853376788E+01  0.21251074389E+02  0.25020640535E+02  0.00000000000E+00 0. -1.
</event>
<event>
 7    1  0.2945316E-011  0.5052889E+02  0.7816164E-02  0.1300439E+00
        -11   -1    0    0    0    0  0.00000000000E+00  0.00000000000E+00  0.45593999997E+02  0.45594000000E+02  0.51100000000E-03 0.  1.
         11   -1    0    0    0    0 -0.00000000000E+00 -0.00000000000E+00 -0.45593999997E+02  0.45594000000E+02  0.51100000000E-03 0. -1.
    9900012    2    1    2    0    0 -0.45401297599E+01  0.80727627282E+01 -0.39590165911E+02  0.50528886469E+02  0.30000080911E+02 0.  0.
        -12    1    1    2    0    0  0.45401297599E+01 -0.80727627282E+01  0.39590165911E+02  0.40659113531E+02  0.00000000000E+00 0.  1.
         11    1    3    3    0    0  0.25877486565E+01 -0.20884331603E+01 -0.73230723180E+01  0.80427224625E+01  0.51100000000E-03 0. -1.
        -11    1    3    3    0    0 -0.47144533050E+01 -0.78635987536E+01 -0.80494317834E+01  0.12200639640E+02  0.51100000000E-03 0.  1.
         12    1    3    3    0    0 -0.24134251114E+01  0.18024794642E+02 -0.24217661809E+02  0.30285524367E+02  0.00000000000E+00 0. -1.
</event>
<event>
 7    1  0.2945316E-011  0.5052886E+02  0.7816164E-02  0.1300439E+00
        -11   -1    0    0    0    0  0.00000000000E+00  0.00000000000E+00  0.45593999997E+02  0.45594000000E+02  0.51100000000E-03 0.  1.
         11   -1    0    0    0    0 -0.00000000000E+00 -0.00000000000E+00 -0.45593999997E+02  0.45594000000E+02  0.51100000000E-03 0. -1.
    9900012    2    1    2    0    0 -0.29444117196E+02  0.51493786939E+01 -0.27562536929E+02  0.50528861048E+02  0.30000003642E+02 0.  0.
        -12    1    1    2    0    0  0.29444117196E+02 -0.51493786939E+01  0.27562536929E+02  0.40659138952E+02  0.00000000000E+00 0.  1.
         11    1    3    3    0    0 -0.15928668087E+02  0.86373746099E+00 -0.25270343113E+02  0.29884088588E+02  0.51100000000E-03 0. -1.
        -11    1    3    3    0    0  0.10735050025E+01 -0.11043545369E+01 -0.46644075754E+01  0.49120983524E+01  0.51100000000E-03 0.  1.
        -12    1    3    3    0    0 -0.14588954111E+02  0.53899957698E+01  0.23722137596E+01  0.15732674108E+02  0.00000000000E+00 0.  1.
</event>
<event>
 7    1  0.2945316E-011  0.5052886E+02  0.7816164E-02  0.1300439E+00
        -11   -1    0    0    0    0  0.00000000000E+00  0.00000000000E+00  0.45593999997E+02  0.45594000000E+02  0.51100000000E-03 0.  1.
         11   -1    0    0    0    0 -0.00000000000E+00 -0.00000000000E+00 -0.45593999997E+02  0.45594000000E+02  0.51100000000E-03 0. -1.
    9900012    2    1    2    0    0  0.35035935214E+02  0.15452999321E+02 -0.13669449197E+02  0.50528858522E+02  0.29999995965E+02 0.  0.
        -12    1    1    2    0    0 -0.35035935214E+02 -0.15452999321E+02  0.13669449197E+02  0.40659141478E+02  0.00000000000E+00 0.  1.
         11    1    3    3    0    0 -0.11713173900E+01  0.91412104080E+00 -0.13323403212E+01  0.19956785056E+01  0.51100000000E-03 0. -1.
        -11    1    3    3    0    0  0.36938790283E+01 -0.28247279765E+01 -0.10666371528E+02  0.11635949134E+02  0.51100000000E-03 0.  1.
         12    1    3    3    0    0  0.32513373576E+02  0.17363606257E+02 -0.16707373477E+01  0.36897230883E+02  0.00000000000E+00 0. -1.
</event>
<event>
 7    1  0.2945316E-011  0.5052887E+02  0.7816164E-02  0.1300439E+00
        -11   -1    0    0    0    0  0.00000000000E+00  0.00000000000E+00  0.45593999997E+02  0.45594000000E+02  0.51100000000E-03 0.  1.
         11   -1    0    0    0    0 -0.00000000000E+00 -0.00000000000E+00 -0.45593999997E+02  0.45594000000E+02  0.51100000000E-03 0. -1.
    9900012    2    1    2    0    0  0.26654701043E+02 -0.27086562900E+02  0.14457180289E+02  0.50528867700E+02  0.30000023862E+02 0.  0.
        -12    1    1    2    0    0 -0.26654701043E+02  0.27086562900E+02 -0.14457180289E+02  0.40659132300E+02  0.00000000000E+00 0.  1.
         11    1    3    3    0    0 -0.18251891941E+01  0.19351766634E+01 -0.19416230589E+01  0.32933455143E+01  0.51100000000E-03 0. -1.
        -11    1    3    3    0    0  0.55731737279E+01  0.75972369358E+00 -0.11917939508E+01  0.57495929051E+01  0.51100000000E-03 0.  1.
        -12    1    3    3    0    0  0.22906716509E+02 -0.29781463257E+02  0.17590597298E+02  0.41485929281E+02  0.00000000000E+00 0.  1.
</event>
<event>
 7    1  0.2945316E-011  0.5052886E+02  0.7816164E-02  0.1300439E+00
        -11   -1    0    0    0    0  0.00000000000E+00  0.00000000000E+00  0.45593999997E+02  0.45594000000E+02  0.51100000000E-03 0.  1.
         11   -1    0    0    0    0 -0.00000000000E+00 -0.00000000000E+00 -0.45593999997E+02  0.45594000000E+02  0.51100000000E-03 0. -1.
    9900012    2    1    2    0    0  0.33516559202E+02  0.20013709808E+02 -0.11369127190E+02  0.50528863584E+02  0.30000011350E+02 0.  0.
        -12    1    1    2    0    0 -0.33516559202E+02 -0.20013709808E+02  0.11369127190E+02  0.40659136416E+02  0.00000000000E+00 0.  1.
         11    1    3    3    0    0  0.25223556619E+02  0.56568559501E+01 -0.33415619296E+01  0.26065184905E+02  0.51100000000E-03 0. -1.
        -11    1    3    3    0    0 -0.43517420689E+01  0.16173280108E+01  0.34927891748E+00  0.46556852290E+01  0.51100000000E-03 0.  1.
         12    1    3    3    0    0  0.12644744653E+02  0.12739525847E+02 -0.83768441777E+01  0.19807993450E+02  0.00000000000E+00 0. -1.
</event>
<event>
 7    1  0.2945316E-011  0.5052888E+02  0.7816164E-02  0.1300439E+00
        -11   -1    0    0    0    0  0.00000000000E+00  0.00000000000E+00  0.45593999997E+02  0.45594000000E+02  0.51100000000E-03 0.  1.
         11   -1    0    0    0    0 -0.00000000000E+00 -0.00000000000E+00 -0.45593999997E+02  0.45594000000E+02  0.51100000000E-03 0. -1.
    9900012    2    1    2    0    0 -0.46629619144E+01 -0.20166695403E+02 -0.34996077120E+02  0.50528877640E+02  0.30000054073E+02 0.  0.
        -12    1    1    2    0    0  0.46629619144E+01  0.20166695403E+02  0.34996077120E+02  0.40659122360E+02  0.00000000000E+00 0.  1.
         11    1    3    3    0    0  0.18022396191E+01 -0.48382798332E+01 -0.21702001773E+02  0.22307709444E+02  0.51100000000E-03 0. -1.
        -11    1    3    3    0    0  0.61615235710E+01 -0.31863908239E+01 -0.62615113989E+01  0.93447303042E+01  0.51100000000E-03 0.  1.
        -12    1    3    3    0    0 -0.12626725105E+02 -0.12142024746E+02 -0.70325639482E+01  0.18876437892E+02  0.00000000000E+00 0.  1.
</event>
<event>
 7    1  0.2945316E-011  0.5052887E+02  0.7816164E-02  0.1300439E+00
        -11   -1    0    0    0    0  0.00000000000E+00  0.00000000000E+00  0.45593999997E+02  0.45594000000E+02  0.51100000000E-03 0. -1.
         11   -1    0    0    0    0 -0.00000000000E+00 -0.00000000000E+00 -0.45593999997E+02  0.45594000000E+02  0.51100000000E-03 0.  1.
    9900012    2    1    2    0    0  0.36790967968E+01  0.40452228090E+02  0.18018541869E+01  0.50528865857E+02  0.30000018260E+02 0.  0.
        -12    1    1    2    0    0 -0.36790967968E+01 -0.40452228090E+02 -0.18018541869E+01  0.40659134143E+02  0.00000000000E+00 0.  1.
         11    1    3    3    0    0  0.16820542552E+01 -0.39090221209E+01 -0.32076253330E+01  0.53290356536E+01  0.51100000000E-03 0. -1.
        -11    1    3    3    0    0  0.26756743060E+00  0.34255814734E+01  0.23069208617E+01  0.41386090518E+01  0.51100000000E-03 0.  1.
         12    1    3    3    0    0  0.17294751111E+01  0.40935668738E+02  0.27025586583E+01  0.41061221152E+02  0.00000000000E+00 0. -1.
</event>
<event>
 7    1  0.2945316E-011  0.5052886E+02  0.7816164E-02  0.1300439E+00
        -11   -1    0    0    0    0  0.00000000000E+00  0.00000000000E+00  0.45593999997E+02  0.45594000000E+02  0.51100000000E-03 0. -1.
         11   -1    0    0    0    0 -0.00000000000E+00 -0.00000000000E+00 -0.45593999997E+02  0.45594000000E+02  0.51100000000E-03 0.  1.
    9900012    2    1    2    0    0 -0.27793560249E+02  0.57229250842E+01  0.29119268635E+02  0.50528859962E+02  0.30000000339E+02 0.  0.
        -12    1    1    2    0    0  0.27793560249E+02 -0.57229250842E+01 -0.29119268635E+02  0.40659140038E+02  0.00000000000E+00 0.  1.
         11    1    3    3    0    0 -0.15809458013E+02 -0.33080254257E+01  0.69810743161E+01  0.17595948220E+02  0.51100000000E-03 0. -1.
        -11    1    3    3    0    0 -0.23980885945E+01 -0.52353354793E+01  0.12683309534E+01  0.58964591202E+01  0.51100000000E-03 0.  1.
         12    1    3    3    0    0 -0.95860136407E+01  0.14266285989E+02  0.20869863366E+02  0.27036452621E+02  0.00000000000E+00 0. -1.
</event>
<event>
 7    1  0.2945316E-011  0.5052886E+02  0.7816164E-02  0.1300439E+00
        -11   -1    0    0    0    0  0.00000000000E+00  0.00000000000E+00  0.45593999997E+02  0.45594000000E+02  0.51100000000E-03 0.  1.
         11   -1    0    0    0    0 -0.00000000000E+00 -0.00000000000E+00 -0.45593999997E+02  0.45594000000E+02  0.51100000000E-03 0. -1.
    9900012    2    1    2    0    0 -0.30433856400E+02  0.13863884676E+02 -0.23124415558E+02  0.50528861930E+02  0.30000006322E+02 0.  0.
        -12    1    1    2    0    0  0.30433856400E+02 -0.13863884676E+02  0.23124415558E+02  0.40659138070E+02  0.00000000000E+00 0.  1.
         11    1    3    3    0    0 -0.25534312707E+02  0.60690387156E+01 -0.19605761735E+02  0.32760040443E+02  0.51100000000E-03 0. -1.
        -11    1    3    3    0    0  0.19558201888E+01 -0.15848882893E+01 -0.54389760012E+01  0.59932932268E+01  0.51100000000E-03 0.  1.
        -12    1    3    3    0    0 -0.68553638823E+01  0.93797342492E+01  0.19203221778E+01  0.11775528260E+02  0.00000000000E+00 0.  1.
</event>
<event>
 7    1  0.2945316E-011  0.5052885E+02  0.7816164E-02  0.1300439E+00
        -11   -1    0    0    0    0  0.00000000000E+00  0.00000000000E+00  0.45593999997E+02  0.45594000000E+02  0.51100000000E-03 0.  1.
         11   -1    0    0    0    0 -0.00000000000E+00 -0.00000000000E+00 -0.45593999997E+02  0.45594000000E+02  0.51100000000E-03 0. -1.
    9900012    2    1    2    0    0 -0.74883553676E+01  0.17833499758E+02 -0.35763905144E+02  0.50528854769E+02  0.29999984557E+02 0.  0.
        -12    1    1    2    0    0  0.74883553676E+01 -0.17833499758E+02  0.35763905144E+02  0.40659145231E+02  0.00000000000E+00 0.  1.
         11    1    3    3    0    0 -0.27444010314E+01  0.21947794909E+02 -0.29449709764E+02  0.36831003840E+02  0.51100000000E-03 0. -1.
        -11    1    3    3    0    0  0.15318505173E+01  0.25610096143E+01 -0.17855488745E+01  0.34775740533E+01  0.51100000000E-03 0.  1.
        -12    1    3    3    0    0 -0.62758048535E+01 -0.66753047649E+01 -0.45286465050E+01  0.10220276876E+02  0.00000000000E+00 0.  1.
</event>
<event>
 7    1  0.2945316E-011  0.5052886E+02  0.7816164E-02  0.1300439E+00
        -11   -1    0    0    0    0  0.00000000000E+00  0.00000000000E+00  0.45593999997E+02  0.45594000000E+02  0.51100000000E-03 0.  1.
         11   -1    0    0    0    0 -0.00000000000E+00 -0.00000000000E+00 -0.45593999997E+02  0.45594000000E+02  0.51100000000E-03 0. -1.
    9900012    2    1    2    0    0 -0.32773354772E+01 -0.20753414387E+02 -0.34809775622E+02  0.50528860617E+02  0.30000002330E+02 0.  0.
        -12    1    1    2    0    0  0.32773354772E+01  0.20753414387E+02  0.34809775622E+02  0.40659139383E+02  0.00000000000E+00 0.  1.
         11    1    3    3    0    0  0.33958597392E+01 -0.57556580769E+00 -0.43788440454E+01  0.55711232981E+01  0.51100000000E-03 0. -1.
        -11    1    3    3    0    0  0.43056300524E+01 -0.59075195592E+01  0.22472290393E+01  0.76476974382E+01  0.51100000000E-03 0.  1.
         12    1    3    3    0    0 -0.10978825269E+02 -0.14270329021E+02 -0.32678160616E+02  0.37310039880E+02  0.00000000000E+00 0. -1.
</event>
<event>
 7    1  0.2945316E-011  0.5052875E+02  0.7816164E-02  0.1300439E+00
        -11   -1    0    0    0    0  0.00000000000E+00  0.00000000000E+00  0.45593999997E+02  0.45594000000E+02  0.51100000000E-03 0. -1.
         11   -1    0    0    0    0 -0.00000000000E+00 -0.00000000000E+00 -0.45593999997E+02  0.45594000000E+02  0.51100000000E-03 0.  1.
    9900012    2    1    2    0    0 -0.35006188644E+02 -0.11373193590E+02  0.17274015385E+02  0.50528752794E+02  0.29999674591E+02 0.  0.
        -12    1    1    2    0    0  0.35006188644E+02  0.11373193590E+02 -0.17274015385E+02  0.40659247206E+02  0.00000000000E+00 0.  1.
         11    1    3    3    0    0 -0.25838006458E+02 -0.64462366467E+01  0.60222072640E+01  0.27302445408E+02  0.51100000000E-03 0. -1.
        -11    1    3    3    0    0 -0.15311175641E+01  0.29562116895E+00 -0.46082220261E+01  0.48649176122E+01  0.51100000000E-03 0.  1.
        -12    1    3    3    0    0 -0.76370646222E+01 -0.52225781118E+01  0.15860030147E+02  0.18361389774E+02  0.00000000000E+00 0.  1.
</event>
<event>
 7    1  0.2945316E-011  0.5052886E+02  0.7816164E-02  0.1300439E+00
        -11   -1    0    0    0    0  0.00000000000E+00  0.00000000000E+00  0.45593999997E+02  0.45594000000E+02  0.51100000000E-03 0.  1.
         11   -1    0    0    0    0 -0.00000000000E+00 -0.00000000000E+00 -0.45593999997E+02  0.45594000000E+02  0.51100000000E-03 0. -1.
    9900012    2    1    2    0    0  0.23703605733E+02 -0.31549278320E+02 -0.97952870562E+01  0.50528861595E+02  0.30000005306E+02 0.  0.
        -12    1    1    2    0    0 -0.23703605733E+02  0.31549278320E+02  0.97952870562E+01  0.40659138405E+02  0.00000000000E+00 0.  1.
         11    1    3    3    0    0  0.89665226791E+01 -0.12973785622E+02  0.66259044445E+01  0.17106146623E+02  0.51100000000E-03 0. -1.
        -11    1    3    3    0    0  0.20716460924E-01 -0.33339981811E+01  0.31449891217E+01  0.45833317445E+01  0.51100000000E-03 0.  1.
         12    1    3    3    0    0  0.14716366593E+02 -0.15241494517E+02 -0.19566180622E+02  0.28839383228E+02  0.00000000000E+00 0. -1.
</event>
<event>
 7    1  0.2945316E-011  0.5052887E+02  0.7816164E-02  0.1300439E+00
        -11   -1    0    0    0    0  0.00000000000E+00  0.00000000000E+00  0.45593999997E+02  0.45594000000E+02  0.51100000000E-03 0.  1.
         11   -1    0    0    0    0 -0.00000000000E+00 -0.00000000000E+00 -0.45593999997E+02  0.45594000000E+02  0.51100000000E-03 0. -1.
    9900012    2    1    2    0    0  0.40243807755E+02  0.24548300793E+01 -0.52511851441E+01  0.50528865740E+02  0.30000017903E+02 0.  0.
        -12    1    1    2    0    0 -0.40243807755E+02 -0.24548300793E+01  0.52511851441E+01  0.40659134260E+02  0.00000000000E+00 0.  1.
         11    1    3    3    0    0  0.25629639391E+02  0.50579699354E+01 -0.30265955499E+01  0.26298702554E+02  0.51100000000E-03 0. -1.
        -11    1    3    3    0    0  0.15184872095E+02  0.18379690382E+01  0.46845439680E+01  0.15996981690E+02  0.51100000000E-03 0.  1.
        -12    1    3    3    0    0 -0.57070373047E+00 -0.44411088942E+01 -0.69091335622E+01  0.82331814955E+01  0.00000000000E+00 0.  1.
</event>
<event>
 7    1  0.2945316E-011  0.5052886E+02  0.7816164E-02  0.1300439E+00
        -11   -1    0    0    0    0  0.00000000000E+00  0.00000000000E+00  0.45593999997E+02  0.45594000000E+02  0.51100000000E-03 0.  1.
         11   -1    0    0    0    0 -0.00000000000E+00 -0.00000000000E+00 -0.45593999997E+02  0.45594000000E+02  0.51100000000E-03 0. -1.
    9900012    2    1    2    0    0 -0.27587815295E+01  0.31162515651E+01 -0.40445567737E+02  0.50528857745E+02  0.29999993601E+02 0.  0.
        -12    1    1    2    0    0  0.27587815295E+01 -0.31162515651E+01  0.40445567737E+02  0.40659142255E+02  0.00000000000E+00 0.  1.
         11    1    3    3    0    0  0.88750111984E+00  0.10719401758E+02 -0.23272973547E+02  0.25638341020E+02  0.51100000000E-03 0. -1.
        -11    1    3    3    0    0 -0.84073398989E+01 -0.19952230327E+01 -0.14841436900E+02  0.17173599758E+02  0.51100000000E-03 0.  1.
        -12    1    3    3    0    0  0.47610572495E+01 -0.56079271598E+01 -0.23311572902E+01  0.77169169669E+01  0.00000000000E+00 0.  1.
</event>
<event>
 7    1  0.2945316E-011  0.5052886E+02  0.7816164E-02  0.1300439E+00
        -11   -1    0    0    0    0  0.00000000000E+00  0.00000000000E+00  0.45593999997E+02  0.45594000000E+02  0.51100000000E-03 0. -1.
         11   -1    0    0    0    0 -0.00000000000E+00 -0.00000000000E+00 -0.45593999997E+02  0.45594000000E+02  0.51100000000E-03 0.  1.
    9900012    2    1    2    0    0 -0.31655813418E+02  0.45821529653E+01  0.25101374030E+02  0.50528860472E+02  0.30000001890E+02 0.  0.
        -12    1    1    2    0    0  0.31655813418E+02 -0.45821529653E+01 -0.25101374030E+02  0.40659139528E+02  0.00000000000E+00 0.  1.
         11    1    3    3    0    0 -0.13033692012E+02 -0.10491855724E+02  0.11644309223E+02  0.20384947917E+02  0.51100000000E-03 0. -1.
        -11    1    3    3    0    0 -0.95085567216E+01  0.46217288015E+01  0.12313345218E+02  0.16229340675E+02  0.51100000000E-03 0.  1.
        -12    1    3    3    0    0 -0.91135646840E+01  0.10452279888E+02  0.11437195891E+01  0.13914571880E+02  0.00000000000E+00 0.  1.
</event>
<event>
 7    1  0.2945316E-011  0.5052890E+02  0.7816164E-02  0.1300439E+00
        -11   -1    0    0    0    0  0.00000000000E+00  0.00000000000E+00  0.45593999997E+02  0.45594000000E+02  0.51100000000E-03 0. -1.
         11   -1    0    0    0    0 -0.00000000000E+00 -0.00000000000E+00 -0.45593999997E+02  0.45594000000E+02  0.51100000000E-03 0.  1.
    9900012    2    1    2    0    0  0.24281162398E+02  0.32597181722E+02  0.10055864383E+01  0.50528901293E+02  0.30000125970E+02 0.  0.
        -12    1    1    2    0    0 -0.24281162398E+02 -0.32597181722E+02 -0.10055864383E+01  0.40659098707E+02  0.00000000000E+00 0.  1.
         11    1    3    3    0    0  0.26075312062E+02  0.27202293449E+02  0.58262727433E+00  0.37685887582E+02  0.51100000000E-03 0. -1.
        -11    1    3    3    0    0  0.30885884112E+01  0.63922314210E+01  0.23819730225E+01  0.74882438966E+01  0.51100000000E-03 0.  1.
        -12    1    3    3    0    0 -0.48827380754E+01 -0.99734314886E+00 -0.19590138585E+01  0.53547698146E+01  0.00000000000E+00 0.  1.
</event>
<event>
 7    1  0.2945316E-011  0.5052886E+02  0.7816164E-02  0.1300439E+00
        -11   -1    0    0    0    0  0.00000000000E+00  0.00000000000E+00  0.45593999997E+02  0.45594000000E+02  0.51100000000E-03 0. -1.
         11   -1    0    0    0    0 -0.00000000000E+00 -0.00000000000E+00 -0.45593999997E+02  0.45594000000E+02  0.51100000000E-03 0.  1.
    9900012    2    1    2    0    0  0.88886407494E+01  0.38765424136E+02 -0.84498208330E+01  0.50528861852E+02  0.30000006084E+02 0.  0.
        -12    1    1    2    0    0 -0.88886407494E+01 -0.38765424136E+02  0.84498208330E+01  0.40659138148E+02  0.00000000000E+00 0.  1.
         11    1    3    3    0    0  0.42192584349E+01 -0.11505040506E+01  0.30216906052E+01  0.53156764090E+01  0.51100000000E-03 0.  1.
        -11    1    3    3    0    0  0.71594216493E+01  0.14151282949E+02 -0.11042515996E+02  0.19324939514E+02  0.51100000000E-03 0. -1.
        -12    1    3    3    0    0 -0.24900393348E+01  0.25764645239E+02 -0.42899544174E+00  0.25888245928E+02  0.00000000000E+00 0.  1.
</event>
<event>
 7    1  0.2945316E-011  0.5052886E+02  0.7816164E-02  0.1300439E+00
        -11   -1    0    0    0    0  0.00000000000E+00  0.00000000000E+00  0.45593999997E+02  0.45594000000E+02  0.51100000000E-03 0. -1.
         11   -1    0    0    0    0 -0.00000000000E+00 -0.00000000000E+00 -0.45593999997E+02  0.45594000000E+02  0.51100000000E-03 0.  1.
    9900012    2    1    2    0    0  0.30697882027E+02 -0.23608843330E+02  0.12386617397E+02  0.50528859148E+02  0.29999997865E+02 0.  0.
        -12    1    1    2    0    0 -0.30697882027E+02  0.23608843330E+02 -0.12386617397E+02  0.40659140852E+02  0.00000000000E+00 0.  1.
         11    1    3    3    0    0 -0.28549848576E+01 -0.10454904762E+02  0.49392372902E+01  0.11910165297E+02  0.51100000000E-03 0. -1.
        -11    1    3    3    0    0  0.15067574243E+02 -0.41046773290E+00  0.37101792103E+00  0.15077729666E+02  0.51100000000E-03 0.  1.
        -12    1    3    3    0    0  0.18485292642E+02 -0.12743470835E+02  0.70763621860E+01  0.23540964185E+02  0.00000000000E+00 0.  1.
</event>
<event>
 7    1  0.2945316E-011  0.5052887E+02  0.7816164E-02  0.1300439E+00
        -11   -1    0    0    0    0  0.00000000000E+00  0.00000000000E+00  0.45593999997E+02  0.45594000000E+02  0.51100000000E-03 0.  1.
         11   -1    0    0    0    0 -0.00000000000E+00 -0.00000000000E+00 -0.45593999997E+02  0.45594000000E+02  0.51100000000E-03 0. -1.
    9900012    2    1    2    0    0 -0.31652643433E+02 -0.11555275903E+02 -0.22754140340E+02  0.50528866461E+02  0.30000020096E+02 0.  0.
        -12    1    1    2    0    0  0.31652643433E+02  0.11555275903E+02  0.22754140340E+02  0.40659133539E+02  0.00000000000E+00 0.  1.
         11    1    3    3    0    0 -0.19446509589E+02 -0.58305206520E+01 -0.85877349982E+01  0.22043386739E+02  0.51100000000E-03 0. -1.
        -11    1    3    3    0    0 -0.14363302667E+02 -0.96073466047E+01 -0.16121347821E+02  0.23632677126E+02  0.51100000000E-03 0.  1.
         12    1    3    3    0    0  0.21571688228E+01  0.38825913534E+01  0.19549424796E+01  0.48528025971E+01  0.00000000000E+00 0. -1.
</event>
<event>
 7    1  0.2945316E-011  0.5052887E+02  0.7816164E-02  0.1300439E+00
        -11   -1    0    0    0    0  0.00000000000E+00  0.00000000000E+00  0.45593999997E+02  0.45594000000E+02  0.51100000000E-03 0. -1.
         11   -1    0    0    0    0 -0.00000000000E+00 -0.00000000000E+00 -0.45593999997E+02  0.45594000000E+02  0.51100000000E-03 0.  1.
    9900012    2    1    2    0    0 -0.82007130592E+01  0.16837739297E+02 -0.36088831408E+02  0.50528869270E+02  0.30000028633E+02 0.  0.
        -12    1    1    2    0    0  0.82007130592E+01 -0.16837739297E+02  0.36088831408E+02  0.40659130730E+02  0.00000000000E+00 0.  1.
         11    1    3    3    0    0  0.12837374358E+01  0.14198371304E+02 -0.81641333011E+01  0.16428475350E+02  0.51100000000E-03 0. -1.
        -11    1    3    3    0    0  0.38879565903E+01 -0.15463403131E+01 -0.12873219559E+02  0.13536142615E+02  0.51100000000E-03 0.  1.
         12    1    3    3    0    0 -0.13372407085E+02  0.41857083064E+01 -0.15051478547E+02  0.20564251305E+02  0.00000000000E+00 0. -1.
</event>
<event>
 7    1  0.2945316E-011  0.5052886E+02  0.7816164E-02  0.1300439E+00
        -11   -1    0    0    0    0  0.00000000000E+00  0.00000000000E+00  0.45593999997E+02  0.45594000000E+02  0.51100000000E-03 0. -1.
         11   -1    0    0    0    0 -0.00000000000E+00 -0.00000000000E+00 -0.45593999997E+02  0.45594000000E+02  0.51100000000E-03 0.  1.
    9900012    2    1    2    0    0 -0.31602669749E+02  0.14165946943E+02  0.21301707988E+02  0.50528861405E+02  0.30000004726E+02 0.  0.
        -12    1    1    2    0    0  0.31602669749E+02 -0.14165946943E+02 -0.21301707988E+02  0.40659138595E+02  0.00000000000E+00 0.  1.
         11    1    3    3    0    0 -0.55442446642E+00  0.55692646099E+01  0.39684347514E+01  0.68609452280E+01  0.51100000000E-03 0. -1.
        -11    1    3    3    0    0 -0.91868433428E+01  0.14082581595E+02  0.11548624038E+02  0.20398233071E+02  0.51100000000E-03 0.  1.
         12    1    3    3    0    0 -0.21861401940E+02 -0.54858992618E+01  0.57846491991E+01  0.23269683106E+02  0.00000000000E+00 0. -1.
</event>
<event>
 7    1  0.2945316E-011  0.5052884E+02  0.7816164E-02  0.1300439E+00
        -11   -1    0    0    0    0  0.00000000000E+00  0.00000000000E+00  0.45593999997E+02  0.45594000000E+02  0.51100000000E-03 0. -1.
         11   -1    0    0    0    0 -0.00000000000E+00 -0.00000000000E+00 -0.45593999997E+02  0.45594000000E+02  0.51100000000E-03 0.  1.
    9900012    2    1    2    0    0 -0.35701269786E+02 -0.11479119544E+02 -0.15710398969E+02  0.50528837618E+02  0.29999932424E+02 0.  0.
        -12    1    1    2    0    0  0.35701269786E+02  0.11479119544E+02  0.15710398969E+02  0.40659162382E+02  0.00000000000E+00 0.  1.
         11    1    3    3    0    0 -0.18270585870E+02 -0.88111662224E+01 -0.23175435151E+00  0.20285577847E+02  0.51100000000E-03 0. -1.
        -11    1    3    3    0    0 -0.89898187124E+01  0.57406188739E+01  0.55079202184E-01  0.10666516747E+02  0.51100000000E-03 0.  1.
        -12    1    3    3    0    0 -0.84408652033E+01 -0.84085721957E+01 -0.15533723819E+02  0.19576743024E+02  0.00000000000E+00 0.  1.
</event>
<event>
 7    1  0.2945316E-011  0.5052886E+02  0.7816164E-02  0.1300439E+00
        -11   -1    0    0    0    0  0.00000000000E+00  0.00000000000E+00  0.45593999997E+02  0.45594000000E+02  0.51100000000E-03 0.  1.
         11   -1    0    0    0    0 -0.00000000000E+00 -0.00000000000E+00 -0.45593999997E+02  0.45594000000E+02  0.51100000000E-03 0. -1.
    9900012    2    1    2    0    0  0.30131683120E+02  0.22664111194E+02 -0.15217930709E+02  0.50528859835E+02  0.29999999955E+02 0.  0.
        -12    1    1    2    0    0 -0.30131683120E+02 -0.22664111194E+02  0.15217930709E+02  0.40659140165E+02  0.00000000000E+00 0.  1.
         11    1    3    3    0    0  0.55509294786E+01  0.27736642696E+01 -0.44489240711E+01  0.76353753809E+01  0.51100000000E-03 0. -1.
        -11    1    3    3    0    0  0.22086573891E+02  0.25341904216E+02 -0.13601171815E+02  0.36263214564E+02  0.51100000000E-03 0.  1.
        -12    1    3    3    0    0  0.24941797512E+01 -0.54514572914E+01  0.28321651767E+01  0.66302698904E+01  0.00000000000E+00 0.  1.
</event>
<event>
 7    1  0.2945316E-011  0.5052885E+02  0.7816164E-02  0.1300439E+00
        -11   -1    0    0    0    0  0.00000000000E+00  0.00000000000E+00  0.45593999997E+02  0.45594000000E+02  0.51100000000E-03 0. -1.
         11   -1    0    0    0    0 -0.00000000000E+00 -0.00000000000E+00 -0.45593999997E+02  0.45594000000E+02  0.51100000000E-03 0.  1.
    9900012    2    1    2    0    0 -0.11930797192E+02  0.29369462117E+02 -0.25460902490E+02  0.50528846267E+02  0.29999958713E+02 0.  0.
        -12    1    1    2    0    0  0.11930797192E+02 -0.29369462117E+02  0.25460902490E+02  0.40659153733E+02  0.00000000000E+00 0.  1.
         11    1    3    3    0    0 -0.18418837778E+01 -0.38371066672E+00 -0.99646903054E+01  0.10140750607E+02  0.51100000000E-03 0. -1.
        -11    1    3    3    0    0 -0.40752460478E+01 -0.21696387732E+01 -0.61558397377E+00  0.46576718053E+01  0.51100000000E-03 0.  1.
         12    1    3    3    0    0 -0.60136673659E+01  0.31922811557E+02 -0.14880628211E+02  0.35730423855E+02  0.00000000000E+00 0. -1.
</event>
<event>
 7    1  0.2945316E-011  0.5052889E+02  0.7816164E-02  0.1300439E+00
        -11   -1    0    0    0    0  0.00000000000E+00  0.00000000000E+00  0.45593999997E+02  0.45594000000E+02  0.51100000000E-03 0.  1.
         11   -1    0    0    0    0 -0.00000000000E+00 -0.00000000000E+00 -0.45593999997E+02  0.45594000000E+02  0.51100000000E-03 0. -1.
    9900012    2    1    2    0    0  0.13781207925E+02  0.37695927265E+02 -0.65006425617E+01  0.50528893050E+02  0.30000100916E+02 0.  0.
        -12    1    1    2    0    0 -0.13781207925E+02 -0.37695927265E+02  0.65006425617E+01  0.40659106950E+02  0.00000000000E+00 0.  1.
         11    1    3    3    0    0  0.88545157226E+01  0.81839606822E+01 -0.11023275472E+02  0.16336837623E+02  0.51100000000E-03 0. -1.
        -11    1    3    3    0    0  0.45245996137E+01  0.40775251557E+01  0.62101590998E+01  0.86985222518E+01  0.51100000000E-03 0.  1.
         12    1    3    3    0    0  0.40209258887E+00  0.25434441427E+02 -0.16875261895E+01  0.25493533176E+02  0.00000000000E+00 0. -1.
</event>
<event>
 7    1  0.2945316E-011  0.5052891E+02  0.7816164E-02  0.1300439E+00
        -11   -1    0    0    0    0  0.00000000000E+00  0.00000000000E+00  0.45593999997E+02  0.45594000000E+02  0.51100000000E-03 0.  1.
         11   -1    0    0    0    0 -0.00000000000E+00 -0.00000000000E+00 -0.45593999997E+02  0.45594000000E+02  0.51100000000E-03 0. -1.
    9900012    2    1    2    0    0  0.14684999266E+02 -0.24466038124E+02 -0.28964207679E+02  0.50528910593E+02  0.30000154237E+02 0.  0.
        -12    1    1    2    0    0 -0.14684999266E+02  0.24466038124E+02  0.28964207679E+02  0.40659089407E+02  0.00000000000E+00 0.  1.
         11    1    3    3    0    0 -0.21339629145E+01 -0.12243348130E+02 -0.56995988149E+01  0.13672556383E+02  0.51100000000E-03 0. -1.
        -11    1    3    3    0    0  0.57561263027E+01 -0.95777938264E+01 -0.24186483354E+00  0.11177013172E+02  0.51100000000E-03 0.  1.
         12    1    3    3    0    0  0.11062835877E+02 -0.26448961682E+01 -0.23022744031E+02  0.25679341037E+02  0.00000000000E+00 0. -1.
</event>
<event>
 7    1  0.2945316E-011  0.5052886E+02  0.7816164E-02  0.1300439E+00
        -11   -1    0    0    0    0  0.00000000000E+00  0.00000000000E+00  0.45593999997E+02  0.45594000000E+02  0.51100000000E-03 0. -1.
         11   -1    0    0    0    0 -0.00000000000E+00 -0.00000000000E+00 -0.45593999997E+02  0.45594000000E+02  0.51100000000E-03 0.  1.
    9900012    2    1    2    0    0 -0.85348025288E+01  0.63421202965E+01  0.39244116838E+02  0.50528855267E+02  0.29999986069E+02 0.  0.
        -12    1    1    2    0    0  0.85348025288E+01 -0.63421202965E+01 -0.39244116838E+02  0.40659144733E+02  0.00000000000E+00 0.  1.
         11    1    3    3    0    0  0.31269013029E+01  0.23076701247E+01 -0.15878303060E+01  0.41981017739E+01  0.51100000000E-03 0. -1.
        -11    1    3    3    0    0 -0.96936007975E+01  0.25600087281E+01  0.65837600803E+01  0.11994391946E+02  0.51100000000E-03 0.  1.
         12    1    3    3    0    0 -0.19681030341E+01  0.14744414437E+01  0.34248187063E+02  0.34336361547E+02  0.00000000000E+00 0. -1.
</event>
<event>
 7    1  0.2945316E-011  0.5052883E+02  0.7816164E-02  0.1300439E+00
        -11   -1    0    0    0    0  0.00000000000E+00  0.00000000000E+00  0.45593999997E+02  0.45594000000E+02  0.51100000000E-03 0.  1.
         11   -1    0    0    0    0 -0.00000000000E+00 -0.00000000000E+00 -0.45593999997E+02  0.45594000000E+02  0.51100000000E-03 0. -1.
    9900012    2    1    2    0    0  0.37989549079E+01 -0.29375892779E+02 -0.27853057188E+02  0.50528832157E+02  0.29999915826E+02 0.  0.
        -12    1    1    2    0    0 -0.37989549079E+01  0.29375892779E+02  0.27853057188E+02  0.40659167843E+02  0.00000000000E+00 0.  1.
         11    1    3    3    0    0 -0.19824015529E+00 -0.40077085455E+01 -0.12739823422E+00  0.40146304333E+01  0.51100000000E-03 0. -1.
        -11    1    3    3    0    0 -0.10088942973E+02 -0.11864898222E+02 -0.45657022804E+01  0.16229855752E+02  0.51100000000E-03 0.  1.
         12    1    3    3    0    0  0.14086138036E+02 -0.13503286011E+02 -0.23159956673E+02  0.30284345972E+02  0.00000000000E+00 0. -1.
</event>
<event>
 7    1  0.2945316E-011  0.5052890E+02  0.7816164E-02  0.1300439E+00
        -11   -1    0    0    0    0  0.00000000000E+00  0.00000000000E+00  0.45593999997E+02  0.45594000000E+02  0.51100000000E-03 0.  1.
         11   -1    0    0    0    0 -0.00000000000E+00 -0.00000000000E+00 -0.45593999997E+02  0.45594000000E+02  0.51100000000E-03 0. -1.
    9900012    2    1    2    0    0  0.31209124390E+02 -0.26043005795E+02  0.95637571153E+00  0.50528901996E+02  0.30000128106E+02 0.  0.
        -12    1    1    2    0    0 -0.31209124390E+02  0.26043005795E+02 -0.95637571153E+00  0.40659098004E+02  0.00000000000E+00 0.  1.
         11    1    3    3    0    0  0.17439293299E+02 -0.60725125498E+01  0.60507757299E+01  0.19432350517E+02  0.51100000000E-03 0. -1.
        -11    1    3    3    0    0  0.40470438119E+01  0.33125041043E+01  0.49537801611E+00  0.52532510597E+01  0.51100000000E-03 0.  1.
         12    1    3    3    0    0  0.97227872792E+01 -0.23282997350E+02 -0.55897780345E+01  0.25843300419E+02  0.00000000000E+00 0. -1.
</event>
<event>
 7    1  0.2945316E-011  0.5052885E+02  0.7816164E-02  0.1300439E+00
        -11   -1    0    0    0    0  0.00000000000E+00  0.00000000000E+00  0.45593999997E+02  0.45594000000E+02  0.51100000000E-03 0. -1.
         11   -1    0    0    0    0 -0.00000000000E+00 -0.00000000000E+00 -0.45593999997E+02  0.45594000000E+02  0.51100000000E-03 0.  1.
    9900012    2    1    2    0    0 -0.25981784909E+02 -0.19239308360E+02  0.24656889455E+02  0.50528851819E+02  0.29999975588E+02 0.  0.
        -12    1    1    2    0    0  0.25981784909E+02  0.19239308360E+02 -0.24656889455E+02  0.40659148181E+02  0.00000000000E+00 0.  1.
         11    1    3    3    0    0 -0.12244501973E+02 -0.72996301268E+01  0.73106017720E+01  0.16020528303E+02  0.51100000000E-03 0. -1.
        -11    1    3    3    0    0 -0.48871803149E+01 -0.25186665191E+01 -0.58035120294E+01  0.79943082628E+01  0.51100000000E-03 0.  1.
         12    1    3    3    0    0 -0.88501026210E+01 -0.94210117138E+01  0.23149799713E+02  0.26514015253E+02  0.00000000000E+00 0. -1.
</event>
<event>
 7    1  0.2945316E-011  0.5052886E+02  0.7816164E-02  0.1300439E+00
        -11   -1    0    0    0    0  0.00000000000E+00  0.00000000000E+00  0.45593999997E+02  0.45594000000E+02  0.51100000000E-03 0.  1.
         11   -1    0    0    0    0 -0.00000000000E+00 -0.00000000000E+00 -0.45593999997E+02  0.45594000000E+02  0.51100000000E-03 0. -1.
    9900012    2    1    2    0    0  0.23671762067E+02 -0.31615532695E+02 -0.96577060463E+01  0.50528861876E+02  0.30000006158E+02 0.  0.
        -12    1    1    2    0    0 -0.23671762067E+02  0.31615532695E+02  0.96577060463E+01  0.40659138124E+02  0.00000000000E+00 0.  1.
         11    1    3    3    0    0  0.58354426619E+01 -0.41735618095E+01 -0.27372622900E+01  0.76787768781E+01  0.51100000000E-03 0. -1.
        -11    1    3    3    0    0  0.20244274961E+02 -0.30847220367E+02 -0.28250540458E+01  0.37004899725E+02  0.51100000000E-03 0.  1.
         12    1    3    3    0    0 -0.24079555559E+01  0.34052494818E+01 -0.40953897105E+01  0.58451852728E+01  0.00000000000E+00 0. -1.
</event>
<event>
 7    1  0.2945316E-011  0.5052887E+02  0.7816164E-02  0.1300439E+00
        -11   -1    0    0    0    0  0.00000000000E+00  0.00000000000E+00  0.45593999997E+02  0.45594000000E+02  0.51100000000E-03 0. -1.
         11   -1    0    0    0    0 -0.00000000000E+00 -0.00000000000E+00 -0.45593999997E+02  0.45594000000E+02  0.51100000000E-03 0.  1.
    9900012    2    1    2    0    0 -0.67449520871E+01 -0.22865141994E+02  0.32937153982E+02  0.50528865608E+02  0.30000017502E+02 0.  0.
        -12    1    1    2    0    0  0.67449520871E+01  0.22865141994E+02 -0.32937153982E+02  0.40659134392E+02  0.00000000000E+00 0.  1.
         11    1    3    3    0    0 -0.18235705150E+01 -0.50523376386E+01  0.14605509119E+02  0.15561890050E+02  0.51100000000E-03 0. -1.
        -11    1    3    3    0    0  0.36030564634E+01 -0.17455885081E+02  0.19427378333E+02  0.26364995145E+02  0.51100000000E-03 0.  1.
         12    1    3    3    0    0 -0.85244380356E+01 -0.35691927377E+00 -0.10957334698E+01  0.86019804131E+01  0.00000000000E+00 0. -1.
</event>
<event>
 7    1  0.2945316E-011  0.5052886E+02  0.7816164E-02  0.1300439E+00
        -11   -1    0    0    0    0  0.00000000000E+00  0.00000000000E+00  0.45593999997E+02  0.45594000000E+02  0.51100000000E-03 0.  1.
         11   -1    0    0    0    0 -0.00000000000E+00 -0.00000000000E+00 -0.45593999997E+02  0.45594000000E+02  0.51100000000E-03 0. -1.
    9900012    2    1    2    0    0 -0.26771800460E+02  0.10466048920E+02 -0.28755837459E+02  0.50528859972E+02  0.30000000370E+02 0.  0.
        -12    1    1    2    0    0  0.26771800460E+02 -0.10466048920E+02  0.28755837459E+02  0.40659140028E+02  0.00000000000E+00 0.  1.
         11    1    3    3    0    0 -0.17833718812E+02  0.14781783996E+02 -0.18220359303E+02  0.29470733927E+02  0.51100000000E-03 0. -1.
        -11    1    3    3    0    0 -0.18907083008E+01  0.55106658987E+01 -0.16589644073E+01  0.60575886037E+01  0.51100000000E-03 0.  1.
         12    1    3    3    0    0 -0.70473733471E+01 -0.98264009748E+01 -0.88765137485E+01  0.15000537442E+02  0.00000000000E+00 0. -1.
</event>
<event>
 7    1  0.2945316E-011  0.5052886E+02  0.7816164E-02  0.1300439E+00
        -11   -1    0    0    0    0  0.00000000000E+00  0.00000000000E+00  0.45593999997E+02  0.45594000000E+02  0.51100000000E-03 0. -1.
         11   -1    0    0    0    0 -0.00000000000E+00 -0.00000000000E+00 -0.45593999997E+02  0.45594000000E+02  0.51100000000E-03 0.  1.
    9900012    2    1    2    0    0  0.28548147964E+02  0.28344417047E+02 -0.58960086207E+01  0.50528860221E+02  0.30000001129E+02 0.  0.
        -12    1    1    2    0    0 -0.28548147964E+02 -0.28344417047E+02  0.58960086207E+01  0.40659139779E+02  0.00000000000E+00 0.  1.
         11    1    3    3    0    0  0.23832667901E+02  0.17353498486E+02 -0.71488972521E+01  0.30335568252E+02  0.51100000000E-03 0. -1.
        -11    1    3    3    0    0  0.30461087021E+01 -0.31181407593E+01 -0.30827443034E+01  0.53389973517E+01  0.51100000000E-03 0.  1.
        -12    1    3    3    0    0  0.16693713604E+01  0.14109059320E+02  0.43356329349E+01  0.14854294617E+02  0.00000000000E+00 0.  1.
</event>
<event>
 7    1  0.2945316E-011  0.5052886E+02  0.7816164E-02  0.1300439E+00
        -11   -1    0    0    0    0  0.00000000000E+00  0.00000000000E+00  0.45593999997E+02  0.45594000000E+02  0.51100000000E-03 0. -1.
         11   -1    0    0    0    0 -0.00000000000E+00 -0.00000000000E+00 -0.45593999997E+02  0.45594000000E+02  0.51100000000E-03 0.  1.
    9900012    2    1    2    0    0 -0.36392891983E+01  0.37853316863E+02  0.14389153963E+02  0.50528858652E+02  0.29999996359E+02 0.  0.
        -12    1    1    2    0    0  0.36392891983E+01 -0.37853316863E+02 -0.14389153963E+02  0.40659141348E+02  0.00000000000E+00 0.  1.
         11    1    3    3    0    0 -0.10078661598E+01 -0.42445946283E+01 -0.19765889663E+01  0.47894970464E+01  0.51100000000E-03 0. -1.
        -11    1    3    3    0    0  0.10975870774E+01  0.12989005379E+01  0.10640597745E+01  0.20060068456E+01  0.51100000000E-03 0.  1.
         12    1    3    3    0    0 -0.37290101159E+01  0.40799010953E+02  0.15301683154E+02  0.43733354760E+02  0.00000000000E+00 0. -1.
</event>
<event>
 7    1  0.2945316E-011  0.5052886E+02  0.7816164E-02  0.1300439E+00
        -11   -1    0    0    0    0  0.00000000000E+00  0.00000000000E+00  0.45593999997E+02  0.45594000000E+02  0.51100000000E-03 0.  1.
         11   -1    0    0    0    0 -0.00000000000E+00 -0.00000000000E+00 -0.45593999997E+02  0.45594000000E+02  0.51100000000E-03 0. -1.
    9900012    2    1    2    0    0  0.16625961877E+02 -0.33831157745E+02 -0.15237966562E+02  0.50528862434E+02  0.30000007854E+02 0.  0.
        -12    1    1    2    0    0 -0.16625961877E+02  0.33831157745E+02  0.15237966562E+02  0.40659137566E+02  0.00000000000E+00 0.  1.
         11    1    3    3    0    0  0.26514656100E+01 -0.21726912905E+02 -0.92542327866E+01  0.23764045089E+02  0.51100000000E-03 0. -1.
        -11    1    3    3    0    0  0.65772042512E+01 -0.16120142670E+02 -0.22439438945E+01  0.17554312858E+02  0.51100000000E-03 0.  1.
        -12    1    3    3    0    0  0.73972920159E+01  0.40158978302E+01 -0.37397898805E+01  0.92105044868E+01  0.00000000000E+00 0.  1.
</event>
<event>
 7    1  0.2945316E-011  0.5052892E+02  0.7816164E-02  0.1300439E+00
        -11   -1    0    0    0    0  0.00000000000E+00  0.00000000000E+00  0.45593999997E+02  0.45594000000E+02  0.51100000000E-03 0.  1.
         11   -1    0    0    0    0 -0.00000000000E+00 -0.00000000000E+00 -0.45593999997E+02  0.45594000000E+02  0.51100000000E-03 0. -1.
    9900012    2    1    2    0    0 -0.25157376012E+02  0.82532900609E+01 -0.30856933036E+02  0.50528921296E+02  0.30000186771E+02 0.  0.
        -12    1    1    2    0    0  0.25157376012E+02 -0.82532900609E+01  0.30856933036E+02  0.40659078704E+02  0.00000000000E+00 0.  1.
         11    1    3    3    0    0 -0.70937033901E+01  0.28294743571E+01 -0.22755425257E+02  0.24002831745E+02  0.51100000000E-03 0. -1.
        -11    1    3    3    0    0  0.87600557187E+00  0.47102162591E+01  0.18299304565E+01  0.51285640004E+01  0.51100000000E-03 0.  1.
        -12    1    3    3    0    0 -0.18939678193E+02  0.71359944474E+00 -0.99314382362E+01  0.21397525550E+02  0.00000000000E+00 0.  1.
</event>
<event>
 7    1  0.2945316E-011  0.5052886E+02  0.7816164E-02  0.1300439E+00
        -11   -1    0    0    0    0  0.00000000000E+00  0.00000000000E+00  0.45593999997E+02  0.45594000000E+02  0.51100000000E-03 0. -1.
         11   -1    0    0    0    0 -0.00000000000E+00 -0.00000000000E+00 -0.45593999997E+02  0.45594000000E+02  0.51100000000E-03 0.  1.
    9900012    2    1    2    0    0  0.13936005466E+02 -0.25052309347E+02  0.28832885555E+02  0.50528859067E+02  0.29999997621E+02 0.  0.
        -12    1    1    2    0    0 -0.13936005466E+02  0.25052309347E+02 -0.28832885555E+02  0.40659140933E+02  0.00000000000E+00 0.  1.
         11    1    3    3    0    0  0.10042170923E+01 -0.17301782316E+02  0.10633310187E+02  0.20332914427E+02  0.51100000000E-03 0. -1.
        -11    1    3    3    0    0 -0.14102282934E+01 -0.53396688586E+01 -0.14876223094E+01  0.57196003143E+01  0.51100000000E-03 0.  1.
        -12    1    3    3    0    0  0.14342016667E+02 -0.24108581723E+01  0.19687197677E+02  0.24476344326E+02  0.00000000000E+00 0.  1.
</event>
<event>
 7    1  0.2945316E-011  0.5052888E+02  0.7816164E-02  0.1300439E+00
        -11   -1    0    0    0    0  0.00000000000E+00  0.00000000000E+00  0.45593999997E+02  0.45594000000E+02  0.51100000000E-03 0. -1.
         11   -1    0    0    0    0 -0.00000000000E+00 -0.00000000000E+00 -0.45593999997E+02  0.45594000000E+02  0.51100000000E-03 0.  1.
    9900012    2    1    2    0    0  0.13942529611E+02 -0.15614677402E+02  0.34856160150E+02  0.50528878235E+02  0.30000055882E+02 0.  0.
        -12    1    1    2    0    0 -0.13942529611E+02  0.15614677402E+02 -0.34856160150E+02  0.40659121765E+02  0.00000000000E+00 0.  1.
         11    1    3    3    0    0  0.67661541735E+01 -0.14641418406E+02  0.10243364935E+02  0.19107027521E+02  0.51100000000E-03 0. -1.
        -11    1    3    3    0    0  0.76098097426E+01 -0.25149445913E+01  0.13783516083E+01  0.81322816007E+01  0.51100000000E-03 0.  1.
        -12    1    3    3    0    0 -0.43343430500E+00  0.15416855950E+01  0.23234443606E+02  0.23289569113E+02  0.00000000000E+00 0.  1.
</event>
<event>
 7    1  0.2945316E-011  0.5052886E+02  0.7816164E-02  0.1300439E+00
        -11   -1    0    0    0    0  0.00000000000E+00  0.00000000000E+00  0.45593999997E+02  0.45594000000E+02  0.51100000000E-03 0. -1.
         11   -1    0    0    0    0 -0.00000000000E+00 -0.00000000000E+00 -0.45593999997E+02  0.45594000000E+02  0.51100000000E-03 0.  1.
    9900012    2    1    2    0    0  0.11573230158E+02 -0.18809288816E+02  0.34138493416E+02  0.50528859149E+02  0.29999997870E+02 0.  0.
        -12    1    1    2    0    0 -0.11573230158E+02  0.18809288816E+02 -0.34138493416E+02  0.40659140851E+02  0.00000000000E+00 0.  1.
         11    1    3    3    0    0  0.72161620655E+01 -0.10568471177E+02  0.11713957244E+02  0.17348843551E+02  0.51100000000E-03 0. -1.
        -11    1    3    3    0    0  0.59502816971E+01 -0.81346966511E+01  0.26741222529E+02  0.28577475825E+02  0.51100000000E-03 0.  1.
         12    1    3    3    0    0 -0.15932136048E+01 -0.10612098792E+00 -0.43166863580E+01  0.46025397736E+01  0.00000000000E+00 0. -1.
</event>
<event>
 7    1  0.2945316E-011  0.5052886E+02  0.7816164E-02  0.1300439E+00
        -11   -1    0    0    0    0  0.00000000000E+00  0.00000000000E+00  0.45593999997E+02  0.45594000000E+02  0.51100000000E-03 0.  1.
         11   -1    0    0    0    0 -0.00000000000E+00 -0.00000000000E+00 -0.45593999997E+02  0.45594000000E+02  0.51100000000E-03 0. -1.
    9900012    2    1    2    0    0 -0.22735494045E+02 -0.24708158073E+02 -0.22929670479E+02  0.50528861383E+02  0.30000004659E+02 0.  0.
        -12    1    1    2    0    0  0.22735494045E+02  0.24708158073E+02  0.22929670479E+02  0.40659138617E+02  0.00000000000E+00 0.  1.
         11    1    3    3    0    0 -0.21710674387E+02 -0.10231265110E+02 -0.12587552223E+02  0.27101266378E+02  0.51100000000E-03 0. -1.
        -11    1    3    3    0    0 -0.47858818316E+01 -0.15699625112E+02 -0.58060395076E+01  0.17409566008E+02  0.51100000000E-03 0.  1.
        -12    1    3    3    0    0  0.37610621732E+01  0.12227321500E+01 -0.45360787486E+01  0.60180289958E+01  0.00000000000E+00 0.  1.
</event>
<event>
 7    1  0.2945316E-011  0.5052885E+02  0.7816164E-02  0.1300439E+00
        -11   -1    0    0    0    0  0.00000000000E+00  0.00000000000E+00  0.45593999997E+02  0.45594000000E+02  0.51100000000E-03 0. -1.
         11   -1    0    0    0    0 -0.00000000000E+00 -0.00000000000E+00 -0.45593999997E+02  0.45594000000E+02  0.51100000000E-03 0.  1.
    9900012    2    1    2    0    0  0.68007252522E+01 -0.39904085893E+02  0.38184107164E+01  0.50528853486E+02  0.29999980655E+02 0.  0.
        -12    1    1    2    0    0 -0.68007252522E+01  0.39904085893E+02 -0.38184107164E+01  0.40659146514E+02  0.00000000000E+00 0.  1.
         11    1    3    3    0    0  0.66361037535E+01 -0.14640821736E+02  0.28730842305E+01  0.16329303335E+02  0.51100000000E-03 0. -1.
        -11    1    3    3    0    0  0.15588048354E+01 -0.35556499352E+01  0.99320944794E+01  0.10663912040E+02  0.51100000000E-03 0.  1.
        -12    1    3    3    0    0 -0.13941833367E+01 -0.21707614221E+02 -0.89867679935E+01  0.23535638111E+02  0.00000000000E+00 0.  1.
</event>
<event>
 7    1  0.2945316E-011  0.5052884E+02  0.7816164E-02  0.1300439E+00
        -11   -1    0    0    0    0  0.00000000000E+00  0.00000000000E+00  0.45593999997E+02  0.45594000000E+02  0.51100000000E-03 0. -1.
         11   -1    0    0    0    0 -0.00000000000E+00 -0.00000000000E+00 -0.45593999997E+02  0.45594000000E+02  0.51100000000E-03 0.  1.
    9900012    2    1    2    0    0  0.16827892479E+02  0.35530585146E+02 -0.10371438012E+02  0.50528841468E+02  0.29999944125E+02 0.  0.
        -12    1    1    2    0    0 -0.16827892479E+02 -0.35530585146E+02  0.10371438012E+02  0.40659158532E+02  0.00000000000E+00 0.  1.
         11    1    3    3    0    0 -0.52612278968E+01  0.47216670762E+01  0.25486625084E+01  0.75146749633E+01  0.51100000000E-03 0. -1.
        -11    1    3    3    0    0 -0.18902673603E+01  0.69282505689E+01 -0.20292051817E+01  0.74626698017E+01  0.51100000000E-03 0.  1.
         12    1    3    3    0    0  0.23979387737E+02  0.23880667501E+02 -0.10890895339E+02  0.35551496703E+02  0.00000000000E+00 0. -1.
</event>
<event>
 7    1  0.2945316E-011  0.5052886E+02  0.7816164E-02  0.1300439E+00
        -11   -1    0    0    0    0  0.00000000000E+00  0.00000000000E+00  0.45593999997E+02  0.45594000000E+02  0.51100000000E-03 0.  1.
         11   -1    0    0    0    0 -0.00000000000E+00 -0.00000000000E+00 -0.45593999997E+02  0.45594000000E+02  0.51100000000E-03 0. -1.
    9900012    2    1    2    0    0  0.83827153792E+01 -0.66779608556E+01 -0.39221177728E+02  0.50528857600E+02  0.29999993161E+02 0.  0.
        -12    1    1    2    0    0 -0.83827153792E+01  0.66779608556E+01  0.39221177728E+02  0.40659142400E+02  0.00000000000E+00 0.  1.
         11    1    3    3    0    0  0.12821479407E+02 -0.41470349777E+01 -0.16241897599E+02  0.21104205059E+02  0.51100000000E-03 0. -1.
        -11    1    3    3    0    0 -0.23103278652E+00 -0.20547940412E+01  0.26987364073E+01  0.33998136945E+01  0.51100000000E-03 0.  1.
         12    1    3    3    0    0 -0.42077312415E+01 -0.47613183672E+00 -0.25678016537E+02  0.26024838847E+02  0.00000000000E+00 0. -1.
</event>
<event>
 7    1  0.2945316E-011  0.5052886E+02  0.7816164E-02  0.1300439E+00
        -11   -1    0    0    0    0  0.00000000000E+00  0.00000000000E+00  0.45593999997E+02  0.45594000000E+02  0.51100000000E-03 0. -1.
         11   -1    0    0    0    0 -0.00000000000E+00 -0.00000000000E+00 -0.45593999997E+02  0.45594000000E+02  0.51100000000E-03 0.  1.
    9900012    2    1    2    0    0  0.11701935964E+02  0.14981024799E+02  0.35941606937E+02  0.50528861807E+02  0.30000005949E+02 0.  0.
        -12    1    1    2    0    0 -0.11701935964E+02 -0.14981024799E+02 -0.35941606937E+02  0.40659138193E+02  0.00000000000E+00 0.  1.
         11    1    3    3    0    0  0.75873878541E+01  0.24377858148E+01  0.24289388916E+02  0.25563365747E+02  0.51100000000E-03 0. -1.
        -11    1    3    3    0    0  0.18924855065E+01  0.14028403938E+02  0.15037734625E+02  0.20652144715E+02  0.51100000000E-03 0.  1.
        -12    1    3    3    0    0  0.22220626036E+01 -0.14851649538E+01 -0.33855166035E+01  0.43133513452E+01  0.00000000000E+00 0.  1.
</event>
<event>
 7    1  0.2945316E-011  0.5052887E+02  0.7816164E-02  0.1300439E+00
        -11   -1    0    0    0    0  0.00000000000E+00  0.00000000000E+00  0.45593999997E+02  0.45594000000E+02  0.51100000000E-03 0. -1.
         11   -1    0    0    0    0 -0.00000000000E+00 -0.00000000000E+00 -0.45593999997E+02  0.45594000000E+02  0.51100000000E-03 0.  1.
    9900012    2    1    2    0    0 -0.29835577609E+02  0.15106901677E+02  0.23125409246E+02  0.50528871599E+02  0.30000035712E+02 0.  0.
        -12    1    1    2    0    0  0.29835577609E+02 -0.15106901677E+02 -0.23125409246E+02  0.40659128401E+02  0.00000000000E+00 0.  1.
         11    1    3    3    0    0 -0.17602449772E+02  0.13799913082E+02  0.12979877842E+02  0.25860415080E+02  0.51100000000E-03 0.  1.
        -11    1    3    3    0    0 -0.91344098571E+01  0.97922159714E+01  0.51624623840E+01  0.14351862429E+02  0.51100000000E-03 0. -1.
        -12    1    3    3    0    0 -0.30987179801E+01 -0.84852273767E+01  0.49830690195E+01  0.10316594090E+02  0.00000000000E+00 0.  1.
</event>
<event>
 7    1  0.2945316E-011  0.5052886E+02  0.7816164E-02  0.1300439E+00
        -11   -1    0    0    0    0  0.00000000000E+00  0.00000000000E+00  0.45593999997E+02  0.45594000000E+02  0.51100000000E-03 0.  1.
         11   -1    0    0    0    0 -0.00000000000E+00 -0.00000000000E+00 -0.45593999997E+02  0.45594000000E+02  0.51100000000E-03 0. -1.
    9900012    2    1    2    0    0 -0.35422061610E+02 -0.15867142859E+02  0.12111040582E+02  0.50528856192E+02  0.29999988882E+02 0.  0.
        -12    1    1    2    0    0  0.35422061610E+02  0.15867142859E+02 -0.12111040582E+02  0.40659143808E+02  0.00000000000E+00 0.  1.
         11    1    3    3    0    0 -0.16117744921E+02 -0.32671353880E+01  0.16929245263E+02  0.23602017296E+02  0.51100000000E-03 0. -1.
        -11    1    3    3    0    0  0.11943751158E+01  0.58750944340E+00  0.12310820517E+01  0.18130809531E+01  0.51100000000E-03 0.  1.
         12    1    3    3    0    0 -0.20498691805E+02 -0.13187516914E+02 -0.60492867327E+01  0.25113757943E+02  0.00000000000E+00 0. -1.
</event>
<event>
 7    1  0.2945316E-011  0.5052886E+02  0.7816164E-02  0.1300439E+00
        -11   -1    0    0    0    0  0.00000000000E+00  0.00000000000E+00  0.45593999997E+02  0.45594000000E+02  0.51100000000E-03 0.  1.
         11   -1    0    0    0    0 -0.00000000000E+00 -0.00000000000E+00 -0.45593999997E+02  0.45594000000E+02  0.51100000000E-03 0. -1.
    9900012    2    1    2    0    0 -0.22524475801E+02 -0.21491648171E+02 -0.26151915267E+02  0.50528860519E+02  0.30000002035E+02 0.  0.
        -12    1    1    2    0    0  0.22524475801E+02  0.21491648171E+02  0.26151915267E+02  0.40659139481E+02  0.00000000000E+00 0.  1.
         11    1    3    3    0    0 -0.21746331876E+02 -0.17688072688E+02 -0.16868426313E+02  0.32715664016E+02  0.51100000000E-03 0. -1.
        -11    1    3    3    0    0 -0.19052269239E+01  0.53625442422E+01 -0.52244461655E+01  0.77253872640E+01  0.51100000000E-03 0.  1.
         12    1    3    3    0    0  0.11270829991E+01 -0.91661197244E+01 -0.40590427882E+01  0.10087809239E+02  0.00000000000E+00 0. -1.
</event>
<event>
 7    1  0.2945316E-011  0.5052880E+02  0.7816164E-02  0.1300439E+00
        -11   -1    0    0    0    0  0.00000000000E+00  0.00000000000E+00  0.45593999997E+02  0.45594000000E+02  0.51100000000E-03 0.  1.
         11   -1    0    0    0    0 -0.00000000000E+00 -0.00000000000E+00 -0.45593999997E+02  0.45594000000E+02  0.51100000000E-03 0. -1.
    9900012    2    1    2    0    0 -0.23566207540E+02 -0.17580385445E+02 -0.28084411356E+02  0.50528803606E+02  0.29999829041E+02 0.  0.
        -12    1    1    2    0    0  0.23566207540E+02  0.17580385445E+02  0.28084411356E+02  0.40659196394E+02  0.00000000000E+00 0.  1.
         11    1    3    3    0    0 -0.49144728054E+01 -0.87297528665E+01 -0.13800465503E+02  0.17053254130E+02  0.51100000000E-03 0. -1.
        -11    1    3    3    0    0 -0.12604687647E+02  0.61581579336E+01 -0.77315035173E+01  0.16018027554E+02  0.51100000000E-03 0.  1.
         12    1    3    3    0    0 -0.60470470871E+01 -0.15008790512E+02 -0.65524423353E+01  0.17457521922E+02  0.00000000000E+00 0. -1.
</event>
<event>
 7    1  0.2945316E-011  0.5052887E+02  0.7816164E-02  0.1300439E+00
        -11   -1    0    0    0    0  0.00000000000E+00  0.00000000000E+00  0.45593999997E+02  0.45594000000E+02  0.51100000000E-03 0.  1.
         11   -1    0    0    0    0 -0.00000000000E+00 -0.00000000000E+00 -0.45593999997E+02  0.45594000000E+02  0.51100000000E-03 0. -1.
    9900012    2    1    2    0    0  0.19769881790E+02 -0.63612838076E+01 -0.34954984620E+02  0.50528866863E+02  0.30000021316E+02 0.  0.
        -12    1    1    2    0    0 -0.19769881790E+02  0.63612838076E+01  0.34954984620E+02  0.40659133137E+02  0.00000000000E+00 0.  1.
         11    1    3    3    0    0  0.15699719761E+02 -0.18409141873E+01 -0.24885549473E+02  0.29481532159E+02  0.51100000000E-03 0. -1.
        -11    1    3    3    0    0 -0.42063490098E+01 -0.29087473515E+00 -0.10927978433E+02  0.11713184580E+02  0.51100000000E-03 0.  1.
         12    1    3    3    0    0  0.82765110388E+01 -0.42294948851E+01  0.85854328609E+00  0.93341501237E+01  0.00000000000E+00 0. -1.
</event>
<event>
 7    1  0.2945316E-011  0.5052886E+02  0.7816164E-02  0.1300439E+00
        -11   -1    0    0    0    0  0.00000000000E+00  0.00000000000E+00  0.45593999997E+02  0.45594000000E+02  0.51100000000E-03 0. -1.
         11   -1    0    0    0    0 -0.00000000000E+00 -0.00000000000E+00 -0.45593999997E+02  0.45594000000E+02  0.51100000000E-03 0.  1.
    9900012    2    1    2    0    0  0.12555302835E+02 -0.15887571546E+02  0.35257843059E+02  0.50528855198E+02  0.29999985859E+02 0.  0.
        -12    1    1    2    0    0 -0.12555302835E+02  0.15887571546E+02 -0.35257843059E+02  0.40659144802E+02  0.00000000000E+00 0.  1.
         11    1    3    3    0    0  0.73238738395E+01 -0.10072402047E+02  0.16561190817E+02  0.20721135407E+02  0.51100000000E-03 0. -1.
        -11    1    3    3    0    0 -0.65619980265E+01 -0.77117122569E+01  0.13259139985E+02  0.16683378478E+02  0.51100000000E-03 0.  1.
        -12    1    3    3    0    0  0.11793427022E+02  0.18965427582E+01  0.54375122567E+01  0.13124341313E+02  0.00000000000E+00 0.  1.
</event>
<event>
 7    1  0.2945316E-011  0.5052886E+02  0.7816164E-02  0.1300439E+00
        -11   -1    0    0    0    0  0.00000000000E+00  0.00000000000E+00  0.45593999997E+02  0.45594000000E+02  0.51100000000E-03 0.  1.
         11   -1    0    0    0    0 -0.00000000000E+00 -0.00000000000E+00 -0.45593999997E+02  0.45594000000E+02  0.51100000000E-03 0. -1.
    9900012    2    1    2    0    0 -0.49705609102E+01 -0.25273154709E+02 -0.31459929315E+02  0.50528856167E+02  0.29999988805E+02 0.  0.
        -12    1    1    2    0    0  0.49705609102E+01  0.25273154709E+02  0.31459929315E+02  0.40659143833E+02  0.00000000000E+00 0.  1.
         11    1    3    3    0    0 -0.89917723666E+01 -0.19025396986E+02 -0.10448737782E+02  0.23494548778E+02  0.51100000000E-03 0. -1.
        -11    1    3    3    0    0  0.71300408385E+00 -0.39767857269E+01  0.13930083190E+01  0.42736017572E+01  0.51100000000E-03 0.  1.
         12    1    3    3    0    0  0.33082073725E+01 -0.22709719962E+01 -0.22404199853E+02  0.22760705632E+02  0.00000000000E+00 0. -1.
</event>
<event>
 7    1  0.2945316E-011  0.5052886E+02  0.7816164E-02  0.1300439E+00
        -11   -1    0    0    0    0  0.00000000000E+00  0.00000000000E+00  0.45593999997E+02  0.45594000000E+02  0.51100000000E-03 0.  1.
         11   -1    0    0    0    0 -0.00000000000E+00 -0.00000000000E+00 -0.45593999997E+02  0.45594000000E+02  0.51100000000E-03 0. -1.
    9900012    2    1    2    0    0  0.35042088329E+02  0.18741150654E+02 -0.86015795284E+01  0.50528857699E+02  0.29999993462E+02 0.  0.
        -12    1    1    2    0    0 -0.35042088329E+02 -0.18741150654E+02  0.86015795284E+01  0.40659142301E+02  0.00000000000E+00 0.  1.
         11    1    3    3    0    0  0.15341569689E+01 -0.91329063147E+00  0.22212865880E+01  0.28498862696E+01  0.51100000000E-03 0. -1.
        -11    1    3    3    0    0  0.35088125274E+01  0.36016169258E+00  0.69756053501E+01  0.78166842112E+01  0.51100000000E-03 0.  1.
         12    1    3    3    0    0  0.29999118833E+02  0.19294279593E+02 -0.17798471466E+02  0.39862287218E+02  0.00000000000E+00 0. -1.
</event>
<event>
 7    1  0.2945316E-011  0.5052886E+02  0.7816164E-02  0.1300439E+00
        -11   -1    0    0    0    0  0.00000000000E+00  0.00000000000E+00  0.45593999997E+02  0.45594000000E+02  0.51100000000E-03 0.  1.
         11   -1    0    0    0    0 -0.00000000000E+00 -0.00000000000E+00 -0.45593999997E+02  0.45594000000E+02  0.51100000000E-03 0. -1.
    9900012    2    1    2    0    0 -0.27572263892E+02 -0.27591300098E+01 -0.29754373311E+02  0.50528864918E+02  0.30000015404E+02 0.  0.
        -12    1    1    2    0    0  0.27572263892E+02  0.27591300098E+01  0.29754373311E+02  0.40659135082E+02  0.00000000000E+00 0.  1.
         11    1    3    3    0    0 -0.15374023230E+02  0.93566456033E+00 -0.19416139140E+02  0.24783513024E+02  0.51100000000E-03 0. -1.
        -11    1    3    3    0    0 -0.39421411017E+01 -0.87392395926E+01 -0.12577090476E+02  0.15814486720E+02  0.51100000000E-03 0.  1.
        -12    1    3    3    0    0 -0.82560995604E+01  0.50444450224E+01  0.22388563055E+01  0.99308651734E+01  0.00000000000E+00 0.  1.
</event>
<event>
 7    1  0.2945316E-011  0.5052886E+02  0.7816164E-02  0.1300439E+00
        -11   -1    0    0    0    0  0.00000000000E+00  0.00000000000E+00  0.45593999997E+02  0.45594000000E+02  0.51100000000E-03 0.  1.
         11   -1    0    0    0    0 -0.00000000000E+00 -0.00000000000E+00 -0.45593999997E+02  0.45594000000E+02  0.51100000000E-03 0. -1.
    9900012    2    1    2    0    0  0.17365415458E+02  0.25995360836E+02 -0.25997097777E+02  0.50528861644E+02  0.30000005454E+02 0.  0.
        -12    1    1    2    0    0 -0.17365415458E+02 -0.25995360836E+02  0.25997097777E+02  0.40659138356E+02  0.00000000000E+00 0.  1.
         11    1    3    3    0    0  0.68939269620E+01  0.16191322916E+02 -0.65183970127E+01  0.18766317343E+02  0.51100000000E-03 0. -1.
        -11    1    3    3    0    0  0.14678037733E+02  0.86743222790E+01 -0.21088912072E+02  0.27118828724E+02  0.51100000000E-03 0.  1.
         12    1    3    3    0    0 -0.42065492373E+01  0.11297156407E+01  0.16102113080E+01  0.46437155781E+01  0.00000000000E+00 0. -1.
</event>
<event>
 7    1  0.2945316E-011  0.5052886E+02  0.7816164E-02  0.1300439E+00
        -11   -1    0    0    0    0  0.00000000000E+00  0.00000000000E+00  0.45593999997E+02  0.45594000000E+02  0.51100000000E-03 0.  1.
         11   -1    0    0    0    0 -0.00000000000E+00 -0.00000000000E+00 -0.45593999997E+02  0.45594000000E+02  0.51100000000E-03 0. -1.
    9900012    2    1    2    0    0 -0.21477000811E+02  0.30620561989E+02 -0.15946314638E+02  0.50528864115E+02  0.30000012965E+02 0.  0.
        -12    1    1    2    0    0  0.21477000811E+02 -0.30620561989E+02  0.15946314638E+02  0.40659135885E+02  0.00000000000E+00 0.  1.
         11    1    3    3    0    0 -0.77400236412E+00  0.43537105645E+01 -0.86271919249E+01  0.96944476949E+01  0.51100000000E-03 0. -1.
        -11    1    3    3    0    0 -0.16847108217E+02  0.61090443062E+01 -0.93461360440E+01  0.20211277466E+02  0.51100000000E-03 0.  1.
        -12    1    3    3    0    0 -0.38558902305E+01  0.20157807118E+02  0.20270133306E+01  0.20623138954E+02  0.00000000000E+00 0.  1.
</event>
<event>
 7    1  0.2945316E-011  0.5052886E+02  0.7816164E-02  0.1300439E+00
        -11   -1    0    0    0    0  0.00000000000E+00  0.00000000000E+00  0.45593999997E+02  0.45594000000E+02  0.51100000000E-03 0.  1.
         11   -1    0    0    0    0 -0.00000000000E+00 -0.00000000000E+00 -0.45593999997E+02  0.45594000000E+02  0.51100000000E-03 0. -1.
    9900012    2    1    2    0    0  0.38676242121E+02  0.26185410981E+01 -0.12266099960E+02  0.50528859941E+02  0.30000000277E+02 0.  0.
        -12    1    1    2    0    0 -0.38676242121E+02 -0.26185410981E+01  0.12266099960E+02  0.40659140059E+02  0.00000000000E+00 0.  1.
         11    1    3    3    0    0  0.21175554454E+01 -0.72558315112E+01 -0.37055870379E+01  0.84179871431E+01  0.51100000000E-03 0. -1.
        -11    1    3    3    0    0 -0.93673078828E+00  0.25599636081E+01  0.67476593255E+00  0.28082356684E+01  0.51100000000E-03 0.  1.
         12    1    3    3    0    0  0.37495417464E+02  0.73144090012E+01 -0.92352788542E+01  0.39302637130E+02  0.00000000000E+00 0. -1.
</event>
<event>
 7    1  0.2945316E-011  0.5052887E+02  0.7816164E-02  0.1300439E+00
        -11   -1    0    0    0    0  0.00000000000E+00  0.00000000000E+00  0.45593999997E+02  0.45594000000E+02  0.51100000000E-03 0.  1.
         11   -1    0    0    0    0 -0.00000000000E+00 -0.00000000000E+00 -0.45593999997E+02  0.45594000000E+02  0.51100000000E-03 0. -1.
    9900012    2    1    2    0    0 -0.18740703414E+02  0.34024841341E+02 -0.12010862329E+02  0.50528873022E+02  0.30000040038E+02 0.  0.
        -12    1    1    2    0    0  0.18740703414E+02 -0.34024841341E+02  0.12010862329E+02  0.40659126978E+02  0.00000000000E+00 0.  1.
         11    1    3    3    0    0 -0.16699868618E+02  0.19236731280E+02 -0.10102284330E+02  0.27404262281E+02  0.51100000000E-03 0. -1.
        -11    1    3    3    0    0 -0.11900512710E+01 -0.37354378083E+01  0.16320012289E+01  0.42465451746E+01  0.51100000000E-03 0.  1.
         12    1    3    3    0    0 -0.85078352486E+00  0.18523547869E+02 -0.35405792275E+01  0.18878065567E+02  0.00000000000E+00 0. -1.
</event>
<event>
 7    1  0.2945316E-011  0.5052888E+02  0.7816164E-02  0.1300439E+00
        -11   -1    0    0    0    0  0.00000000000E+00  0.00000000000E+00  0.45593999997E+02  0.45594000000E+02  0.51100000000E-03 0.  1.
         11   -1    0    0    0    0 -0.00000000000E+00 -0.00000000000E+00 -0.45593999997E+02  0.45594000000E+02  0.51100000000E-03 0. -1.
    9900012    2    1    2    0    0 -0.90229044589E+01  0.37481845172E+02 -0.12917514549E+02  0.50528884116E+02  0.30000073759E+02 0.  0.
        -12    1    1    2    0    0  0.90229044589E+01 -0.37481845172E+02  0.12917514549E+02  0.40659115884E+02  0.00000000000E+00 0.  1.
         11    1    3    3    0    0 -0.57570085563E+01  0.10471815755E+02  0.21843233922E+01  0.12147976855E+02  0.51100000000E-03 0. -1.
        -11    1    3    3    0    0  0.28093964284E+01  0.82422559255E+01  0.51439844234E+01  0.10113756327E+02  0.51100000000E-03 0.  1.
         12    1    3    3    0    0 -0.60752923310E+01  0.18767773491E+02 -0.20245822365E+02  0.28267150934E+02  0.00000000000E+00 0. -1.
</event>
<event>
 7    1  0.2945316E-011  0.5052886E+02  0.7816164E-02  0.1300439E+00
        -11   -1    0    0    0    0  0.00000000000E+00  0.00000000000E+00  0.45593999997E+02  0.45594000000E+02  0.51100000000E-03 0.  1.
         11   -1    0    0    0    0 -0.00000000000E+00 -0.00000000000E+00 -0.45593999997E+02  0.45594000000E+02  0.51100000000E-03 0. -1.
    9900012    2    1    2    0    0  0.21434362569E+02  0.31617488114E+02  0.13930843904E+02  0.50528857544E+02  0.29999992991E+02 0.  0.
        -12    1    1    2    0    0 -0.21434362569E+02 -0.31617488114E+02 -0.13930843904E+02  0.40659142456E+02  0.00000000000E+00 0.  1.
         11    1    3    3    0    0  0.23412937518E+02  0.20128124170E+02  0.10202039689E+02  0.32517512818E+02  0.51100000000E-03 0. -1.
        -11    1    3    3    0    0  0.53317603990E+01  0.22814036554E+01  0.51037092908E+00  0.58217652253E+01  0.51100000000E-03 0.  1.
        -12    1    3    3    0    0 -0.73103353481E+01  0.92079602888E+01  0.32184332861E+01  0.12189579500E+02  0.00000000000E+00 0.  1.
</event>
<event>
 7    1  0.2945316E-011  0.5052886E+02  0.7816164E-02  0.1300439E+00
        -11   -1    0    0    0    0  0.00000000000E+00  0.00000000000E+00  0.45593999997E+02  0.45594000000E+02  0.51100000000E-03 0.  1.
         11   -1    0    0    0    0 -0.00000000000E+00 -0.00000000000E+00 -0.45593999997E+02  0.45594000000E+02  0.51100000000E-03 0. -1.
    9900012    2    1    2    0    0 -0.19213778484E+02  0.29604856604E+02 -0.20187842140E+02  0.50528858489E+02  0.29999995863E+02 0.  0.
        -12    1    1    2    0    0  0.19213778484E+02 -0.29604856604E+02  0.20187842140E+02  0.40659141511E+02  0.00000000000E+00 0.  1.
         11    1    3    3    0    0 -0.12466127195E+02  0.82441717565E+01 -0.31401952211E+01  0.15271919377E+02  0.51100000000E-03 0. -1.
        -11    1    3    3    0    0  0.73931631972E+00 -0.28331099874E+01 -0.77394288090E+01  0.82747724664E+01  0.51100000000E-03 0.  1.
        -12    1    3    3    0    0 -0.74869676096E+01  0.24193794834E+02 -0.93082181097E+01  0.26982166645E+02  0.00000000000E+00 0.  1.
</event>
<event>
 7    1  0.2945316E-011  0.5052887E+02  0.7816164E-02  0.1300439E+00
        -11   -1    0    0    0    0  0.00000000000E+00  0.00000000000E+00  0.45593999997E+02  0.45594000000E+02  0.51100000000E-03 0.  1.
         11   -1    0    0    0    0 -0.00000000000E+00 -0.00000000000E+00 -0.45593999997E+02  0.45594000000E+02  0.51100000000E-03 0. -1.
    9900012    2    1    2    0    0  0.20539141293E+02 -0.75673622888E+01 -0.34264322052E+02  0.50528867413E+02  0.30000022988E+02 0.  0.
        -12    1    1    2    0    0 -0.20539141293E+02  0.75673622888E+01  0.34264322052E+02  0.40659132587E+02  0.00000000000E+00 0.  1.
         11    1    3    3    0    0  0.69906504801E+01  0.57457319386E+01 -0.10827275585E+02  0.14110723812E+02  0.51100000000E-03 0. -1.
        -11    1    3    3    0    0  0.39336811741E+01  0.44654517283E+01 -0.69334844388E+00  0.59912301778E+01  0.51100000000E-03 0.  1.
         12    1    3    3    0    0  0.96148096392E+01 -0.17778545956E+02 -0.22743698023E+02  0.30426913423E+02  0.00000000000E+00 0. -1.
</event>
<event>
 7    1  0.2945316E-011  0.5052887E+02  0.7816164E-02  0.1300439E+00
        -11   -1    0    0    0    0  0.00000000000E+00  0.00000000000E+00  0.45593999997E+02  0.45594000000E+02  0.51100000000E-03 0. -1.
         11   -1    0    0    0    0 -0.00000000000E+00 -0.00000000000E+00 -0.45593999997E+02  0.45594000000E+02  0.51100000000E-03 0.  1.
    9900012    2    1    2    0    0  0.25055495907E+02  0.18210595923E+02 -0.26339348184E+02  0.50528868900E+02  0.30000027509E+02 0.  0.
        -12    1    1    2    0    0 -0.25055495907E+02 -0.18210595923E+02  0.26339348184E+02  0.40659131100E+02  0.00000000000E+00 0.  1.
         11    1    3    3    0    0  0.27113879911E+02  0.17630604955E+02 -0.11252842781E+02  0.34243644458E+02  0.51100000000E-03 0. -1.
        -11    1    3    3    0    0 -0.69247722014E+00 -0.25642785316E+01 -0.55914143511E+01  0.61902313200E+01  0.51100000000E-03 0.  1.
        -12    1    3    3    0    0 -0.13659067836E+01  0.31442695004E+01 -0.94950910528E+01  0.10094993122E+02  0.00000000000E+00 0.  1.
</event>
<event>
 7    1  0.2945316E-011  0.5052887E+02  0.7816164E-02  0.1300439E+00
        -11   -1    0    0    0    0  0.00000000000E+00  0.00000000000E+00  0.45593999997E+02  0.45594000000E+02  0.51100000000E-03 0.  1.
         11   -1    0    0    0    0 -0.00000000000E+00 -0.00000000000E+00 -0.45593999997E+02  0.45594000000E+02  0.51100000000E-03 0. -1.
    9900012    2    1    2    0    0 -0.75707095461E+01  0.71116392063E+01 -0.39309975807E+02  0.50528865071E+02  0.30000015868E+02 0.  0.
        -12    1    1    2    0    0  0.75707095461E+01 -0.71116392063E+01  0.39309975807E+02  0.40659134929E+02  0.00000000000E+00 0.  1.
         11    1    3    3    0    0 -0.28114516212E+01  0.11400997628E+02 -0.30663700003E+02  0.32835186999E+02  0.51100000000E-03 0. -1.
        -11    1    3    3    0    0 -0.40427505669E+01  0.28205692322E+00 -0.11543544308E+02  0.12234247165E+02  0.51100000000E-03 0.  1.
        -12    1    3    3    0    0 -0.71650735800E+00 -0.45714153450E+01  0.28972685026E+01  0.54594309069E+01  0.00000000000E+00 0.  1.
</event>
<event>
 7    1  0.2945316E-011  0.5052885E+02  0.7816164E-02  0.1300439E+00
        -11   -1    0    0    0    0  0.00000000000E+00  0.00000000000E+00  0.45593999997E+02  0.45594000000E+02  0.51100000000E-03 0.  1.
         11   -1    0    0    0    0 -0.00000000000E+00 -0.00000000000E+00 -0.45593999997E+02  0.45594000000E+02  0.51100000000E-03 0. -1.
    9900012    2    1    2    0    0  0.35779234628E+02  0.12834396889E-01  0.19313527364E+02  0.50528854232E+02  0.29999982925E+02 0.  0.
        -12    1    1    2    0    0 -0.35779234628E+02 -0.12834396889E-01 -0.19313527364E+02  0.40659145768E+02  0.00000000000E+00 0.  1.
         11    1    3    3    0    0  0.10993849969E+02 -0.10460476153E+02  0.50612978886E+00  0.15183624934E+02  0.51100000000E-03 0. -1.
        -11    1    3    3    0    0 -0.76957868069E+00 -0.14037137900E+01  0.29350116319E+00  0.16275155741E+01  0.51100000000E-03 0.  1.
         12    1    3    3    0    0  0.25554963340E+02  0.11877024340E+02  0.18513896412E+02  0.33717713725E+02  0.00000000000E+00 0. -1.
</event>
<event>
 7    1  0.2945316E-011  0.5052886E+02  0.7816164E-02  0.1300439E+00
        -11   -1    0    0    0    0  0.00000000000E+00  0.00000000000E+00  0.45593999997E+02  0.45594000000E+02  0.51100000000E-03 0.  1.
         11   -1    0    0    0    0 -0.00000000000E+00 -0.00000000000E+00 -0.45593999997E+02  0.45594000000E+02  0.51100000000E-03 0. -1.
    9900012    2    1    2    0    0 -0.54307833864E+01  0.49806274042E+01 -0.39985819968E+02  0.50528857657E+02  0.29999993334E+02 0.  0.
        -12    1    1    2    0    0  0.54307833864E+01 -0.49806274042E+01  0.39985819968E+02  0.40659142343E+02  0.00000000000E+00 0.  1.
         11    1    3    3    0    0 -0.69392064431E+01  0.18704978314E+01 -0.31278767965E+02  0.32093810522E+02  0.51100000000E-03 0. -1.
        -11    1    3    3    0    0 -0.28996551275E+01  0.58084386501E+01 -0.11006326302E+02  0.12778308900E+02  0.51100000000E-03 0.  1.
        -12    1    3    3    0    0  0.44080781843E+01 -0.26983090773E+01  0.22992742984E+01  0.56567382346E+01  0.00000000000E+00 0.  1.
</event>
<event>
 7    1  0.2945316E-011  0.5052886E+02  0.7816164E-02  0.1300439E+00
        -11   -1    0    0    0    0  0.00000000000E+00  0.00000000000E+00  0.45593999997E+02  0.45594000000E+02  0.51100000000E-03 0.  1.
         11   -1    0    0    0    0 -0.00000000000E+00 -0.00000000000E+00 -0.45593999997E+02  0.45594000000E+02  0.51100000000E-03 0. -1.
    9900012    2    1    2    0    0  0.21434457274E+02  0.30609332792E+02 -0.16024926273E+02  0.50528862347E+02  0.30000007591E+02 0.  0.
        -12    1    1    2    0    0 -0.21434457274E+02 -0.30609332792E+02  0.16024926273E+02  0.40659137653E+02  0.00000000000E+00 0.  1.
         11    1    3    3    0    0  0.16869552066E+02  0.20564885493E+02 -0.89650807218E+01  0.28069003809E+02  0.51100000000E-03 0. -1.
        -11    1    3    3    0    0  0.62281792392E+01  0.11976260616E+02 -0.11238589206E+02  0.17564934460E+02  0.51100000000E-03 0.  1.
        -12    1    3    3    0    0 -0.16632740314E+01 -0.19318133166E+01  0.41787436552E+01  0.48949240780E+01  0.00000000000E+00 0.  1.
</event>
<event>
 7    1  0.2945316E-011  0.5052886E+02  0.7816164E-02  0.1300439E+00
        -11   -1    0    0    0    0  0.00000000000E+00  0.00000000000E+00  0.45593999997E+02  0.45594000000E+02  0.51100000000E-03 0.  1.
         11   -1    0    0    0    0 -0.00000000000E+00 -0.00000000000E+00 -0.45593999997E+02  0.45594000000E+02  0.51100000000E-03 0. -1.
    9900012    2    1    2    0    0 -0.27795952682E+02 -0.21164018822E+02 -0.20799887800E+02  0.50528855755E+02  0.29999987554E+02 0.  0.
        -12    1    1    2    0    0  0.27795952682E+02  0.21164018822E+02  0.20799887800E+02  0.40659144245E+02  0.00000000000E+00 0.  1.
         11    1    3    3    0    0 -0.43600077738E+01 -0.13838387980E+02 -0.85663646247E+01  0.16849132108E+02  0.51100000000E-03 0. -1.
        -11    1    3    3    0    0 -0.51000170948E+01 -0.59446476167E+01  0.43143583824E+01  0.89421864310E+01  0.51100000000E-03 0.  1.
         12    1    3    3    0    0 -0.18335927814E+02 -0.13809832257E+01 -0.16547881558E+02  0.24737537216E+02  0.00000000000E+00 0. -1.
</event>
<event>
 7    1  0.2945316E-011  0.5052886E+02  0.7816164E-02  0.1300439E+00
        -11   -1    0    0    0    0  0.00000000000E+00  0.00000000000E+00  0.45593999997E+02  0.45594000000E+02  0.51100000000E-03 0. -1.
         11   -1    0    0    0    0 -0.00000000000E+00 -0.00000000000E+00 -0.45593999997E+02  0.45594000000E+02  0.51100000000E-03 0.  1.
    9900012    2    1    2    0    0  0.15524896293E+02  0.51130295205E+01  0.37229020812E+02  0.50528862449E+02  0.30000007900E+02 0.  0.
        -12    1    1    2    0    0 -0.15524896293E+02 -0.51130295205E+01 -0.37229020812E+02  0.40659137551E+02  0.00000000000E+00 0.  1.
         11    1    3    3    0    0  0.60230244715E+01  0.32947659703E+01  0.68586533577E+01  0.97042997030E+01  0.51100000000E-03 0. -1.
        -11    1    3    3    0    0  0.63059578224E+01  0.88643741604E+01  0.15556494244E+01  0.10989189174E+02  0.51100000000E-03 0.  1.
         12    1    3    3    0    0  0.31959139987E+01 -0.70461106102E+01  0.28814718030E+02  0.29835373572E+02  0.00000000000E+00 0. -1.
</event>
<event>
 7    1  0.2945316E-011  0.5052885E+02  0.7816164E-02  0.1300439E+00
        -11   -1    0    0    0    0  0.00000000000E+00  0.00000000000E+00  0.45593999997E+02  0.45594000000E+02  0.51100000000E-03 0.  1.
         11   -1    0    0    0    0 -0.00000000000E+00 -0.00000000000E+00 -0.45593999997E+02  0.45594000000E+02  0.51100000000E-03 0. -1.
    9900012    2    1    2    0    0 -0.54215815358E+01 -0.33237600649E+01 -0.40158754029E+02  0.50528850323E+02  0.29999971041E+02 0.  0.
        -12    1    1    2    0    0  0.54215815358E+01  0.33237600649E+01  0.40158754029E+02  0.40659149677E+02  0.00000000000E+00 0.  1.
         11    1    3    3    0    0 -0.34117844754E+01 -0.50534728709E+01 -0.14218773217E+02  0.15470984888E+02  0.51100000000E-03 0. -1.
        -11    1    3    3    0    0  0.13805437961E+01 -0.10441104658E+02 -0.15103372397E+02  0.18412887488E+02  0.51100000000E-03 0.  1.
         12    1    3    3    0    0 -0.33903408565E+01  0.12170817464E+02 -0.10836608416E+02  0.16644977946E+02  0.00000000000E+00 0. -1.
</event>
<event>
 7    1  0.2945316E-011  0.5052885E+02  0.7816164E-02  0.1300439E+00
        -11   -1    0    0    0    0  0.00000000000E+00  0.00000000000E+00  0.45593999997E+02  0.45594000000E+02  0.51100000000E-03 0.  1.
         11   -1    0    0    0    0 -0.00000000000E+00 -0.00000000000E+00 -0.45593999997E+02  0.45594000000E+02  0.51100000000E-03 0. -1.
    9900012    2    1    2    0    0  0.24534668164E+02  0.23407964148E+02 -0.22433985460E+02  0.50528850585E+02  0.29999971840E+02 0.  0.
        -12    1    1    2    0    0 -0.24534668164E+02 -0.23407964148E+02  0.22433985460E+02  0.40659149415E+02  0.00000000000E+00 0.  1.
         11    1    3    3    0    0  0.33498811814E+01  0.18132852955E+02 -0.10643071749E+02  0.21290773512E+02  0.51100000000E-03 0.  1.
        -11    1    3    3    0    0  0.13714987368E+02  0.90076666035E+01 -0.22549394590E+01  0.16562719836E+02  0.51100000000E-03 0. -1.
         12    1    3    3    0    0  0.74697996141E+01 -0.37325554097E+01 -0.95359742525E+01  0.12675357238E+02  0.00000000000E+00 0. -1.
</event>
<event>
 7    1  0.2945316E-011  0.5052887E+02  0.7816164E-02  0.1300439E+00
        -11   -1    0    0    0    0  0.00000000000E+00  0.00000000000E+00  0.45593999997E+02  0.45594000000E+02  0.51100000000E-03 0. -1.
         11   -1    0    0    0    0 -0.00000000000E+00 -0.00000000000E+00 -0.45593999997E+02  0.45594000000E+02  0.51100000000E-03 0.  1.
    9900012    2    1    2    0    0 -0.35801505268E+02  0.16849879348E+01  0.19198392772E+02  0.50528865124E+02  0.30000016032E+02 0.  0.
        -12    1    1    2    0    0  0.35801505268E+02 -0.16849879348E+01 -0.19198392772E+02  0.40659134876E+02  0.00000000000E+00 0.  1.
         11    1    3    3    0    0 -0.27302187957E+02  0.39730486323E+00  0.45972190064E+01  0.27689379575E+02  0.51100000000E-03 0.  1.
        -11    1    3    3    0    0 -0.10828266724E+02  0.57577702686E+01  0.12038046733E+02  0.17184814462E+02  0.51100000000E-03 0. -1.
        -12    1    3    3    0    0  0.23289494127E+01 -0.44700871970E+01  0.25631270332E+01  0.56546710872E+01  0.00000000000E+00 0.  1.
</event>
<event>
 7    1  0.2945316E-011  0.5052888E+02  0.7816164E-02  0.1300439E+00
        -11   -1    0    0    0    0  0.00000000000E+00  0.00000000000E+00  0.45593999997E+02  0.45594000000E+02  0.51100000000E-03 0. -1.
         11   -1    0    0    0    0 -0.00000000000E+00 -0.00000000000E+00 -0.45593999997E+02  0.45594000000E+02  0.51100000000E-03 0.  1.
    9900012    2    1    2    0    0 -0.13486274868E+01 -0.92866649024E+01  0.39561382631E+02  0.50528881259E+02  0.30000065075E+02 0.  0.
        -12    1    1    2    0    0  0.13486274868E+01  0.92866649024E+01 -0.39561382631E+02  0.40659118741E+02  0.00000000000E+00 0.  1.
         11    1    3    3    0    0 -0.24676821202E+00  0.21450244991E+01 -0.20607571438E+01  0.29847520699E+01  0.51100000000E-03 0. -1.
        -11    1    3    3    0    0 -0.51067930763E+00  0.52846905098E+00 -0.20931455476E+01  0.22184074102E+01  0.51100000000E-03 0.  1.
         12    1    3    3    0    0 -0.59117996713E+00 -0.11960158452E+02  0.43715285322E+02  0.45325721779E+02  0.00000000000E+00 0. -1.
</event>
<event>
 7    1  0.2945316E-011  0.5052889E+02  0.7816164E-02  0.1300439E+00
        -11   -1    0    0    0    0  0.00000000000E+00  0.00000000000E+00  0.45593999997E+02  0.45594000000E+02  0.51100000000E-03 0.  1.
         11   -1    0    0    0    0 -0.00000000000E+00 -0.00000000000E+00 -0.45593999997E+02  0.45594000000E+02  0.51100000000E-03 0. -1.
    9900012    2    1    2    0    0  0.14848754361E+02 -0.22383379364E+02 -0.30523133899E+02  0.50528894244E+02  0.30000104544E+02 0.  0.
        -12    1    1    2    0    0 -0.14848754361E+02  0.22383379364E+02  0.30523133899E+02  0.40659105756E+02  0.00000000000E+00 0.  1.
         11    1    3    3    0    0  0.13116082929E+01 -0.27342167346E+01 -0.54781172418E-01  0.30330279761E+01  0.51100000000E-03 0. -1.
        -11    1    3    3    0    0  0.15674327793E+01  0.56082154794E+01  0.42083076223E+00  0.58383238324E+01  0.51100000000E-03 0.  1.
         12    1    3    3    0    0  0.11969713289E+02 -0.25257378109E+02 -0.30889183489E+02  0.41657542436E+02  0.00000000000E+00 0. -1.
</event>
<event>
 7    1  0.2945316E-011  0.5052888E+02  0.7816164E-02  0.1300439E+00
        -11   -1    0    0    0    0  0.00000000000E+00  0.00000000000E+00  0.45593999997E+02  0.45594000000E+02  0.51100000000E-03 0.  1.
         11   -1    0    0    0    0 -0.00000000000E+00 -0.00000000000E+00 -0.45593999997E+02  0.45594000000E+02  0.51100000000E-03 0. -1.
    9900012    2    1    2    0    0  0.21318490289E+02  0.31117016310E+02 -0.15179496905E+02  0.50528882222E+02  0.30000068001E+02 0.  0.
        -12    1    1    2    0    0 -0.21318490289E+02 -0.31117016310E+02  0.15179496905E+02  0.40659117778E+02  0.00000000000E+00 0.  1.
         11    1    3    3    0    0  0.16801208689E+02  0.13585055847E+02 -0.19596445949E+02  0.29169419773E+02  0.51100000000E-03 0. -1.
        -11    1    3    3    0    0  0.41920460081E+01  0.54276904435E+01 -0.26351661242E+01  0.73469159548E+01  0.51100000000E-03 0.  1.
        -12    1    3    3    0    0  0.32523559218E+00  0.12104270019E+02  0.70521151689E+01  0.14012546494E+02  0.00000000000E+00 0.  1.
</event>
<event>
 7    1  0.2945316E-011  0.5052885E+02  0.7816164E-02  0.1300439E+00
        -11   -1    0    0    0    0  0.00000000000E+00  0.00000000000E+00  0.45593999997E+02  0.45594000000E+02  0.51100000000E-03 0.  1.
         11   -1    0    0    0    0 -0.00000000000E+00 -0.00000000000E+00 -0.45593999997E+02  0.45594000000E+02  0.51100000000E-03 0. -1.
    9900012    2    1    2    0    0 -0.25708879054E+02 -0.12306405374E+02 -0.28996076627E+02  0.50528849305E+02  0.29999967948E+02 0.  0.
        -12    1    1    2    0    0  0.25708879054E+02  0.12306405374E+02  0.28996076627E+02  0.40659150695E+02  0.00000000000E+00 0.  1.
         11    1    3    3    0    0  0.39300740813E+01 -0.37348572460E+01 -0.31635643634E+01  0.62771634259E+01  0.51100000000E-03 0. -1.
        -11    1    3    3    0    0  0.10485382245E+01 -0.48696490030E+01 -0.29026844922E+01  0.57652832838E+01  0.51100000000E-03 0.  1.
        -12    1    3    3    0    0 -0.30687491360E+02 -0.37018991251E+01 -0.22929827772E+02  0.38486402595E+02  0.00000000000E+00 0.  1.
</event>
<event>
 7    1  0.2945316E-011  0.5052886E+02  0.7816164E-02  0.1300439E+00
        -11   -1    0    0    0    0  0.00000000000E+00  0.00000000000E+00  0.45593999997E+02  0.45594000000E+02  0.51100000000E-03 0. -1.
         11   -1    0    0    0    0 -0.00000000000E+00 -0.00000000000E+00 -0.45593999997E+02  0.45594000000E+02  0.51100000000E-03 0.  1.
    9900012    2    1    2    0    0  0.22290874769E+02  0.64607495016E+00  0.33998022309E+02  0.50528855497E+02  0.29999986768E+02 0.  0.
        -12    1    1    2    0    0 -0.22290874769E+02 -0.64607495016E+00 -0.33998022309E+02  0.40659144503E+02  0.00000000000E+00 0.  1.
         11    1    3    3    0    0  0.12114444520E+02 -0.76069990349E+01  0.10203629640E+02  0.17571006187E+02  0.51100000000E-03 0. -1.
        -11    1    3    3    0    0  0.67521625806E+01 -0.53178019313E+01  0.11291275759E+02  0.14190265164E+02  0.51100000000E-03 0.  1.
        -12    1    3    3    0    0  0.34242676682E+01  0.13570875916E+02  0.12503116911E+02  0.18767584146E+02  0.00000000000E+00 0.  1.
</event>
<event>
 7    1  0.2945316E-011  0.5052886E+02  0.7816164E-02  0.1300439E+00
        -11   -1    0    0    0    0  0.00000000000E+00  0.00000000000E+00  0.45593999997E+02  0.45594000000E+02  0.51100000000E-03 0.  1.
         11   -1    0    0    0    0 -0.00000000000E+00 -0.00000000000E+00 -0.45593999997E+02  0.45594000000E+02  0.51100000000E-03 0. -1.
    9900012    2    1    2    0    0 -0.18399657487E+02 -0.13638998564E+02 -0.33594585163E+02  0.50528857981E+02  0.29999994318E+02 0.  0.
        -12    1    1    2    0    0  0.18399657487E+02  0.13638998564E+02  0.33594585163E+02  0.40659142019E+02  0.00000000000E+00 0.  1.
         11    1    3    3    0    0 -0.11251566495E+01  0.91772120928E+00  0.35903048952E+00  0.14956914312E+01  0.51100000000E-03 0.  1.
        -11    1    3    3    0    0 -0.44135262928E+01  0.66726988789E+00  0.41101557528E+01  0.60677709263E+01  0.51100000000E-03 0. -1.
         12    1    3    3    0    0 -0.12860974545E+02 -0.15223989662E+02 -0.38063771405E+02  0.42965395623E+02  0.00000000000E+00 0. -1.
</event>
<event>
 7    1  0.2945316E-011  0.5052887E+02  0.7816164E-02  0.1300439E+00
        -11   -1    0    0    0    0  0.00000000000E+00  0.00000000000E+00  0.45593999997E+02  0.45594000000E+02  0.51100000000E-03 0.  1.
         11   -1    0    0    0    0 -0.00000000000E+00 -0.00000000000E+00 -0.45593999997E+02  0.45594000000E+02  0.51100000000E-03 0. -1.
    9900012    2    1    2    0    0  0.67697190934E+01  0.30526638752E+02 -0.25989619684E+02  0.50528866937E+02  0.30000021541E+02 0.  0.
        -12    1    1    2    0    0 -0.67697190934E+01 -0.30526638752E+02  0.25989619684E+02  0.40659133063E+02  0.00000000000E+00 0.  1.
         11    1    3    3    0    0  0.13374758139E+02  0.22130532440E+02 -0.10165458094E+02  0.27784548942E+02  0.51100000000E-03 0. -1.
        -11    1    3    3    0    0  0.34621565328E+01  0.40912575712E+00 -0.33392173144E+01  0.48274511159E+01  0.51100000000E-03 0.  1.
         12    1    3    3    0    0 -0.10067195578E+02  0.79869805547E+01 -0.12484944276E+02  0.17916866879E+02  0.00000000000E+00 0. -1.
</event>
<event>
 7    1  0.2945316E-011  0.5052886E+02  0.7816164E-02  0.1300439E+00
        -11   -1    0    0    0    0  0.00000000000E+00  0.00000000000E+00  0.45593999997E+02  0.45594000000E+02  0.51100000000E-03 0. -1.
         11   -1    0    0    0    0 -0.00000000000E+00 -0.00000000000E+00 -0.45593999997E+02  0.45594000000E+02  0.51100000000E-03 0.  1.
    9900012    2    1    2    0    0 -0.34181403395E+01  0.27546170063E+02  0.29710106678E+02  0.50528860715E+02  0.30000002631E+02 0.  0.
        -12    1    1    2    0    0  0.34181403395E+01 -0.27546170063E+02 -0.29710106678E+02  0.40659139285E+02  0.00000000000E+00 0.  1.
         11    1    3    3    0    0  0.86473301752E-01  0.14768522987E+02  0.22387008544E+02  0.26819673761E+02  0.51100000000E-03 0. -1.
        -11    1    3    3    0    0 -0.41237836984E+01  0.14762249712E+02  0.11420648551E+02  0.19114413989E+02  0.51100000000E-03 0.  1.
        -12    1    3    3    0    0  0.61917005710E+00 -0.19846026364E+01 -0.40975504167E+01  0.45947729652E+01  0.00000000000E+00 0.  1.
</event>
<event>
 7    1  0.2945316E-011  0.5052885E+02  0.7816164E-02  0.1300439E+00
        -11   -1    0    0    0    0  0.00000000000E+00  0.00000000000E+00  0.45593999997E+02  0.45594000000E+02  0.51100000000E-03 0.  1.
         11   -1    0    0    0    0 -0.00000000000E+00 -0.00000000000E+00 -0.45593999997E+02  0.45594000000E+02  0.51100000000E-03 0. -1.
    9900012    2    1    2    0    0 -0.36092530043E+02 -0.18181318757E+02  0.44649416136E+01  0.50528846291E+02  0.29999958787E+02 0.  0.
        -12    1    1    2    0    0  0.36092530043E+02  0.18181318757E+02 -0.44649416136E+01  0.40659153709E+02  0.00000000000E+00 0.  1.
         11    1    3    3    0    0 -0.32911802612E+01 -0.57026054139E+01  0.34167723324E+01  0.74179450963E+01  0.51100000000E-03 0. -1.
        -11    1    3    3    0    0 -0.27905664849E+01 -0.28984423161E+01  0.96496917285E+01  0.10454892629E+02  0.51100000000E-03 0.  1.
         12    1    3    3    0    0 -0.30010783297E+02 -0.95802710273E+01 -0.86015224473E+01  0.32656008566E+02  0.00000000000E+00 0. -1.
</event>
<event>
 7    1  0.2945316E-011  0.5052886E+02  0.7816164E-02  0.1300439E+00
        -11   -1    0    0    0    0  0.00000000000E+00  0.00000000000E+00  0.45593999997E+02  0.45594000000E+02  0.51100000000E-03 0.  1.
         11   -1    0    0    0    0 -0.00000000000E+00 -0.00000000000E+00 -0.45593999997E+02  0.45594000000E+02  0.51100000000E-03 0. -1.
    9900012    2    1    2    0    0  0.39956281774E+02 -0.74341458501E+01 -0.11809790352E+01  0.50528859709E+02  0.29999999571E+02 0.  0.
        -12    1    1    2    0    0 -0.39956281774E+02  0.74341458501E+01  0.11809790352E+01  0.40659140291E+02  0.00000000000E+00 0.  1.
         11    1    3    3    0    0  0.98223985539E+01 -0.49653761084E+01 -0.10534194136E+02  0.15234950594E+02  0.51100000000E-03 0. -1.
        -11    1    3    3    0    0  0.16481025077E+01 -0.28506620456E+01  0.56858358111E+01  0.65704828670E+01  0.51100000000E-03 0.  1.
         12    1    3    3    0    0  0.28485780713E+02  0.38189230393E+00  0.36673792899E+01  0.28723426247E+02  0.00000000000E+00 0. -1.
</event>
<event>
 7    1  0.2945316E-011  0.5052886E+02  0.7816164E-02  0.1300439E+00
        -11   -1    0    0    0    0  0.00000000000E+00  0.00000000000E+00  0.45593999997E+02  0.45594000000E+02  0.51100000000E-03 0.  1.
         11   -1    0    0    0    0 -0.00000000000E+00 -0.00000000000E+00 -0.45593999997E+02  0.45594000000E+02  0.51100000000E-03 0. -1.
    9900012    2    1    2    0    0  0.22643619796E+02 -0.31732946794E+02 -0.11552151288E+02  0.50528860449E+02  0.30000001819E+02 0.  0.
        -12    1    1    2    0    0 -0.22643619796E+02  0.31732946794E+02  0.11552151288E+02  0.40659139551E+02  0.00000000000E+00 0.  1.
         11    1    3    3    0    0  0.10722649563E+02 -0.76423436672E+01  0.56946411358E+01  0.14346064558E+02  0.51100000000E-03 0. -1.
        -11    1    3    3    0    0 -0.42076621070E+01 -0.44621078818E+01 -0.15720599175E+01  0.63313663455E+01  0.51100000000E-03 0.  1.
         12    1    3    3    0    0  0.16128632340E+02 -0.19628495245E+02 -0.15674732507E+02  0.29851429545E+02  0.00000000000E+00 0. -1.
</event>
<event>
 7    1  0.2945316E-011  0.5052887E+02  0.7816164E-02  0.1300439E+00
        -11   -1    0    0    0    0  0.00000000000E+00  0.00000000000E+00  0.45593999997E+02  0.45594000000E+02  0.51100000000E-03 0.  1.
         11   -1    0    0    0    0 -0.00000000000E+00 -0.00000000000E+00 -0.45593999997E+02  0.45594000000E+02  0.51100000000E-03 0. -1.
    9900012    2    1    2    0    0 -0.11081835086E+02  0.15374877659E+02 -0.35971808123E+02  0.50528869272E+02  0.30000028639E+02 0.  0.
        -12    1    1    2    0    0  0.11081835086E+02 -0.15374877659E+02  0.35971808123E+02  0.40659130728E+02  0.00000000000E+00 0.  1.
         11    1    3    3    0    0  0.80457803162E+01 -0.72031984814E+00 -0.70898736520E+01  0.10748011455E+02  0.51100000000E-03 0. -1.
        -11    1    3    3    0    0 -0.89801472717E+00  0.41445698560E+01 -0.94230554078E+00  0.43441719274E+01  0.51100000000E-03 0.  1.
         12    1    3    3    0    0 -0.18229600675E+02  0.11950627651E+02 -0.27939628931E+02  0.35436685889E+02  0.00000000000E+00 0. -1.
</event>
<event>
 7    1  0.2945316E-011  0.5052884E+02  0.7816164E-02  0.1300439E+00
        -11   -1    0    0    0    0  0.00000000000E+00  0.00000000000E+00  0.45593999997E+02  0.45594000000E+02  0.51100000000E-03 0. -1.
         11   -1    0    0    0    0 -0.00000000000E+00 -0.00000000000E+00 -0.45593999997E+02  0.45594000000E+02  0.51100000000E-03 0.  1.
    9900012    2    1    2    0    0 -0.19784128600E+02  0.10106321554E+02  0.34053155711E+02  0.50528844897E+02  0.29999954549E+02 0.  0.
        -12    1    1    2    0    0  0.19784128600E+02 -0.10106321554E+02 -0.34053155711E+02  0.40659155103E+02  0.00000000000E+00 0.  1.
         11    1    3    3    0    0 -0.16814973666E+02 -0.27442568894E+01  0.22613258380E+02  0.28313137234E+02  0.51100000000E-03 0. -1.
        -11    1    3    3    0    0 -0.78309899611E+01  0.11114917432E+02  0.99315571524E+01  0.16837506378E+02  0.51100000000E-03 0.  1.
        -12    1    3    3    0    0  0.48618350263E+01  0.17356610112E+01  0.15083401788E+01  0.53782012852E+01  0.00000000000E+00 0.  1.
</event>
<event>
 7    1  0.2945316E-011  0.5052885E+02  0.7816164E-02  0.1300439E+00
        -11   -1    0    0    0    0  0.00000000000E+00  0.00000000000E+00  0.45593999997E+02  0.45594000000E+02  0.51100000000E-03 0.  1.
         11   -1    0    0    0    0 -0.00000000000E+00 -0.00000000000E+00 -0.45593999997E+02  0.45594000000E+02  0.51100000000E-03 0. -1.
    9900012    2    1    2    0    0  0.17428641847E+02  0.35899440698E+02 -0.77870868347E+01  0.50528854406E+02  0.29999983453E+02 0.  0.
        -12    1    1    2    0    0 -0.17428641847E+02 -0.35899440698E+02  0.77870868347E+01  0.40659145594E+02  0.00000000000E+00 0.  1.
         11    1    3    3    0    0  0.11839619093E+02  0.12180371703E+02 -0.22618603391E+00  0.16987913217E+02  0.51100000000E-03 0. -1.
        -11    1    3    3    0    0  0.60846667132E+01  0.78681288582E+01  0.68787495712E+01  0.12093296352E+02  0.51100000000E-03 0.  1.
        -12    1    3    3    0    0 -0.49564395991E+00  0.15850940137E+02 -0.14439650372E+02  0.21447644836E+02  0.00000000000E+00 0.  1.
</event>
<event>
 7    1  0.2945316E-011  0.5052886E+02  0.7816164E-02  0.1300439E+00
        -11   -1    0    0    0    0  0.00000000000E+00  0.00000000000E+00  0.45593999997E+02  0.45594000000E+02  0.51100000000E-03 0. -1.
         11   -1    0    0    0    0 -0.00000000000E+00 -0.00000000000E+00 -0.45593999997E+02  0.45594000000E+02  0.51100000000E-03 0.  1.
    9900012    2    1    2    0    0  0.27614918735E+02 -0.16829111870E+02  0.24644735417E+02  0.50528859246E+02  0.29999998164E+02 0.  0.
        -12    1    1    2    0    0 -0.27614918735E+02  0.16829111870E+02 -0.24644735417E+02  0.40659140754E+02  0.00000000000E+00 0.  1.
         11    1    3    3    0    0  0.11018955497E+02 -0.68114649592E+01 -0.16789637855E+01  0.13062632001E+02  0.51100000000E-03 0. -1.
        -11    1    3    3    0    0  0.97485473545E+01 -0.81675007156E+01  0.29711411903E+01  0.13060242099E+02  0.51100000000E-03 0.  1.
        -12    1    3    3    0    0  0.68474158838E+01 -0.18501461952E+01  0.23352558012E+02  0.24405985146E+02  0.00000000000E+00 0.  1.
</event>
<event>
 7    1  0.2945316E-011  0.5052886E+02  0.7816164E-02  0.1300439E+00
        -11   -1    0    0    0    0  0.00000000000E+00  0.00000000000E+00  0.45593999997E+02  0.45594000000E+02  0.51100000000E-03 0. -1.
         11   -1    0    0    0    0 -0.00000000000E+00 -0.00000000000E+00 -0.45593999997E+02  0.45594000000E+02  0.51100000000E-03 0.  1.
    9900012    2    1    2    0    0  0.36306063418E+02 -0.48541625842E+01 -0.17648593221E+02  0.50528856158E+02  0.29999988777E+02 0.  0.
        -12    1    1    2    0    0 -0.36306063418E+02  0.48541625842E+01  0.17648593221E+02  0.40659143842E+02  0.00000000000E+00 0.  1.
         11    1    3    3    0    0  0.17927887391E+02 -0.29307073723E+01  0.19809734417E+01  0.18273545032E+02  0.51100000000E-03 0. -1.
        -11    1    3    3    0    0  0.82314504180E+01 -0.97524795858E+01 -0.10376222567E+02  0.16447906525E+02  0.51100000000E-03 0.  1.
         12    1    3    3    0    0  0.10146725609E+02  0.78290243739E+01 -0.92533440957E+01  0.15807404600E+02  0.00000000000E+00 0. -1.
</event>
<event>
 7    1  0.2945316E-011  0.5052886E+02  0.7816164E-02  0.1300439E+00
        -11   -1    0    0    0    0  0.00000000000E+00  0.00000000000E+00  0.45593999997E+02  0.45594000000E+02  0.51100000000E-03 0.  1.
         11   -1    0    0    0    0 -0.00000000000E+00 -0.00000000000E+00 -0.45593999997E+02  0.45594000000E+02  0.51100000000E-03 0. -1.
    9900012    2    1    2    0    0  0.19702146730E+02 -0.30760805877E+02 -0.17853954173E+02  0.50528862729E+02  0.30000008752E+02 0.  0.
        -12    1    1    2    0    0 -0.19702146730E+02  0.30760805877E+02  0.17853954173E+02  0.40659137271E+02  0.00000000000E+00 0.  1.
         11    1    3    3    0    0  0.12887401733E+02 -0.16878607792E+02 -0.12102827982E+02  0.24442810187E+02  0.51100000000E-03 0. -1.
        -11    1    3    3    0    0 -0.17829236665E+01 -0.16246719069E+02 -0.52026013347E+01  0.17152310579E+02  0.51100000000E-03 0.  1.
        -12    1    3    3    0    0  0.85976686640E+01  0.23645209840E+01 -0.54852485632E+00  0.89337419628E+01  0.00000000000E+00 0.  1.
</event>
<event>
 7    1  0.2945316E-011  0.5052886E+02  0.7816164E-02  0.1300439E+00
        -11   -1    0    0    0    0  0.00000000000E+00  0.00000000000E+00  0.45593999997E+02  0.45594000000E+02  0.51100000000E-03 0. -1.
         11   -1    0    0    0    0 -0.00000000000E+00 -0.00000000000E+00 -0.45593999997E+02  0.45594000000E+02  0.51100000000E-03 0.  1.
    9900012    2    1    2    0    0 -0.59034812465E+01 -0.23555652095E+02  0.32610516516E+02  0.50528860512E+02  0.30000002014E+02 0.  0.
        -12    1    1    2    0    0  0.59034812465E+01  0.23555652095E+02 -0.32610516516E+02  0.40659139488E+02  0.00000000000E+00 0.  1.
         11    1    3    3    0    0  0.64595914852E+01 -0.24076562544E+01  0.41807523855E+01  0.80623707161E+01  0.51100000000E-03 0. -1.
        -11    1    3    3    0    0 -0.49886499876E+01 -0.23260121114E+02  0.20111063282E+02  0.31150838344E+02  0.51100000000E-03 0.  1.
         12    1    3    3    0    0 -0.73744227441E+01  0.21121252740E+01  0.83187008486E+01  0.11315651452E+02  0.00000000000E+00 0. -1.
</event>
<event>
 7    1  0.2945316E-011  0.5052887E+02  0.7816164E-02  0.1300439E+00
        -11   -1    0    0    0    0  0.00000000000E+00  0.00000000000E+00  0.45593999997E+02  0.45594000000E+02  0.51100000000E-03 0.  1.
         11   -1    0    0    0    0 -0.00000000000E+00 -0.00000000000E+00 -0.45593999997E+02  0.45594000000E+02  0.51100000000E-03 0. -1.
    9900012    2    1    2    0    0 -0.34274926423E+02  0.16877813412E+02 -0.13911627104E+02  0.50528873895E+02  0.30000042692E+02 0.  0.
        -12    1    1    2    0    0  0.34274926423E+02 -0.16877813412E+02  0.13911627104E+02  0.40659126105E+02  0.00000000000E+00 0.  1.
         11    1    3    3    0    0 -0.18634365389E+02 -0.14029438702E+01  0.94491791725E+00  0.18710977930E+02  0.51100000000E-03 0. -1.
        -11    1    3    3    0    0  0.10499670218E+01 -0.75789993021E+00  0.12583805884E+01  0.18056480879E+01  0.51100000000E-03 0.  1.
         12    1    3    3    0    0 -0.16690528056E+02  0.19038657212E+02 -0.16114925610E+02  0.30012247877E+02  0.00000000000E+00 0. -1.
</event>
<event>
 7    1  0.2945316E-011  0.5052889E+02  0.7816164E-02  0.1300439E+00
        -11   -1    0    0    0    0  0.00000000000E+00  0.00000000000E+00  0.45593999997E+02  0.45594000000E+02  0.51100000000E-03 0.  1.
         11   -1    0    0    0    0 -0.00000000000E+00 -0.00000000000E+00 -0.45593999997E+02  0.45594000000E+02  0.51100000000E-03 0. -1.
    9900012    2    1    2    0    0  0.63139626241E+01  0.27312344349E+02 -0.29450516048E+02  0.50528890647E+02  0.30000093612E+02 0.  0.
        -12    1    1    2    0    0 -0.63139626241E+01 -0.27312344349E+02  0.29450516048E+02  0.40659109353E+02  0.00000000000E+00 0.  1.
         11    1    3    3    0    0  0.34485978128E+01  0.15916650038E+02 -0.12045464032E+02  0.20256499680E+02  0.51100000000E-03 0. -1.
        -11    1    3    3    0    0  0.96677020608E+01  0.13511113030E+02 -0.79058817258E+01  0.18398847914E+02  0.51100000000E-03 0.  1.
        -12    1    3    3    0    0 -0.68023372494E+01 -0.21154187191E+01 -0.94991702911E+01  0.11873543053E+02  0.00000000000E+00 0.  1.
</event>
<event>
 7    1  0.2945316E-011  0.5052886E+02  0.7816164E-02  0.1300439E+00
        -11   -1    0    0    0    0  0.00000000000E+00  0.00000000000E+00  0.45593999997E+02  0.45594000000E+02  0.51100000000E-03 0. -1.
         11   -1    0    0    0    0 -0.00000000000E+00 -0.00000000000E+00 -0.45593999997E+02  0.45594000000E+02  0.51100000000E-03 0.  1.
    9900012    2    1    2    0    0 -0.29173619850E+02 -0.28240989593E+02  0.21241115235E+01  0.50528862797E+02  0.30000008957E+02 0.  0.
        -12    1    1    2    0    0  0.29173619850E+02  0.28240989593E+02 -0.21241115235E+01  0.40659137203E+02  0.00000000000E+00 0.  1.
         11    1    3    3    0    0 -0.77706486498E+01 -0.92253679160E+00  0.13003999101E+01  0.79325339430E+01  0.51100000000E-03 0. -1.
        -11    1    3    3    0    0 -0.83730696693E+01 -0.39227641123E+01 -0.10083264366E+02  0.13680957368E+02  0.51100000000E-03 0.  1.
         12    1    3    3    0    0 -0.13029901531E+02 -0.23395688689E+02  0.10906975979E+02  0.28915371486E+02  0.00000000000E+00 0. -1.
</event>
<event>
 7    1  0.2945316E-011  0.5052887E+02  0.7816164E-02  0.1300439E+00
        -11   -1    0    0    0    0  0.00000000000E+00  0.00000000000E+00  0.45593999997E+02  0.45594000000E+02  0.51100000000E-03 0.  1.
         11   -1    0    0    0    0 -0.00000000000E+00 -0.00000000000E+00 -0.45593999997E+02  0.45594000000E+02  0.51100000000E-03 0. -1.
    9900012    2    1    2    0    0 -0.56608161649E+01 -0.19249197160E+02 -0.35363663738E+02  0.50528866414E+02  0.30000019953E+02 0.  0.
        -12    1    1    2    0    0  0.56608161649E+01  0.19249197160E+02  0.35363663738E+02  0.40659133586E+02  0.00000000000E+00 0.  1.
         11    1    3    3    0    0  0.43905156700E+01 -0.13267719802E+02 -0.14412443516E+02  0.20075545944E+02  0.51100000000E-03 0.  1.
        -11    1    3    3    0    0 -0.90226050414E+01  0.39108702008E+01 -0.17221378395E+02  0.19831242562E+02  0.51100000000E-03 0. -1.
         12    1    3    3    0    0 -0.10287267935E+01 -0.98923475589E+01 -0.37298418273E+01  0.10622077909E+02  0.00000000000E+00 0. -1.
</event>
<event>
 7    1  0.2945316E-011  0.5052885E+02  0.7816164E-02  0.1300439E+00
        -11   -1    0    0    0    0  0.00000000000E+00  0.00000000000E+00  0.45593999997E+02  0.45594000000E+02  0.51100000000E-03 0.  1.
         11   -1    0    0    0    0 -0.00000000000E+00 -0.00000000000E+00 -0.45593999997E+02  0.45594000000E+02  0.51100000000E-03 0. -1.
    9900012    2    1    2    0    0 -0.15416590948E+02  0.37076036287E+02  0.63923649873E+01  0.50528854985E+02  0.29999985213E+02 0.  0.
        -12    1    1    2    0    0  0.15416590948E+02 -0.37076036287E+02 -0.63923649873E+01  0.40659145015E+02  0.00000000000E+00 0.  1.
         11    1    3    3    0    0 -0.35392969461E+01  0.17637482232E+02  0.11570398418E+02  0.21388817689E+02  0.51100000000E-03 0. -1.
        -11    1    3    3    0    0 -0.41100713070E+01  0.21467413236E+01  0.56500859709E+01  0.73092172084E+01  0.51100000000E-03 0.  1.
         12    1    3    3    0    0 -0.77672226946E+01  0.17291812732E+02 -0.10828119401E+02  0.21830820088E+02  0.00000000000E+00 0. -1.
</event>
<event>
 7    1  0.2945316E-011  0.5052895E+02  0.7816164E-02  0.1300438E+00
        -11   -1    0    0    0    0  0.00000000000E+00  0.00000000000E+00  0.45593999997E+02  0.45594000000E+02  0.51100000000E-03 0. -1.
         11   -1    0    0    0    0 -0.00000000000E+00 -0.00000000000E+00 -0.45593999997E+02  0.45594000000E+02  0.51100000000E-03 0.  1.
    9900012    2    1    2    0    0  0.23764989862E+02  0.17240905589E+02  0.28127121875E+02  0.50528947458E+02  0.30000266291E+02 0.  0.
        -12    1    1    2    0    0 -0.23764989862E+02 -0.17240905589E+02 -0.28127121875E+02  0.40659052542E+02  0.00000000000E+00 0.  1.
         11    1    3    3    0    0  0.10707829341E+02 -0.19318986684E+01  0.14349611662E+01  0.10974923939E+02  0.51100000000E-03 0. -1.
        -11    1    3    3    0    0  0.83819300030E+01  0.15324247592E+02  0.67717432868E+01  0.18733548042E+02  0.51100000000E-03 0.  1.
        -12    1    3    3    0    0  0.46752305181E+01  0.38485566659E+01  0.19920417422E+02  0.20820475477E+02  0.00000000000E+00 0.  1.
</event>
<event>
 7    1  0.2945316E-011  0.5052886E+02  0.7816164E-02  0.1300439E+00
        -11   -1    0    0    0    0  0.00000000000E+00  0.00000000000E+00  0.45593999997E+02  0.45594000000E+02  0.51100000000E-03 0.  1.
         11   -1    0    0    0    0 -0.00000000000E+00 -0.00000000000E+00 -0.45593999997E+02  0.45594000000E+02  0.51100000000E-03 0. -1.
    9900012    2    1    2    0    0  0.29159764835E+02  0.43403613310E+01 -0.28000621801E+02  0.50528862737E+02  0.30000008775E+02 0.  0.
        -12    1    1    2    0    0 -0.29159764835E+02 -0.43403613310E+01  0.28000621801E+02  0.40659137263E+02  0.00000000000E+00 0.  1.
         11    1    3    3    0    0  0.16406016620E+02  0.53561766992E+01 -0.81933030005E+01  0.19104350930E+02  0.51100000000E-03 0. -1.
        -11    1    3    3    0    0  0.14833255369E+02  0.46212146461E+01 -0.65337554624E+01  0.16854407446E+02  0.51100000000E-03 0.  1.
        -12    1    3    3    0    0 -0.20795071536E+01 -0.56370300144E+01 -0.13273563338E+02  0.14570104361E+02  0.00000000000E+00 0.  1.
</event>
<event>
 7    1  0.2945316E-011  0.5052886E+02  0.7816164E-02  0.1300439E+00
        -11   -1    0    0    0    0  0.00000000000E+00  0.00000000000E+00  0.45593999997E+02  0.45594000000E+02  0.51100000000E-03 0. -1.
         11   -1    0    0    0    0 -0.00000000000E+00 -0.00000000000E+00 -0.45593999997E+02  0.45594000000E+02  0.51100000000E-03 0.  1.
    9900012    2    1    2    0    0  0.99667964435E+01  0.15956429799E+02  0.36044704061E+02  0.50528863583E+02  0.30000011348E+02 0.  0.
        -12    1    1    2    0    0 -0.99667964435E+01 -0.15956429799E+02 -0.36044704061E+02  0.40659136417E+02  0.00000000000E+00 0.  1.
         11    1    3    3    0    0  0.63519838745E+01 -0.14224325257E+01  0.73354156756E+01  0.98071064452E+01  0.51100000000E-03 0. -1.
        -11    1    3    3    0    0  0.24979370595E+00 -0.28782583703E+01  0.16668959986E+02  0.16917476036E+02  0.51100000000E-03 0.  1.
         12    1    3    3    0    0  0.33650188630E+01  0.20257120695E+02  0.12040328399E+02  0.23804281102E+02  0.00000000000E+00 0. -1.
</event>
<event>
 7    1  0.2945316E-011  0.5052886E+02  0.7816164E-02  0.1300439E+00
        -11   -1    0    0    0    0  0.00000000000E+00  0.00000000000E+00  0.45593999997E+02  0.45594000000E+02  0.51100000000E-03 0.  1.
         11   -1    0    0    0    0 -0.00000000000E+00 -0.00000000000E+00 -0.45593999997E+02  0.45594000000E+02  0.51100000000E-03 0. -1.
    9900012    2    1    2    0    0  0.31587690858E+02 -0.12652282935E+02 -0.22255403111E+02  0.50528862714E+02  0.30000008705E+02 0.  0.
        -12    1    1    2    0    0 -0.31587690858E+02  0.12652282935E+02  0.22255403111E+02  0.40659137286E+02  0.00000000000E+00 0.  1.
         11    1    3    3    0    0  0.95638099648E+01  0.66071073563E+00  0.33713917221E+01  0.10162149483E+02  0.51100000000E-03 0. -1.
        -11    1    3    3    0    0  0.63824974348E+01 -0.55294960245E+01  0.10170091521E+01  0.85056397564E+01  0.51100000000E-03 0.  1.
         12    1    3    3    0    0  0.15641383458E+02 -0.77834976465E+01 -0.26643803986E+02  0.31861073474E+02  0.00000000000E+00 0. -1.
</event>
<event>
 7    1  0.2945316E-011  0.5052887E+02  0.7816164E-02  0.1300439E+00
        -11   -1    0    0    0    0  0.00000000000E+00  0.00000000000E+00  0.45593999997E+02  0.45594000000E+02  0.51100000000E-03 0.  1.
         11   -1    0    0    0    0 -0.00000000000E+00 -0.00000000000E+00 -0.45593999997E+02  0.45594000000E+02  0.51100000000E-03 0. -1.
    9900012    2    1    2    0    0  0.82549454736E+01 -0.34560857390E+02 -0.19762795953E+02  0.50528867051E+02  0.30000021889E+02 0.  0.
        -12    1    1    2    0    0 -0.82549454736E+01  0.34560857390E+02  0.19762795953E+02  0.40659132949E+02  0.00000000000E+00 0.  1.
         11    1    3    3    0    0 -0.18381700343E+01 -0.19609338206E+02 -0.43417533289E+01  0.20168188719E+02  0.51100000000E-03 0. -1.
        -11    1    3    3    0    0  0.29451423423E+01 -0.93767539814E+01  0.26188699942E+01  0.10171325329E+02  0.51100000000E-03 0.  1.
         12    1    3    3    0    0  0.71479731656E+01 -0.55747652022E+01 -0.18039912618E+02  0.20189353004E+02  0.00000000000E+00 0. -1.
</event>
<event>
 7    1  0.2945316E-011  0.5052887E+02  0.7816164E-02  0.1300439E+00
        -11   -1    0    0    0    0  0.00000000000E+00  0.00000000000E+00  0.45593999997E+02  0.45594000000E+02  0.51100000000E-03 0.  1.
         11   -1    0    0    0    0 -0.00000000000E+00 -0.00000000000E+00 -0.45593999997E+02  0.45594000000E+02  0.51100000000E-03 0. -1.
    9900012    2    1    2    0    0  0.56640403640E+01 -0.14452223427E+02 -0.37579477625E+02  0.50528865063E+02  0.30000015846E+02 0.  0.
        -12    1    1    2    0    0 -0.56640403640E+01  0.14452223427E+02  0.37579477625E+02  0.40659134937E+02  0.00000000000E+00 0.  1.
         11    1    3    3    0    0 -0.12162355979E+01 -0.10329196309E+02 -0.21092985584E+01  0.10612288447E+02  0.51100000000E-03 0. -1.
        -11    1    3    3    0    0  0.39645672874E+01  0.34139987150E+01 -0.21943279391E+01  0.56734695177E+01  0.51100000000E-03 0.  1.
         12    1    3    3    0    0  0.29157086745E+01 -0.75370258330E+01 -0.33275851128E+02  0.34243107099E+02  0.00000000000E+00 0. -1.
</event>
<event>
 7    1  0.2945316E-011  0.5052888E+02  0.7816164E-02  0.1300439E+00
        -11   -1    0    0    0    0  0.00000000000E+00  0.00000000000E+00  0.45593999997E+02  0.45594000000E+02  0.51100000000E-03 0. -1.
         11   -1    0    0    0    0 -0.00000000000E+00 -0.00000000000E+00 -0.45593999997E+02  0.45594000000E+02  0.51100000000E-03 0.  1.
    9900012    2    1    2    0    0  0.25110971984E+02  0.29854221274E+02  0.11459873714E+02  0.50528878669E+02  0.30000057202E+02 0.  0.
        -12    1    1    2    0    0 -0.25110971984E+02 -0.29854221274E+02 -0.11459873714E+02  0.40659121331E+02  0.00000000000E+00 0.  1.
         11    1    3    3    0    0  0.95825804257E+00  0.36099546746E+01 -0.30425714160E+00  0.37473462474E+01  0.51100000000E-03 0. -1.
        -11    1    3    3    0    0  0.93623132246E+01  0.51802401826E+01 -0.87867709042E+01  0.13845401419E+02  0.51100000000E-03 0.  1.
         12    1    3    3    0    0  0.14790400717E+02  0.21064026417E+02  0.20550901760E+02  0.32936131003E+02  0.00000000000E+00 0. -1.
</event>
<event>
 7    1  0.2945316E-011  0.5052889E+02  0.7816164E-02  0.1300439E+00
        -11   -1    0    0    0    0  0.00000000000E+00  0.00000000000E+00  0.45593999997E+02  0.45594000000E+02  0.51100000000E-03 0. -1.
         11   -1    0    0    0    0 -0.00000000000E+00 -0.00000000000E+00 -0.45593999997E+02  0.45594000000E+02  0.51100000000E-03 0.  1.
    9900012    2    1    2    0    0 -0.17524313362E+02  0.36138780903E+02  0.63285270095E+01  0.50528889113E+02  0.30000088948E+02 0.  0.
        -12    1    1    2    0    0  0.17524313362E+02 -0.36138780903E+02 -0.63285270095E+01  0.40659110887E+02  0.00000000000E+00 0.  1.
         11    1    3    3    0    0 -0.11664218502E+02  0.11293009505E+02  0.65378866130E+01  0.17502286095E+02  0.51100000000E-03 0. -1.
        -11    1    3    3    0    0 -0.12703202527E+02  0.85735513057E+01 -0.98200330331E+00  0.15357130825E+02  0.51100000000E-03 0.  1.
        -12    1    3    3    0    0  0.68431076667E+01  0.16272220093E+02  0.77264369982E+00  0.17669472193E+02  0.00000000000E+00 0.  1.
</event>
<event>
 7    1  0.2945316E-011  0.5052886E+02  0.7816164E-02  0.1300439E+00
        -11   -1    0    0    0    0  0.00000000000E+00  0.00000000000E+00  0.45593999997E+02  0.45594000000E+02  0.51100000000E-03 0. -1.
         11   -1    0    0    0    0 -0.00000000000E+00 -0.00000000000E+00 -0.45593999997E+02  0.45594000000E+02  0.51100000000E-03 0.  1.
    9900012    2    1    2    0    0  0.38365039030E+02 -0.13459473921E+02  0.36355656325E+00  0.50528857961E+02  0.29999994257E+02 0.  0.
        -12    1    1    2    0    0 -0.38365039030E+02  0.13459473921E+02 -0.36355656325E+00  0.40659142039E+02  0.00000000000E+00 0.  1.
         11    1    3    3    0    0  0.99203542700E+00  0.56193648159E+00 -0.74897739845E-01  0.11425921540E+01  0.51100000000E-03 0. -1.
        -11    1    3    3    0    0  0.32202465941E+02 -0.22611022044E+02  0.76217400575E+00  0.39355279697E+02  0.51100000000E-03 0.  1.
        -12    1    3    3    0    0  0.51705376624E+01  0.85896116423E+01 -0.32371970265E+00  0.10030986110E+02  0.00000000000E+00 0.  1.
</event>
<event>
 7    1  0.2945316E-011  0.5052885E+02  0.7816164E-02  0.1300439E+00
        -11   -1    0    0    0    0  0.00000000000E+00  0.00000000000E+00  0.45593999997E+02  0.45594000000E+02  0.51100000000E-03 0.  1.
         11   -1    0    0    0    0 -0.00000000000E+00 -0.00000000000E+00 -0.45593999997E+02  0.45594000000E+02  0.51100000000E-03 0. -1.
    9900012    2    1    2    0    0  0.13945656909E+02  0.40997752587E+01 -0.37972055851E+02  0.50528849377E+02  0.29999968168E+02 0.  0.
        -12    1    1    2    0    0 -0.13945656909E+02 -0.40997752587E+01  0.37972055851E+02  0.40659150623E+02  0.00000000000E+00 0.  1.
         11    1    3    3    0    0 -0.27527462984E+01  0.26820018108E+01 -0.12313832615E+02  0.12899659678E+02  0.51100000000E-03 0. -1.
        -11    1    3    3    0    0  0.74059480631E+01 -0.68491125068E+01 -0.22706267348E+02  0.24846186548E+02  0.51100000000E-03 0.  1.
         12    1    3    3    0    0  0.92924551439E+01  0.82668859546E+01 -0.29519558886E+01  0.12783003151E+02  0.00000000000E+00 0. -1.
</event>
<event>
 7    1  0.2945316E-011  0.5052885E+02  0.7816164E-02  0.1300439E+00
        -11   -1    0    0    0    0  0.00000000000E+00  0.00000000000E+00  0.45593999997E+02  0.45594000000E+02  0.51100000000E-03 0.  1.
         11   -1    0    0    0    0 -0.00000000000E+00 -0.00000000000E+00 -0.45593999997E+02  0.45594000000E+02  0.51100000000E-03 0. -1.
    9900012    2    1    2    0    0  0.11063158621E+02 -0.39119828551E+02  0.64206467198E+00  0.50528847136E+02  0.29999961355E+02 0.  0.
        -12    1    1    2    0    0 -0.11063158621E+02  0.39119828551E+02 -0.64206467198E+00  0.40659152864E+02  0.00000000000E+00 0.  1.
         11    1    3    3    0    0  0.71891036582E+01 -0.64542722302E+01 -0.88854832144E+01  0.13126029622E+02  0.51100000000E-03 0.  1.
        -11    1    3    3    0    0  0.29047758584E+01 -0.83968927825E+01 -0.38397540810E+01  0.96793203714E+01  0.51100000000E-03 0. -1.
         12    1    3    3    0    0  0.96927910465E+00 -0.24268663539E+02  0.13367301967E+02  0.27723497143E+02  0.00000000000E+00 0. -1.
</event>
<event>
 7    1  0.2945316E-011  0.5052886E+02  0.7816164E-02  0.1300439E+00
        -11   -1    0    0    0    0  0.00000000000E+00  0.00000000000E+00  0.45593999997E+02  0.45594000000E+02  0.51100000000E-03 0.  1.
         11   -1    0    0    0    0 -0.00000000000E+00 -0.00000000000E+00 -0.45593999997E+02  0.45594000000E+02  0.51100000000E-03 0. -1.
    9900012    2    1    2    0    0  0.14956503146E+02 -0.65661412990E+00 -0.37802612815E+02  0.50528860017E+02  0.30000000509E+02 0.  0.
        -12    1    1    2    0    0 -0.14956503146E+02  0.65661412990E+00  0.37802612815E+02  0.40659139983E+02  0.00000000000E+00 0.  1.
         11    1    3    3    0    0  0.19110454091E+01 -0.14878858939E+01 -0.38509544288E+01  0.45492581003E+01  0.51100000000E-03 0. -1.
        -11    1    3    3    0    0  0.15807994768E+02  0.49248576138E+01 -0.60248123046E+01  0.17619457559E+02  0.51100000000E-03 0.  1.
         12    1    3    3    0    0 -0.27625370310E+01 -0.40935858498E+01 -0.27926846082E+02  0.28360144358E+02  0.00000000000E+00 0. -1.
</event>
<event>
 7    1  0.2945316E-011  0.5052885E+02  0.7816164E-02  0.1300439E+00
        -11   -1    0    0    0    0  0.00000000000E+00  0.00000000000E+00  0.45593999997E+02  0.45594000000E+02  0.51100000000E-03 0.  1.
         11   -1    0    0    0    0 -0.00000000000E+00 -0.00000000000E+00 -0.45593999997E+02  0.45594000000E+02  0.51100000000E-03 0. -1.
    9900012    2    1    2    0    0  0.14745856259E+02 -0.36305874599E+02 -0.10844798784E+02  0.50528850134E+02  0.29999970467E+02 0.  0.
        -12    1    1    2    0    0 -0.14745856259E+02  0.36305874599E+02  0.10844798784E+02  0.40659149866E+02  0.00000000000E+00 0.  1.
         11    1    3    3    0    0 -0.34159741421E+01 -0.36018210440E+01 -0.45022944526E+01  0.67016900682E+01  0.51100000000E-03 0. -1.
        -11    1    3    3    0    0  0.12499960440E+02 -0.20112272006E+02 -0.14523447310E+02  0.27779183182E+02  0.51100000000E-03 0.  1.
        -12    1    3    3    0    0  0.56618699607E+01 -0.12591781549E+02  0.81809429789E+01  0.16047976883E+02  0.00000000000E+00 0.  1.
</event>
<event>
 7    1  0.2945316E-011  0.5052886E+02  0.7816164E-02  0.1300439E+00
        -11   -1    0    0    0    0  0.00000000000E+00  0.00000000000E+00  0.45593999997E+02  0.45594000000E+02  0.51100000000E-03 0. -1.
         11   -1    0    0    0    0 -0.00000000000E+00 -0.00000000000E+00 -0.45593999997E+02  0.45594000000E+02  0.51100000000E-03 0.  1.
    9900012    2    1    2    0    0  0.30721351983E+02 -0.98747353503E+01  0.24735680084E+02  0.50528859145E+02  0.29999997856E+02 0.  0.
        -12    1    1    2    0    0 -0.30721351983E+02  0.98747353503E+01 -0.24735680084E+02  0.40659140855E+02  0.00000000000E+00 0.  1.
         11    1    3    3    0    0  0.74674815676E+01  0.20824209275E+01 -0.28019017438E+01  0.82432039600E+01  0.51100000000E-03 0. -1.
        -11    1    3    3    0    0 -0.24094832013E+01  0.17593851048E+01  0.28297163618E+01  0.41119752180E+01  0.51100000000E-03 0.  1.
         12    1    3    3    0    0  0.25663353616E+02 -0.13716541383E+02  0.24707865466E+02  0.38173679967E+02  0.00000000000E+00 0. -1.
</event>
<event>
 7    1  0.2945316E-011  0.5052885E+02  0.7816164E-02  0.1300439E+00
        -11   -1    0    0    0    0  0.00000000000E+00  0.00000000000E+00  0.45593999997E+02  0.45594000000E+02  0.51100000000E-03 0.  1.
         11   -1    0    0    0    0 -0.00000000000E+00 -0.00000000000E+00 -0.45593999997E+02  0.45594000000E+02  0.51100000000E-03 0. -1.
    9900012    2    1    2    0    0 -0.32966406831E+02  0.20421704753E+02 -0.12220317227E+02  0.50528853950E+02  0.29999982067E+02 0.  0.
        -12    1    1    2    0    0  0.32966406831E+02 -0.20421704753E+02  0.12220317227E+02  0.40659146050E+02  0.00000000000E+00 0.  1.
         11    1    3    3    0    0 -0.42308584270E+01 -0.23170375522E+01 -0.79357832401E+01  0.92868445632E+01  0.51100000000E-03 0. -1.
        -11    1    3    3    0    0 -0.11566052930E+02 -0.47000941170E+00 -0.43687382885E+01  0.12372564961E+02  0.51100000000E-03 0.  1.
         12    1    3    3    0    0 -0.17169495475E+02  0.23208751717E+02  0.84204301301E-01  0.28869444426E+02  0.00000000000E+00 0. -1.
</event>
<event>
 7    1  0.2945316E-011  0.5052886E+02  0.7816164E-02  0.1300439E+00
        -11   -1    0    0    0    0  0.00000000000E+00  0.00000000000E+00  0.45593999997E+02  0.45594000000E+02  0.51100000000E-03 0.  1.
         11   -1    0    0    0    0 -0.00000000000E+00 -0.00000000000E+00 -0.45593999997E+02  0.45594000000E+02  0.51100000000E-03 0. -1.
    9900012    2    1    2    0    0  0.41116071276E+01  0.20838246541E+02 -0.34670278443E+02  0.50528855403E+02  0.29999986482E+02 0.  0.
        -12    1    1    2    0    0 -0.41116071276E+01 -0.20838246541E+02  0.34670278443E+02  0.40659144597E+02  0.00000000000E+00 0.  1.
         11    1    3    3    0    0 -0.19874111091E+01  0.15661780539E+02 -0.31784905082E+02  0.35489736036E+02  0.51100000000E-03 0. -1.
        -11    1    3    3    0    0  0.48884202114E+01  0.80790657393E+01 -0.55187082253E+01  0.10937280106E+02  0.51100000000E-03 0.  1.
         12    1    3    3    0    0  0.12105980253E+01 -0.29025997379E+01  0.26333348635E+01  0.41018392607E+01  0.00000000000E+00 0. -1.
</event>
<event>
 7    1  0.2945316E-011  0.5052886E+02  0.7816164E-02  0.1300439E+00
        -11   -1    0    0    0    0  0.00000000000E+00  0.00000000000E+00  0.45593999997E+02  0.45594000000E+02  0.51100000000E-03 0. -1.
         11   -1    0    0    0    0 -0.00000000000E+00 -0.00000000000E+00 -0.45593999997E+02  0.45594000000E+02  0.51100000000E-03 0.  1.
    9900012    2    1    2    0    0 -0.58484319778E+01  0.15252005132E+01  0.40207403812E+02  0.50528859398E+02  0.29999998627E+02 0.  0.
        -12    1    1    2    0    0  0.58484319778E+01 -0.15252005132E+01 -0.40207403812E+02  0.40659140602E+02  0.00000000000E+00 0.  1.
         11    1    3    3    0    0 -0.10735846238E+01  0.48971408138E+01  0.26667984632E+02  0.27135142835E+02  0.51100000000E-03 0. -1.
        -11    1    3    3    0    0 -0.46870470776E+01  0.68568348791E+01  0.33507909954E+01  0.89561373048E+01  0.51100000000E-03 0.  1.
         12    1    3    3    0    0 -0.87800276494E-01 -0.10228775180E+02  0.10188628185E+02  0.14437579259E+02  0.00000000000E+00 0. -1.
</event>
<event>
 7    1  0.2945316E-011  0.5052886E+02  0.7816164E-02  0.1300439E+00
        -11   -1    0    0    0    0  0.00000000000E+00  0.00000000000E+00  0.45593999997E+02  0.45594000000E+02  0.51100000000E-03 0. -1.
         11   -1    0    0    0    0 -0.00000000000E+00 -0.00000000000E+00 -0.45593999997E+02  0.45594000000E+02  0.51100000000E-03 0.  1.
    9900012    2    1    2    0    0 -0.32249502676E+02 -0.14622523830E+02  0.19982926258E+02  0.50528856283E+02  0.29999989157E+02 0.  0.
        -12    1    1    2    0    0  0.32249502676E+02  0.14622523830E+02 -0.19982926258E+02  0.40659143717E+02  0.00000000000E+00 0.  1.
         11    1    3    3    0    0 -0.24922035299E+02 -0.82476952547E+01  0.97272606284E+01  0.27995569650E+02  0.51100000000E-03 0. -1.
        -11    1    3    3    0    0 -0.74043399275E+01 -0.33795038964E+01  0.14916412789E+02  0.16992488549E+02  0.51100000000E-03 0.  1.
         12    1    3    3    0    0  0.76872550611E-01 -0.29953246785E+01 -0.46607471589E+01  0.55407980831E+01  0.00000000000E+00 0. -1.
</event>
<event>
 7    1  0.2945316E-011  0.5052885E+02  0.7816164E-02  0.1300439E+00
        -11   -1    0    0    0    0  0.00000000000E+00  0.00000000000E+00  0.45593999997E+02  0.45594000000E+02  0.51100000000E-03 0.  1.
         11   -1    0    0    0    0 -0.00000000000E+00 -0.00000000000E+00 -0.45593999997E+02  0.45594000000E+02  0.51100000000E-03 0. -1.
    9900012    2    1    2    0    0 -0.28608491675E+02  0.68621623559E+01 -0.28064771605E+02  0.50528850066E+02  0.29999970260E+02 0.  0.
        -12    1    1    2    0    0  0.28608491675E+02 -0.68621623559E+01  0.28064771605E+02  0.40659149934E+02  0.00000000000E+00 0.  1.
         11    1    3    3    0    0 -0.28175464684E+01  0.62601139504E+01 -0.21649205633E+01  0.71982272873E+01  0.51100000000E-03 0. -1.
        -11    1    3    3    0    0 -0.73837560319E+01  0.11134654407E+02 -0.12125679105E+02  0.18042518558E+02  0.51100000000E-03 0.  1.
         12    1    3    3    0    0 -0.18407189175E+02 -0.10532606001E+02 -0.13774171937E+02  0.25288104220E+02  0.00000000000E+00 0. -1.
</event>
<event>
 7    1  0.2945316E-011  0.5052886E+02  0.7816164E-02  0.1300439E+00
        -11   -1    0    0    0    0  0.00000000000E+00  0.00000000000E+00  0.45593999997E+02  0.45594000000E+02  0.51100000000E-03 0.  1.
         11   -1    0    0    0    0 -0.00000000000E+00 -0.00000000000E+00 -0.45593999997E+02  0.45594000000E+02  0.51100000000E-03 0. -1.
    9900012    2    1    2    0    0  0.20758386138E+02  0.71566338941E+01 -0.34220425827E+02  0.50528861451E+02  0.30000004868E+02 0.  0.
        -12    1    1    2    0    0 -0.20758386138E+02 -0.71566338941E+01  0.34220425827E+02  0.40659138549E+02  0.00000000000E+00 0.  1.
         11    1    3    3    0    0  0.48068088860E+01 -0.28515702361E+01 -0.33506620663E+01  0.65164254789E+01  0.51100000000E-03 0. -1.
        -11    1    3    3    0    0  0.53940591480E+01 -0.71729767457E+01 -0.17934181545E+02  0.20054484223E+02  0.51100000000E-03 0.  1.
        -12    1    3    3    0    0  0.10557518104E+02  0.17181180876E+02 -0.12935582215E+02  0.23957951750E+02  0.00000000000E+00 0.  1.
</event>
<event>
 7    1  0.2945316E-011  0.5052886E+02  0.7816164E-02  0.1300439E+00
        -11   -1    0    0    0    0  0.00000000000E+00  0.00000000000E+00  0.45593999997E+02  0.45594000000E+02  0.51100000000E-03 0.  1.
         11   -1    0    0    0    0 -0.00000000000E+00 -0.00000000000E+00 -0.45593999997E+02  0.45594000000E+02  0.51100000000E-03 0. -1.
    9900012    2    1    2    0    0 -0.14527582288E+02 -0.34149706038E+02 -0.16610606186E+02  0.50528864403E+02  0.30000013839E+02 0.  0.
        -12    1    1    2    0    0  0.14527582288E+02  0.34149706038E+02  0.16610606186E+02  0.40659135597E+02  0.00000000000E+00 0.  1.
         11    1    3    3    0    0 -0.42847621941E+01 -0.22066782990E+01 -0.27364079451E+01  0.55422508855E+01  0.51100000000E-03 0. -1.
        -11    1    3    3    0    0 -0.63921795073E+01 -0.21706776352E+01  0.59605422849E+01  0.90055463378E+01  0.51100000000E-03 0.  1.
         12    1    3    3    0    0 -0.38506405866E+01 -0.29772350104E+02 -0.19834740526E+02  0.35981067180E+02  0.00000000000E+00 0. -1.
</event>
<event>
 7    1  0.2945316E-011  0.5052886E+02  0.7816164E-02  0.1300439E+00
        -11   -1    0    0    0    0  0.00000000000E+00  0.00000000000E+00  0.45593999997E+02  0.45594000000E+02  0.51100000000E-03 0. -1.
         11   -1    0    0    0    0 -0.00000000000E+00 -0.00000000000E+00 -0.45593999997E+02  0.45594000000E+02  0.51100000000E-03 0.  1.
    9900012    2    1    2    0    0 -0.42831240786E+01  0.40037196461E+02 -0.56429818010E+01  0.50528862086E+02  0.30000006795E+02 0.  0.
        -12    1    1    2    0    0  0.42831240786E+01 -0.40037196461E+02  0.56429818010E+01  0.40659137914E+02  0.00000000000E+00 0.  1.
         11    1    3    3    0    0  0.43757034031E+01  0.26237167218E+01  0.19702168691E+01  0.54692252176E+01  0.51100000000E-03 0. -1.
        -11    1    3    3    0    0  0.84172497288E+00  0.48365866257E+01  0.66366891363E+01  0.82551023053E+01  0.51100000000E-03 0.  1.
        -12    1    3    3    0    0 -0.95005524546E+01  0.32576893114E+02 -0.14249887806E+02  0.36804534563E+02  0.00000000000E+00 0.  1.
</event>
<event>
 7    1  0.2945316E-011  0.5052886E+02  0.7816164E-02  0.1300439E+00
        -11   -1    0    0    0    0  0.00000000000E+00  0.00000000000E+00  0.45593999997E+02  0.45594000000E+02  0.51100000000E-03 0.  1.
         11   -1    0    0    0    0 -0.00000000000E+00 -0.00000000000E+00 -0.45593999997E+02  0.45594000000E+02  0.51100000000E-03 0. -1.
    9900012    2    1    2    0    0 -0.82645038015E+01  0.24120650815E+02 -0.31671088503E+02  0.50528859997E+02  0.30000000447E+02 0.  0.
        -12    1    1    2    0    0  0.82645038015E+01 -0.24120650815E+02  0.31671088503E+02  0.40659140003E+02  0.00000000000E+00 0.  1.
         11    1    3    3    0    0 -0.61155861625E+01  0.13061556957E+01 -0.15472814703E+01  0.64420894919E+01  0.51100000000E-03 0. -1.
        -11    1    3    3    0    0 -0.59368200070E+01 -0.25731775323E+01 -0.70875668023E+01  0.95969098072E+01  0.51100000000E-03 0.  1.
         12    1    3    3    0    0  0.37879023680E+01  0.25387672652E+02 -0.23036240230E+02  0.34489860698E+02  0.00000000000E+00 0. -1.
</event>
<event>
 7    1  0.2945316E-011  0.5052885E+02  0.7816164E-02  0.1300439E+00
        -11   -1    0    0    0    0  0.00000000000E+00  0.00000000000E+00  0.45593999997E+02  0.45594000000E+02  0.51100000000E-03 0.  1.
         11   -1    0    0    0    0 -0.00000000000E+00 -0.00000000000E+00 -0.45593999997E+02  0.45594000000E+02  0.51100000000E-03 0. -1.
    9900012    2    1    2    0    0 -0.13623965246E+02 -0.27085844756E+02 -0.27090787824E+02  0.50528853427E+02  0.29999980475E+02 0.  0.
        -12    1    1    2    0    0  0.13623965246E+02  0.27085844756E+02  0.27090787824E+02  0.40659146573E+02  0.00000000000E+00 0.  1.
         11    1    3    3    0    0 -0.73070856274E+01 -0.17782785328E+02 -0.16100266473E+02  0.25076673128E+02  0.51100000000E-03 0. -1.
        -11    1    3    3    0    0 -0.48518888865E+01 -0.12990282132E+02 -0.14566081322E+02  0.20111165580E+02  0.51100000000E-03 0.  1.
        -12    1    3    3    0    0 -0.14649907323E+01  0.36872227040E+01  0.35755599718E+01  0.53410147188E+01  0.00000000000E+00 0.  1.
</event>
<event>
 7    1  0.2945316E-011  0.5052886E+02  0.7816164E-02  0.1300439E+00
        -11   -1    0    0    0    0  0.00000000000E+00  0.00000000000E+00  0.45593999997E+02  0.45594000000E+02  0.51100000000E-03 0.  1.
         11   -1    0    0    0    0 -0.00000000000E+00 -0.00000000000E+00 -0.45593999997E+02  0.45594000000E+02  0.51100000000E-03 0. -1.
    9900012    2    1    2    0    0 -0.11446329686E+02  0.10343475751E+02 -0.37618609566E+02  0.50528859089E+02  0.29999997688E+02 0.  0.
        -12    1    1    2    0    0  0.11446329686E+02 -0.10343475751E+02  0.37618609566E+02  0.40659140911E+02  0.00000000000E+00 0.  1.
         11    1    3    3    0    0 -0.55087158826E+01  0.28336648811E+01 -0.58026679960E+01  0.84880247093E+01  0.51100000000E-03 0. -1.
        -11    1    3    3    0    0 -0.17580584929E+01  0.36904238101E+01  0.40360463644E+01  0.57445337565E+01  0.51100000000E-03 0.  1.
         12    1    3    3    0    0 -0.41795553109E+01  0.38193870594E+01 -0.35851987935E+02  0.36296300624E+02  0.00000000000E+00 0. -1.
</event>
<event>
 7    1  0.2945316E-011  0.5052887E+02  0.7816164E-02  0.1300439E+00
        -11   -1    0    0    0    0  0.00000000000E+00  0.00000000000E+00  0.45593999997E+02  0.45594000000E+02  0.51100000000E-03 0.  1.
         11   -1    0    0    0    0 -0.00000000000E+00 -0.00000000000E+00 -0.45593999997E+02  0.45594000000E+02  0.51100000000E-03 0. -1.
    9900012    2    1    2    0    0  0.21418095255E+02  0.20143811533E+02 -0.28083041370E+02  0.50528866217E+02  0.30000019352E+02 0.  0.
        -12    1    1    2    0    0 -0.21418095255E+02 -0.20143811533E+02  0.28083041370E+02  0.40659133783E+02  0.00000000000E+00 0.  1.
         11    1    3    3    0    0  0.14279315298E+02  0.12064694291E+02 -0.28246894536E+02  0.33872448169E+02  0.51100000000E-03 0. -1.
        -11    1    3    3    0    0 -0.29822524773E+01  0.45578281352E+01 -0.18506510454E+01  0.57526112942E+01  0.51100000000E-03 0.  1.
        -12    1    3    3    0    0  0.10121032434E+02  0.35212891068E+01  0.20145042120E+01  0.10903806754E+02  0.00000000000E+00 0.  1.
</event>
<event>
 7    1  0.2945316E-011  0.5052886E+02  0.7816164E-02  0.1300439E+00
        -11   -1    0    0    0    0  0.00000000000E+00  0.00000000000E+00  0.45593999997E+02  0.45594000000E+02  0.51100000000E-03 0.  1.
         11   -1    0    0    0    0 -0.00000000000E+00 -0.00000000000E+00 -0.45593999997E+02  0.45594000000E+02  0.51100000000E-03 0. -1.
    9900012    2    1    2    0    0  0.16224709432E+02 -0.35988244714E+02 -0.97350184642E+01  0.50528861566E+02  0.30000005215E+02 0.  0.
        -12    1    1    2    0    0 -0.16224709432E+02  0.35988244714E+02  0.97350184642E+01  0.40659138434E+02  0.00000000000E+00 0.  1.
         11    1    3    3    0    0  0.18186011085E+01  0.21711589175E+01  0.77166655651E+00  0.29354234060E+01  0.51100000000E-03 0. -1.
        -11    1    3    3    0    0  0.70817573667E+01 -0.29175974101E+01 -0.86458224986E+01  0.11550493885E+02  0.51100000000E-03 0.  1.
         12    1    3    3    0    0  0.73243509568E+01 -0.35241806221E+02 -0.18608625221E+01  0.36042944275E+02  0.00000000000E+00 0. -1.
</event>
<event>
 7    1  0.2945316E-011  0.5052886E+02  0.7816164E-02  0.1300439E+00
        -11   -1    0    0    0    0  0.00000000000E+00  0.00000000000E+00  0.45593999997E+02  0.45594000000E+02  0.51100000000E-03 0. -1.
         11   -1    0    0    0    0 -0.00000000000E+00 -0.00000000000E+00 -0.45593999997E+02  0.45594000000E+02  0.51100000000E-03 0.  1.
    9900012    2    1    2    0    0 -0.79028122923E+00  0.15599175450E+02  0.37539401958E+02  0.50528861808E+02  0.30000005953E+02 0.  0.
        -12    1    1    2    0    0  0.79028122923E+00 -0.15599175450E+02 -0.37539401958E+02  0.40659138192E+02  0.00000000000E+00 0.  1.
         11    1    3    3    0    0 -0.89368259738E+01  0.86465691462E+01  0.11814136943E+02  0.17152371511E+02  0.51100000000E-03 0. -1.
        -11    1    3    3    0    0 -0.34633261260E+01  0.15784113388E+01 -0.83419570225E+00  0.38963948645E+01  0.51100000000E-03 0.  1.
         12    1    3    3    0    0  0.11609870871E+02  0.53741949647E+01  0.26559460717E+02  0.29480095433E+02  0.00000000000E+00 0. -1.
</event>
<event>
 7    1  0.2945316E-011  0.5052886E+02  0.7816164E-02  0.1300439E+00
        -11   -1    0    0    0    0  0.00000000000E+00  0.00000000000E+00  0.45593999997E+02  0.45594000000E+02  0.51100000000E-03 0.  1.
         11   -1    0    0    0    0 -0.00000000000E+00 -0.00000000000E+00 -0.45593999997E+02  0.45594000000E+02  0.51100000000E-03 0. -1.
    9900012    2    1    2    0    0  0.35618328891E+02 -0.12369292030E+00 -0.19608281234E+02  0.50528863931E+02  0.30000012404E+02 0.  0.
        -12    1    1    2    0    0 -0.35618328891E+02  0.12369292030E+00  0.19608281234E+02  0.40659136069E+02  0.00000000000E+00 0.  1.
         11    1    3    3    0    0  0.15060254832E+02 -0.38966062823E+01 -0.12240202107E+01  0.15604263579E+02  0.51100000000E-03 0. -1.
        -11    1    3    3    0    0  0.58028271015E+01 -0.81685004334E+01 -0.29083089154E+01  0.10433382132E+02  0.51100000000E-03 0.  1.
        -12    1    3    3    0    0  0.14755246958E+02  0.11941413795E+02 -0.15475952108E+02  0.24491218220E+02  0.00000000000E+00 0.  1.
</event>
<event>
 7    1  0.2945316E-011  0.5052886E+02  0.7816164E-02  0.1300439E+00
        -11   -1    0    0    0    0  0.00000000000E+00  0.00000000000E+00  0.45593999997E+02  0.45594000000E+02  0.51100000000E-03 0. -1.
         11   -1    0    0    0    0 -0.00000000000E+00 -0.00000000000E+00 -0.45593999997E+02  0.45594000000E+02  0.51100000000E-03 0.  1.
    9900012    2    1    2    0    0  0.80268479366E+01  0.19993970116E+02  0.34481539546E+02  0.50528859598E+02  0.29999999234E+02 0.  0.
        -12    1    1    2    0    0 -0.80268479366E+01 -0.19993970116E+02 -0.34481539546E+02  0.40659140402E+02  0.00000000000E+00 0.  1.
         11    1    3    3    0    0 -0.63882300339E+01  0.97073081103E+01  0.27827572025E+02  0.30156509724E+02  0.51100000000E-03 0. -1.
        -11    1    3    3    0    0 -0.95701407787E-01  0.30121337702E+01  0.81403268940E+00  0.31216595089E+01  0.51100000000E-03 0.  1.
         12    1    3    3    0    0  0.14510779378E+02  0.72745282354E+01  0.58399348317E+01  0.17250690364E+02  0.00000000000E+00 0. -1.
</event>
<event>
 7    1  0.2945316E-011  0.5052886E+02  0.7816164E-02  0.1300439E+00
        -11   -1    0    0    0    0  0.00000000000E+00  0.00000000000E+00  0.45593999997E+02  0.45594000000E+02  0.51100000000E-03 0. -1.
         11   -1    0    0    0    0 -0.00000000000E+00 -0.00000000000E+00 -0.45593999997E+02  0.45594000000E+02  0.51100000000E-03 0.  1.
    9900012    2    1    2    0    0 -0.30623284999E+02 -0.29188692622E+01  0.26586840587E+02  0.50528862352E+02  0.30000007604E+02 0.  0.
        -12    1    1    2    0    0  0.30623284999E+02  0.29188692622E+01 -0.26586840587E+02  0.40659137648E+02  0.00000000000E+00 0.  1.
         11    1    3    3    0    0 -0.89008606928E+01  0.19722087504E+01  0.11298246400E+02  0.14517758105E+02  0.51100000000E-03 0. -1.
        -11    1    3    3    0    0 -0.24955905659E+02 -0.25531151059E+01  0.18266735764E+02  0.31032068248E+02  0.51100000000E-03 0.  1.
        -12    1    3    3    0    0  0.32334813529E+01 -0.23379629067E+01 -0.29781415776E+01  0.49790359979E+01  0.00000000000E+00 0.  1.
</event>
<event>
 7    1  0.2945316E-011  0.5052886E+02  0.7816164E-02  0.1300439E+00
        -11   -1    0    0    0    0  0.00000000000E+00  0.00000000000E+00  0.45593999997E+02  0.45594000000E+02  0.51100000000E-03 0. -1.
         11   -1    0    0    0    0 -0.00000000000E+00 -0.00000000000E+00 -0.45593999997E+02  0.45594000000E+02  0.51100000000E-03 0.  1.
    9900012    2    1    2    0    0  0.11638574664E+02  0.22344995668E+02  0.31912548324E+02  0.50528855984E+02  0.29999988249E+02 0.  0.
        -12    1    1    2    0    0 -0.11638574664E+02 -0.22344995668E+02 -0.31912548324E+02  0.40659144016E+02  0.00000000000E+00 0.  1.
         11    1    3    3    0    0  0.10919450715E+02  0.12025678390E+02  0.28700472411E+01  0.16495105822E+02  0.51100000000E-03 0. -1.
        -11    1    3    3    0    0  0.68439761863E+01  0.43320571096E+01  0.83232326158E+01  0.11613911067E+02  0.51100000000E-03 0.  1.
         12    1    3    3    0    0 -0.61248522371E+01  0.59872601684E+01  0.20719268467E+02  0.22419839095E+02  0.00000000000E+00 0. -1.
</event>
<event>
 7    1  0.2945316E-011  0.5052886E+02  0.7816164E-02  0.1300439E+00
        -11   -1    0    0    0    0  0.00000000000E+00  0.00000000000E+00  0.45593999997E+02  0.45594000000E+02  0.51100000000E-03 0.  1.
         11   -1    0    0    0    0 -0.00000000000E+00 -0.00000000000E+00 -0.45593999997E+02  0.45594000000E+02  0.51100000000E-03 0. -1.
    9900012    2    1    2    0    0  0.26309839754E+02 -0.14374674956E+02 -0.27465011496E+02  0.50528858292E+02  0.29999995263E+02 0.  0.
        -12    1    1    2    0    0 -0.26309839754E+02  0.14374674956E+02  0.27465011496E+02  0.40659141708E+02  0.00000000000E+00 0.  1.
         11    1    3    3    0    0  0.83399215533E+00 -0.73822454786E+01 -0.19653377409E+02  0.21010671932E+02  0.51100000000E-03 0. -1.
        -11    1    3    3    0    0  0.16911634188E+02 -0.96496631624E+01 -0.59521627008E+01  0.20360442312E+02  0.51100000000E-03 0.  1.
        -12    1    3    3    0    0  0.85642134103E+01  0.26572336850E+01 -0.18594713869E+01  0.91577440471E+01  0.00000000000E+00 0.  1.
</event>
<event>
 7    1  0.2945316E-011  0.5052887E+02  0.7816164E-02  0.1300439E+00
        -11   -1    0    0    0    0  0.00000000000E+00  0.00000000000E+00  0.45593999997E+02  0.45594000000E+02  0.51100000000E-03 0. -1.
         11   -1    0    0    0    0 -0.00000000000E+00 -0.00000000000E+00 -0.45593999997E+02  0.45594000000E+02  0.51100000000E-03 0.  1.
    9900012    2    1    2    0    0  0.32886372148E+02 -0.23906407993E+02  0.36792890737E+00  0.50528865874E+02  0.30000018311E+02 0.  0.
        -12    1    1    2    0    0 -0.32886372148E+02  0.23906407993E+02 -0.36792890737E+00  0.40659134126E+02  0.00000000000E+00 0.  1.
         11    1    3    3    0    0  0.71580166341E+01  0.13553795051E+01 -0.52206102321E+01  0.89626462160E+01  0.51100000000E-03 0. -1.
        -11    1    3    3    0    0 -0.38931237803E+00 -0.69887234038E+00  0.56564207457E+01  0.57127123671E+01  0.51100000000E-03 0.  1.
         12    1    3    3    0    0  0.26117667892E+02 -0.24562915158E+02 -0.67881606194E-01  0.35853507291E+02  0.00000000000E+00 0. -1.
</event>
<event>
 7    1  0.2945316E-011  0.5052886E+02  0.7816164E-02  0.1300439E+00
        -11   -1    0    0    0    0  0.00000000000E+00  0.00000000000E+00  0.45593999997E+02  0.45594000000E+02  0.51100000000E-03 0.  1.
         11   -1    0    0    0    0 -0.00000000000E+00 -0.00000000000E+00 -0.45593999997E+02  0.45594000000E+02  0.51100000000E-03 0. -1.
    9900012    2    1    2    0    0  0.46555701782E+01 -0.34719856430E+02 -0.20640322352E+02  0.50528859933E+02  0.30000000251E+02 0.  0.
        -12    1    1    2    0    0 -0.46555701782E+01  0.34719856430E+02  0.20640322352E+02  0.40659140067E+02  0.00000000000E+00 0.  1.
         11    1    3    3    0    0 -0.38666441073E+01 -0.46850121571E+00 -0.72275696351E+01  0.82102492735E+01  0.51100000000E-03 0. -1.
        -11    1    3    3    0    0 -0.32915597774E+01 -0.14202553772E+02 -0.12210635311E+02  0.19017005926E+02  0.51100000000E-03 0.  1.
        -12    1    3    3    0    0  0.11813774063E+02 -0.20048801442E+02 -0.12021174059E+01  0.23301604733E+02  0.00000000000E+00 0.  1.
</event>
<event>
 7    1  0.2945316E-011  0.5052886E+02  0.7816164E-02  0.1300439E+00
        -11   -1    0    0    0    0  0.00000000000E+00  0.00000000000E+00  0.45593999997E+02  0.45594000000E+02  0.51100000000E-03 0.  1.
         11   -1    0    0    0    0 -0.00000000000E+00 -0.00000000000E+00 -0.45593999997E+02  0.45594000000E+02  0.51100000000E-03 0. -1.
    9900012    2    1    2    0    0 -0.31694644544E+02 -0.21423954432E+02  0.13770592171E+02  0.50528861728E+02  0.30000005710E+02 0.  0.
        -12    1    1    2    0    0  0.31694644544E+02  0.21423954432E+02 -0.13770592171E+02  0.40659138272E+02  0.00000000000E+00 0.  1.
         11    1    3    3    0    0 -0.11694223141E+02 -0.93061213919E+01 -0.89603232964E+01  0.17425445305E+02  0.51100000000E-03 0. -1.
        -11    1    3    3    0    0 -0.78277370881E+01 -0.55552230759E+01  0.56944052335E+01  0.11160655114E+02  0.51100000000E-03 0.  1.
        -12    1    3    3    0    0 -0.12172684315E+02 -0.65626099644E+01  0.17036510234E+02  0.21942761310E+02  0.00000000000E+00 0.  1.
</event>
<event>
 7    1  0.2945316E-011  0.5052884E+02  0.7816164E-02  0.1300439E+00
        -11   -1    0    0    0    0  0.00000000000E+00  0.00000000000E+00  0.45593999997E+02  0.45594000000E+02  0.51100000000E-03 0.  1.
         11   -1    0    0    0    0 -0.00000000000E+00 -0.00000000000E+00 -0.45593999997E+02  0.45594000000E+02  0.51100000000E-03 0. -1.
    9900012    2    1    2    0    0 -0.33327859969E+02 -0.18860447732E+02 -0.13663980423E+02  0.50528842363E+02  0.29999946846E+02 0.  0.
        -12    1    1    2    0    0  0.33327859969E+02  0.18860447732E+02  0.13663980423E+02  0.40659157637E+02  0.00000000000E+00 0.  1.
         11    1    3    3    0    0 -0.18471781765E+01 -0.13523180330E+02 -0.70998636268E+01  0.15384945148E+02  0.51100000000E-03 0. -1.
        -11    1    3    3    0    0  0.27957271023E+00 -0.26350516143E+01 -0.55884170612E+00  0.27081289156E+01  0.51100000000E-03 0.  1.
        -12    1    3    3    0    0 -0.31760254502E+02 -0.27022157885E+01 -0.60052750906E+01  0.32435768299E+02  0.00000000000E+00 0.  1.
</event>
<event>
 7    1  0.2945316E-011  0.5052886E+02  0.7816164E-02  0.1300439E+00
        -11   -1    0    0    0    0  0.00000000000E+00  0.00000000000E+00  0.45593999997E+02  0.45594000000E+02  0.51100000000E-03 0. -1.
         11   -1    0    0    0    0 -0.00000000000E+00 -0.00000000000E+00 -0.45593999997E+02  0.45594000000E+02  0.51100000000E-03 0.  1.
    9900012    2    1    2    0    0  0.36235872219E+02  0.17823641893E+02 -0.47376583605E+01  0.50528855241E+02  0.29999985991E+02 0.  0.
        -12    1    1    2    0    0 -0.36235872219E+02 -0.17823641893E+02  0.47376583605E+01  0.40659144759E+02  0.00000000000E+00 0.  1.
         11    1    3    3    0    0  0.16093684475E+02  0.13425755274E+02 -0.51074618467E+01  0.21571827726E+02  0.51100000000E-03 0. -1.
        -11    1    3    3    0    0 -0.41620997762E+01 -0.37719074403E+00  0.27049764863E+00  0.41879012218E+01  0.51100000000E-03 0.  1.
         12    1    3    3    0    0  0.24304287520E+02  0.47750773625E+01  0.99305837559E-01  0.24769126293E+02  0.00000000000E+00 0. -1.
</event>
<event>
 7    1  0.2945316E-011  0.5052885E+02  0.7816164E-02  0.1300439E+00
        -11   -1    0    0    0    0  0.00000000000E+00  0.00000000000E+00  0.45593999997E+02  0.45594000000E+02  0.51100000000E-03 0. -1.
         11   -1    0    0    0    0 -0.00000000000E+00 -0.00000000000E+00 -0.45593999997E+02  0.45594000000E+02  0.51100000000E-03 0.  1.
    9900012    2    1    2    0    0  0.35335093456E+02  0.17705230964E+02 -0.95458275943E+01  0.50528845342E+02  0.29999955901E+02 0.  0.
        -12    1    1    2    0    0 -0.35335093456E+02 -0.17705230964E+02  0.95458275943E+01  0.40659154658E+02  0.00000000000E+00 0.  1.
         11    1    3    3    0    0  0.10433748537E+00  0.26864729113E+01 -0.37669449213E+01  0.46279474192E+01  0.51100000000E-03 0. -1.
        -11    1    3    3    0    0  0.43979869386E+01  0.14009877038E+02 -0.20852688516E+01  0.14831294286E+02  0.51100000000E-03 0.  1.
         12    1    3    3    0    0  0.30832769032E+02  0.10088810145E+01 -0.36936138214E+01  0.31069603637E+02  0.00000000000E+00 0. -1.
</event>
<event>
 7    1  0.2945316E-011  0.5052883E+02  0.7816164E-02  0.1300439E+00
        -11   -1    0    0    0    0  0.00000000000E+00  0.00000000000E+00  0.45593999997E+02  0.45594000000E+02  0.51100000000E-03 0. -1.
         11   -1    0    0    0    0 -0.00000000000E+00 -0.00000000000E+00 -0.45593999997E+02  0.45594000000E+02  0.51100000000E-03 0.  1.
    9900012    2    1    2    0    0  0.15943101931E+02  0.32130375990E+02  0.19147436528E+02  0.50528832694E+02  0.29999917455E+02 0.  0.
        -12    1    1    2    0    0 -0.15943101931E+02 -0.32130375990E+02 -0.19147436528E+02  0.40659167306E+02  0.00000000000E+00 0.  1.
         11    1    3    3    0    0  0.43882045231E+01  0.14898412666E+01  0.26926467400E+00  0.46420329234E+01  0.51100000000E-03 0. -1.
        -11    1    3    3    0    0  0.10011405910E+02  0.37985631671E+01  0.15428331755E+02  0.18780062605E+02  0.51100000000E-03 0.  1.
         12    1    3    3    0    0  0.15434914980E+01  0.26841971556E+02  0.34498400983E+01  0.27106737165E+02  0.00000000000E+00 0. -1.
</event>
<event>
 7    1  0.2945316E-011  0.5052886E+02  0.7816164E-02  0.1300439E+00
        -11   -1    0    0    0    0  0.00000000000E+00  0.00000000000E+00  0.45593999997E+02  0.45594000000E+02  0.51100000000E-03 0. -1.
         11   -1    0    0    0    0 -0.00000000000E+00 -0.00000000000E+00 -0.45593999997E+02  0.45594000000E+02  0.51100000000E-03 0.  1.
    9900012    2    1    2    0    0 -0.23438882854E+02  0.10061757854E+02  0.31662993989E+02  0.50528863402E+02  0.30000010796E+02 0.  0.
        -12    1    1    2    0    0  0.23438882854E+02 -0.10061757854E+02 -0.31662993989E+02  0.40659136598E+02  0.00000000000E+00 0.  1.
         11    1    3    3    0    0  0.38963814935E+00  0.18145930961E+01  0.18419345462E+01  0.26148210504E+01  0.51100000000E-03 0. -1.
        -11    1    3    3    0    0 -0.25801272876E+02  0.15409485770E+02  0.23258238107E+02  0.38001362789E+02  0.51100000000E-03 0.  1.
        -12    1    3    3    0    0  0.19727518724E+01 -0.71623210115E+01  0.65628213360E+01  0.99126795625E+01  0.00000000000E+00 0.  1.
</event>
<event>
 7    1  0.2945316E-011  0.5052887E+02  0.7816164E-02  0.1300439E+00
        -11   -1    0    0    0    0  0.00000000000E+00  0.00000000000E+00  0.45593999997E+02  0.45594000000E+02  0.51100000000E-03 0. -1.
         11   -1    0    0    0    0 -0.00000000000E+00 -0.00000000000E+00 -0.45593999997E+02  0.45594000000E+02  0.51100000000E-03 0.  1.
    9900012    2    1    2    0    0 -0.13655509010E+01  0.30162295348E+02  0.27231166432E+02  0.50528865538E+02  0.30000017291E+02 0.  0.
        -12    1    1    2    0    0  0.13655509010E+01 -0.30162295348E+02 -0.27231166432E+02  0.40659134462E+02  0.00000000000E+00 0.  1.
         11    1    3    3    0    0 -0.24533309528E+01  0.11368421856E+02 -0.33545888431E+01  0.12104260194E+02  0.51100000000E-03 0. -1.
        -11    1    3    3    0    0 -0.13285019674E+00  0.41025418683E+01 -0.38656944663E+00  0.41228552187E+01  0.51100000000E-03 0.  1.
         12    1    3    3    0    0  0.12206302485E+01  0.14691331624E+02  0.30972324721E+02  0.34301750126E+02  0.00000000000E+00 0. -1.
</event>
<event>
 7    1  0.2945316E-011  0.5052886E+02  0.7816164E-02  0.1300439E+00
        -11   -1    0    0    0    0  0.00000000000E+00  0.00000000000E+00  0.45593999997E+02  0.45594000000E+02  0.51100000000E-03 0.  1.
         11   -1    0    0    0    0 -0.00000000000E+00 -0.00000000000E+00 -0.45593999997E+02  0.45594000000E+02  0.51100000000E-03 0. -1.
    9900012    2    1    2    0    0 -0.58746201393E+01 -0.15402026221E+02 -0.37167620361E+02  0.50528861091E+02  0.30000003773E+02 0.  0.
        -12    1    1    2    0    0  0.58746201393E+01  0.15402026221E+02  0.37167620361E+02  0.40659138909E+02  0.00000000000E+00 0.  1.
         11    1    3    3    0    0 -0.95537980281E+01 -0.81631741280E+01 -0.11791422155E+02  0.17232240286E+02  0.51100000000E-03 0. -1.
        -11    1    3    3    0    0 -0.69610712329E+01 -0.49316474718E+00 -0.29550443447E+01  0.75783910903E+01  0.51100000000E-03 0.  1.
         12    1    3    3    0    0  0.10640249122E+02 -0.67456873457E+01 -0.22421153862E+02  0.25718229714E+02  0.00000000000E+00 0. -1.
</event>
<event>
 7    1  0.2945316E-011  0.5052886E+02  0.7816164E-02  0.1300439E+00
        -11   -1    0    0    0    0  0.00000000000E+00  0.00000000000E+00  0.45593999997E+02  0.45594000000E+02  0.51100000000E-03 0.  1.
         11   -1    0    0    0    0 -0.00000000000E+00 -0.00000000000E+00 -0.45593999997E+02  0.45594000000E+02  0.51100000000E-03 0. -1.
    9900012    2    1    2    0    0  0.20887114539E+02 -0.69408107049E+01 -0.34186540754E+02  0.50528856185E+02  0.29999988861E+02 0.  0.
        -12    1    1    2    0    0 -0.20887114539E+02  0.69408107049E+01  0.34186540754E+02  0.40659143815E+02  0.00000000000E+00 0.  1.
         11    1    3    3    0    0  0.12881453518E+02 -0.32626810313E+01 -0.23611276903E+02  0.27093713837E+02  0.51100000000E-03 0. -1.
        -11    1    3    3    0    0  0.71299582036E+01 -0.99447537692E+01 -0.14379084835E+01  0.12320795940E+02  0.51100000000E-03 0.  1.
         12    1    3    3    0    0  0.87570281737E+00  0.62666240956E+01 -0.91373553673E+01  0.11114346408E+02  0.00000000000E+00 0. -1.
</event>
<event>
 7    1  0.2945316E-011  0.5052886E+02  0.7816164E-02  0.1300439E+00
        -11   -1    0    0    0    0  0.00000000000E+00  0.00000000000E+00  0.45593999997E+02  0.45594000000E+02  0.51100000000E-03 0.  1.
         11   -1    0    0    0    0 -0.00000000000E+00 -0.00000000000E+00 -0.45593999997E+02  0.45594000000E+02  0.51100000000E-03 0. -1.
    9900012    2    1    2    0    0 -0.19395847687E+02  0.12099207409E+02 -0.33624037221E+02  0.50528860726E+02  0.30000002663E+02 0.  0.
        -12    1    1    2    0    0  0.19395847687E+02 -0.12099207409E+02  0.33624037221E+02  0.40659139274E+02  0.00000000000E+00 0.  1.
         11    1    3    3    0    0 -0.19640979953E+02  0.74704560902E+01 -0.27295775637E+02  0.34447571404E+02  0.51100000000E-03 0. -1.
        -11    1    3    3    0    0 -0.50803622807E+01 -0.33862782880E+00 -0.71227956563E+01  0.87555107180E+01  0.51100000000E-03 0.  1.
        -12    1    3    3    0    0  0.53254945469E+01  0.49673791479E+01  0.79453407215E+00  0.73257786044E+01  0.00000000000E+00 0.  1.
</event>
<event>
 7    1  0.2945316E-011  0.5052886E+02  0.7816164E-02  0.1300439E+00
        -11   -1    0    0    0    0  0.00000000000E+00  0.00000000000E+00  0.45593999997E+02  0.45594000000E+02  0.51100000000E-03 0.  1.
         11   -1    0    0    0    0 -0.00000000000E+00 -0.00000000000E+00 -0.45593999997E+02  0.45594000000E+02  0.51100000000E-03 0. -1.
    9900012    2    1    2    0    0  0.32006242255E+02  0.20524185708E+02 -0.14405685622E+02  0.50528861783E+02  0.30000005876E+02 0.  0.
        -12    1    1    2    0    0 -0.32006242255E+02 -0.20524185708E+02  0.14405685622E+02  0.40659138217E+02  0.00000000000E+00 0.  1.
         11    1    3    3    0    0  0.23085710231E+02  0.15106128973E+02 -0.20934625859E+01  0.27668171882E+02  0.51100000000E-03 0. -1.
        -11    1    3    3    0    0  0.64216876219E+01  0.82150832704E+01 -0.46895073898E+00  0.10437699943E+02  0.51100000000E-03 0.  1.
         12    1    3    3    0    0  0.24988444023E+01 -0.27970265349E+01 -0.11843272297E+02  0.12422989958E+02  0.00000000000E+00 0. -1.
</event>
<event>
 7    1  0.2945316E-011  0.5052886E+02  0.7816164E-02  0.1300439E+00
        -11   -1    0    0    0    0  0.00000000000E+00  0.00000000000E+00  0.45593999997E+02  0.45594000000E+02  0.51100000000E-03 0.  1.
         11   -1    0    0    0    0 -0.00000000000E+00 -0.00000000000E+00 -0.45593999997E+02  0.45594000000E+02  0.51100000000E-03 0. -1.
    9900012    2    1    2    0    0  0.92605357926E+01 -0.67791895693E+01 -0.39005779679E+02  0.50528858559E+02  0.29999996075E+02 0.  0.
        -12    1    1    2    0    0 -0.92605357926E+01  0.67791895693E+01  0.39005779679E+02  0.40659141441E+02  0.00000000000E+00 0.  1.
         11    1    3    3    0    0 -0.23149074482E+01  0.60007378922E+01 -0.88297106797E+01  0.10923893202E+02  0.51100000000E-03 0.  1.
        -11    1    3    3    0    0 -0.46003446230E+01 -0.55503400388E+00 -0.98989182750E+01  0.10929767457E+02  0.51100000000E-03 0. -1.
         12    1    3    3    0    0  0.16175787864E+02 -0.12224893458E+02 -0.20277150724E+02  0.28675197899E+02  0.00000000000E+00 0. -1.
</event>
<event>
 7    1  0.2945316E-011  0.5052886E+02  0.7816164E-02  0.1300439E+00
        -11   -1    0    0    0    0  0.00000000000E+00  0.00000000000E+00  0.45593999997E+02  0.45594000000E+02  0.51100000000E-03 0.  1.
         11   -1    0    0    0    0 -0.00000000000E+00 -0.00000000000E+00 -0.45593999997E+02  0.45594000000E+02  0.51100000000E-03 0. -1.
    9900012    2    1    2    0    0  0.52630590595E+00  0.38302038048E+02 -0.13632408633E+02  0.50528859801E+02  0.29999999852E+02 0.  0.
        -12    1    1    2    0    0 -0.52630590595E+00 -0.38302038048E+02  0.13632408633E+02  0.40659140199E+02  0.00000000000E+00 0.  1.
         11    1    3    3    0    0 -0.91662169180E+00  0.13305628592E+02 -0.62221710783E+01  0.14717179102E+02  0.51100000000E-03 0. -1.
        -11    1    3    3    0    0 -0.10276076268E+02  0.19607103990E+02 -0.48147334578E+01  0.22654313693E+02  0.51100000000E-03 0.  1.
        -12    1    3    3    0    0  0.11719003866E+02  0.53893054660E+01 -0.25955040973E+01  0.13157367006E+02  0.00000000000E+00 0.  1.
</event>
<event>
 7    1  0.2945316E-011  0.5052886E+02  0.7816164E-02  0.1300439E+00
        -11   -1    0    0    0    0  0.00000000000E+00  0.00000000000E+00  0.45593999997E+02  0.45594000000E+02  0.51100000000E-03 0.  1.
         11   -1    0    0    0    0 -0.00000000000E+00 -0.00000000000E+00 -0.45593999997E+02  0.45594000000E+02  0.51100000000E-03 0. -1.
    9900012    2    1    2    0    0  0.32381511765E+02  0.56213182516E+01 -0.23937511863E+02  0.50528855921E+02  0.29999988056E+02 0.  0.
        -12    1    1    2    0    0 -0.32381511765E+02 -0.56213182516E+01  0.23937511863E+02  0.40659144079E+02  0.00000000000E+00 0.  1.
         11    1    3    3    0    0  0.14322344989E+02  0.19082823118E+01 -0.14860319517E+02  0.20726799168E+02  0.51100000000E-03 0. -1.
        -11    1    3    3    0    0  0.18708557092E+02  0.84246756884E+01 -0.12424080374E+02  0.23986309477E+02  0.51100000000E-03 0.  1.
        -12    1    3    3    0    0 -0.64939031564E+00 -0.47116397487E+01  0.33468880277E+01  0.58157472756E+01  0.00000000000E+00 0.  1.
</event>
<event>
 7    1  0.2945316E-011  0.5052874E+02  0.7816164E-02  0.1300439E+00
        -11   -1    0    0    0    0  0.00000000000E+00  0.00000000000E+00  0.45593999997E+02  0.45594000000E+02  0.51100000000E-03 0.  1.
         11   -1    0    0    0    0 -0.00000000000E+00 -0.00000000000E+00 -0.45593999997E+02  0.45594000000E+02  0.51100000000E-03 0. -1.
    9900012    2    1    2    0    0 -0.72091001559E+01 -0.19334616081E+02 -0.35033940302E+02  0.50528739343E+02  0.29999633705E+02 0.  0.
        -12    1    1    2    0    0  0.72091001559E+01  0.19334616081E+02  0.35033940302E+02  0.40659260657E+02  0.00000000000E+00 0.  1.
         11    1    3    3    0    0 -0.93594572254E+01  0.81671331848E+00 -0.16149000364E+02  0.18683058454E+02  0.51100000000E-03 0. -1.
        -11    1    3    3    0    0  0.38822047199E+01 -0.68301628373E+01 -0.16399756249E+02  0.18184461586E+02  0.51100000000E-03 0.  1.
        -12    1    3    3    0    0 -0.17318476504E+01 -0.13321166563E+02 -0.24851836892E+01  0.13661219303E+02  0.00000000000E+00 0.  1.
</event>
<event>
 7    1  0.2945316E-011  0.5052886E+02  0.7816164E-02  0.1300439E+00
        -11   -1    0    0    0    0  0.00000000000E+00  0.00000000000E+00  0.45593999997E+02  0.45594000000E+02  0.51100000000E-03 0. -1.
         11   -1    0    0    0    0 -0.00000000000E+00 -0.00000000000E+00 -0.45593999997E+02  0.45594000000E+02  0.51100000000E-03 0.  1.
    9900012    2    1    2    0    0  0.13344289028E+02 -0.36842313726E+02  0.10850780609E+02  0.50528861172E+02  0.30000004019E+02 0.  0.
        -12    1    1    2    0    0 -0.13344289028E+02  0.36842313726E+02 -0.10850780609E+02  0.40659138828E+02  0.00000000000E+00 0.  1.
         11    1    3    3    0    0  0.10862136710E+02 -0.82947474240E+01  0.48566900456E+01  0.14504354077E+02  0.51100000000E-03 0. -1.
        -11    1    3    3    0    0  0.10082426272E+02 -0.18641256922E+02 -0.18584668938E+01  0.21274531220E+02  0.51100000000E-03 0.  1.
         12    1    3    3    0    0 -0.76002739534E+01 -0.99063093801E+01  0.78525574570E+01  0.14749975875E+02  0.00000000000E+00 0. -1.
</event>
<event>
 7    1  0.2945316E-011  0.5052886E+02  0.7816164E-02  0.1300439E+00
        -11   -1    0    0    0    0  0.00000000000E+00  0.00000000000E+00  0.45593999997E+02  0.45594000000E+02  0.51100000000E-03 0.  1.
         11   -1    0    0    0    0 -0.00000000000E+00 -0.00000000000E+00 -0.45593999997E+02  0.45594000000E+02  0.51100000000E-03 0. -1.
    9900012    2    1    2    0    0  0.29240500204E+02  0.24511875809E+02 -0.14047293008E+02  0.50528863896E+02  0.30000012298E+02 0.  0.
        -12    1    1    2    0    0 -0.29240500204E+02 -0.24511875809E+02  0.14047293008E+02  0.40659136104E+02  0.00000000000E+00 0.  1.
         11    1    3    3    0    0  0.10449488113E+02  0.71815584802E+01  0.38781746383E+01  0.13259216524E+02  0.51100000000E-03 0. -1.
        -11    1    3    3    0    0  0.55278269798E+01 -0.56750488362E+00  0.33309519278E+01  0.64787478665E+01  0.51100000000E-03 0.  1.
         12    1    3    3    0    0  0.13263185111E+02  0.17897822213E+02 -0.21256419575E+02  0.30790899506E+02  0.00000000000E+00 0. -1.
</event>
<event>
 7    1  0.2945316E-011  0.5052886E+02  0.7816164E-02  0.1300439E+00
        -11   -1    0    0    0    0  0.00000000000E+00  0.00000000000E+00  0.45593999997E+02  0.45594000000E+02  0.51100000000E-03 0.  1.
         11   -1    0    0    0    0 -0.00000000000E+00 -0.00000000000E+00 -0.45593999997E+02  0.45594000000E+02  0.51100000000E-03 0. -1.
    9900012    2    1    2    0    0 -0.60371592273E+01  0.40004263592E+02 -0.40469065977E+01  0.50528857731E+02  0.29999993559E+02 0.  0.
        -12    1    1    2    0    0  0.60371592273E+01 -0.40004263592E+02  0.40469065977E+01  0.40659142269E+02  0.00000000000E+00 0.  1.
         11    1    3    3    0    0 -0.49710893011E+01 -0.13261966487E+01 -0.16750286148E+01  0.54107529524E+01  0.51100000000E-03 0. -1.
        -11    1    3    3    0    0  0.61678226624E+01  0.17970122203E+02  0.48704484126E+01  0.19613479967E+02  0.51100000000E-03 0.  1.
         12    1    3    3    0    0 -0.72338925887E+01  0.23360338037E+02 -0.72423263955E+01  0.25504624812E+02  0.00000000000E+00 0. -1.
</event>
<event>
 7    1  0.2945316E-011  0.5052886E+02  0.7816164E-02  0.1300439E+00
        -11   -1    0    0    0    0  0.00000000000E+00  0.00000000000E+00  0.45593999997E+02  0.45594000000E+02  0.51100000000E-03 0.  1.
         11   -1    0    0    0    0 -0.00000000000E+00 -0.00000000000E+00 -0.45593999997E+02  0.45594000000E+02  0.51100000000E-03 0. -1.
    9900012    2    1    2    0    0  0.38227919878E+02  0.31382998474E+01 -0.13488633288E+02  0.50528855738E+02  0.29999987501E+02 0.  0.
        -12    1    1    2    0    0 -0.38227919878E+02 -0.31382998474E+01  0.13488633288E+02  0.40659144262E+02  0.00000000000E+00 0.  1.
         11    1    3    3    0    0  0.12038759650E+02  0.16654415398E+01 -0.94508604823E+01  0.15395590068E+02  0.51100000000E-03 0. -1.
        -11    1    3    3    0    0  0.21236032927E+02  0.10777650343E+02 -0.56347861902E+01  0.24471976975E+02  0.51100000000E-03 0.  1.
         12    1    3    3    0    0  0.49531273013E+01 -0.93047920351E+01  0.15970133846E+01  0.10661288695E+02  0.00000000000E+00 0. -1.
</event>
<event>
 7    1  0.2945316E-011  0.5052887E+02  0.7816164E-02  0.1300439E+00
        -11   -1    0    0    0    0  0.00000000000E+00  0.00000000000E+00  0.45593999997E+02  0.45594000000E+02  0.51100000000E-03 0. -1.
         11   -1    0    0    0    0 -0.00000000000E+00 -0.00000000000E+00 -0.45593999997E+02  0.45594000000E+02  0.51100000000E-03 0.  1.
    9900012    2    1    2    0    0 -0.13571674593E+02  0.35801828248E+02  0.13682246466E+02  0.50528866641E+02  0.30000020641E+02 0.  0.
        -12    1    1    2    0    0  0.13571674593E+02 -0.35801828248E+02 -0.13682246466E+02  0.40659133359E+02  0.00000000000E+00 0.  1.
         11    1    3    3    0    0 -0.53433700921E+01 -0.25225902263E+01  0.73951121309E+01  0.94658728641E+01  0.51100000000E-03 0. -1.
        -11    1    3    3    0    0  0.18909498775E+01  0.10495078937E+02  0.39002935161E+01  0.11354940031E+02  0.51100000000E-03 0.  1.
        -12    1    3    3    0    0 -0.10119254378E+02  0.27829339537E+02  0.23868408195E+01  0.29708053745E+02  0.00000000000E+00 0.  1.
</event>
<event>
 7    1  0.2945316E-011  0.5052886E+02  0.7816164E-02  0.1300439E+00
        -11   -1    0    0    0    0  0.00000000000E+00  0.00000000000E+00  0.45593999997E+02  0.45594000000E+02  0.51100000000E-03 0. -1.
         11   -1    0    0    0    0 -0.00000000000E+00 -0.00000000000E+00 -0.45593999997E+02  0.45594000000E+02  0.51100000000E-03 0.  1.
    9900012    2    1    2    0    0  0.62694337330E+01 -0.82391950301E+01  0.39318890948E+02  0.50528864256E+02  0.30000013394E+02 0.  0.
        -12    1    1    2    0    0 -0.62694337330E+01  0.82391950301E+01 -0.39318890948E+02  0.40659135744E+02  0.00000000000E+00 0.  1.
         11    1    3    3    0    0  0.71790851417E+01 -0.19006230246E+02  0.29213986013E+02  0.35584168258E+02  0.51100000000E-03 0.  1.
        -11    1    3    3    0    0 -0.15232357827E+01  0.56777072474E+01  0.51513988567E+01  0.78162342134E+01  0.51100000000E-03 0. -1.
        -12    1    3    3    0    0  0.61358437404E+00  0.50893279680E+01  0.49535060778E+01  0.71284617845E+01  0.00000000000E+00 0.  1.
</event>
<event>
 7    1  0.2945316E-011  0.5052887E+02  0.7816164E-02  0.1300439E+00
        -11   -1    0    0    0    0  0.00000000000E+00  0.00000000000E+00  0.45593999997E+02  0.45594000000E+02  0.51100000000E-03 0.  1.
         11   -1    0    0    0    0 -0.00000000000E+00 -0.00000000000E+00 -0.45593999997E+02  0.45594000000E+02  0.51100000000E-03 0. -1.
    9900012    2    1    2    0    0 -0.27633041705E+02 -0.25864493722E+02 -0.14852874889E+02  0.50528869145E+02  0.30000028255E+02 0.  0.
        -12    1    1    2    0    0  0.27633041705E+02  0.25864493722E+02  0.14852874889E+02  0.40659130855E+02  0.00000000000E+00 0.  1.
         11    1    3    3    0    0 -0.16050797975E+02 -0.17693903738E+02  0.63525124585E+00  0.23897821857E+02  0.51100000000E-03 0. -1.
        -11    1    3    3    0    0  0.29175823807E+01  0.13833895340E+01  0.19205501864E+00  0.32346466487E+01  0.51100000000E-03 0.  1.
         12    1    3    3    0    0 -0.14499826111E+02 -0.95539795188E+01 -0.15680181154E+02  0.23396400640E+02  0.00000000000E+00 0. -1.
</event>
<event>
 7    1  0.2945316E-011  0.5052886E+02  0.7816164E-02  0.1300439E+00
        -11   -1    0    0    0    0  0.00000000000E+00  0.00000000000E+00  0.45593999997E+02  0.45594000000E+02  0.51100000000E-03 0.  1.
         11   -1    0    0    0    0 -0.00000000000E+00 -0.00000000000E+00 -0.45593999997E+02  0.45594000000E+02  0.51100000000E-03 0. -1.
    9900012    2    1    2    0    0  0.10029617148E+02 -0.29244298172E+02 -0.26407261758E+02  0.50528859955E+02  0.30000000318E+02 0.  0.
        -12    1    1    2    0    0 -0.10029617148E+02  0.29244298172E+02  0.26407261758E+02  0.40659140045E+02  0.00000000000E+00 0.  1.
         11    1    3    3    0    0  0.12679122145E+02 -0.17168218641E+02 -0.75242618938E+01  0.22630121232E+02  0.51100000000E-03 0. -1.
        -11    1    3    3    0    0 -0.17444842996E+01 -0.15908259116E+02 -0.12128295222E+02  0.20080126465E+02  0.51100000000E-03 0.  1.
        -12    1    3    3    0    0 -0.90502069774E+00  0.38321795855E+01 -0.67547046421E+01  0.78186122580E+01  0.00000000000E+00 0.  1.
</event>
<event>
 7    1  0.2945316E-011  0.5052886E+02  0.7816164E-02  0.1300439E+00
        -11   -1    0    0    0    0  0.00000000000E+00  0.00000000000E+00  0.45593999997E+02  0.45594000000E+02  0.51100000000E-03 0.  1.
         11   -1    0    0    0    0 -0.00000000000E+00 -0.00000000000E+00 -0.45593999997E+02  0.45594000000E+02  0.51100000000E-03 0. -1.
    9900012    2    1    2    0    0  0.30129999817E+02 -0.40021798552E+01 -0.27006139698E+02  0.50528856945E+02  0.29999991171E+02 0.  0.
        -12    1    1    2    0    0 -0.30129999817E+02  0.40021798552E+01  0.27006139698E+02  0.40659143055E+02  0.00000000000E+00 0.  1.
         11    1    3    3    0    0  0.15088954146E+01 -0.16716599758E+01 -0.50941594389E+01  0.55697103244E+01  0.51100000000E-03 0. -1.
        -11    1    3    3    0    0  0.73897185316E+00 -0.94343274673E+01 -0.10144043055E+02  0.13872787172E+02  0.51100000000E-03 0.  1.
         12    1    3    3    0    0  0.27882132549E+02  0.71038075878E+01 -0.11767937203E+02  0.31086359449E+02  0.00000000000E+00 0. -1.
</event>
<event>
 7    1  0.2945316E-011  0.5052886E+02  0.7816164E-02  0.1300439E+00
        -11   -1    0    0    0    0  0.00000000000E+00  0.00000000000E+00  0.45593999997E+02  0.45594000000E+02  0.51100000000E-03 0.  1.
         11   -1    0    0    0    0 -0.00000000000E+00 -0.00000000000E+00 -0.45593999997E+02  0.45594000000E+02  0.51100000000E-03 0. -1.
    9900012    2    1    2    0    0 -0.24333329166E+01  0.39761457066E+02 -0.81407010006E+01  0.50528860930E+02  0.30000003284E+02 0.  0.
        -12    1    1    2    0    0  0.24333329166E+01 -0.39761457066E+02  0.81407010006E+01  0.40659139070E+02  0.00000000000E+00 0.  1.
         11    1    3    3    0    0  0.18495794936E+01  0.10485255318E+02  0.79337642671E+01  0.13278032199E+02  0.51100000000E-03 0. -1.
        -11    1    3    3    0    0 -0.32151882964E+01  0.79263162796E+01  0.25216820612E+01  0.89175560679E+01  0.51100000000E-03 0.  1.
         12    1    3    3    0    0 -0.10677241138E+01  0.21349885469E+02 -0.18596147329E+02  0.28333272663E+02  0.00000000000E+00 0. -1.
</event>
<event>
 7    1  0.2945316E-011  0.5052887E+02  0.7816164E-02  0.1300439E+00
        -11   -1    0    0    0    0  0.00000000000E+00  0.00000000000E+00  0.45593999997E+02  0.45594000000E+02  0.51100000000E-03 0. -1.
         11   -1    0    0    0    0 -0.00000000000E+00 -0.00000000000E+00 -0.45593999997E+02  0.45594000000E+02  0.51100000000E-03 0.  1.
    9900012    2    1    2    0    0 -0.39914847826E+02 -0.13494148748E+01 -0.76255584150E+01  0.50528866480E+02  0.30000020152E+02 0.  0.
        -12    1    1    2    0    0  0.39914847826E+02  0.13494148748E+01  0.76255584150E+01  0.40659133520E+02  0.00000000000E+00 0.  1.
         11    1    3    3    0    0 -0.78696540303E+01 -0.10873831681E+01 -0.22008861725E+01  0.82436494901E+01  0.51100000000E-03 0.  1.
        -11    1    3    3    0    0 -0.16464569548E+02 -0.78197973773E-01 -0.16390032299E+02  0.23231903159E+02  0.51100000000E-03 0. -1.
         12    1    3    3    0    0 -0.15580624247E+02 -0.18383373301E+00  0.10965360057E+02  0.19053313831E+02  0.00000000000E+00 0. -1.
</event>
<event>
 7    1  0.2945316E-011  0.5052885E+02  0.7816164E-02  0.1300439E+00
        -11   -1    0    0    0    0  0.00000000000E+00  0.00000000000E+00  0.45593999997E+02  0.45594000000E+02  0.51100000000E-03 0.  1.
         11   -1    0    0    0    0 -0.00000000000E+00 -0.00000000000E+00 -0.45593999997E+02  0.45594000000E+02  0.51100000000E-03 0. -1.
    9900012    2    1    2    0    0  0.12325888220E+02  0.11045127326E+02 -0.37138172905E+02  0.50528852877E+02  0.29999978805E+02 0.  0.
        -12    1    1    2    0    0 -0.12325888220E+02 -0.11045127326E+02  0.37138172905E+02  0.40659147123E+02  0.00000000000E+00 0.  1.
         11    1    3    3    0    0 -0.38710760893E+01  0.45159989729E+01 -0.29279736145E+01  0.66296686615E+01  0.51100000000E-03 0. -1.
        -11    1    3    3    0    0 -0.75502296336E+00  0.51451116107E+01  0.52170447037E+00  0.52263188744E+01  0.51100000000E-03 0.  1.
         12    1    3    3    0    0  0.16951987273E+02  0.13840167419E+01 -0.34731903761E+02  0.38672865341E+02  0.00000000000E+00 0. -1.
</event>
<event>
 7    1  0.2945316E-011  0.5052886E+02  0.7816164E-02  0.1300439E+00
        -11   -1    0    0    0    0  0.00000000000E+00  0.00000000000E+00  0.45593999997E+02  0.45594000000E+02  0.51100000000E-03 0.  1.
         11   -1    0    0    0    0 -0.00000000000E+00 -0.00000000000E+00 -0.45593999997E+02  0.45594000000E+02  0.51100000000E-03 0. -1.
    9900012    2    1    2    0    0 -0.26835453236E+01  0.26601734010E+02 -0.30631880018E+02  0.50528859069E+02  0.29999997625E+02 0.  0.
        -12    1    1    2    0    0  0.26835453236E+01 -0.26601734010E+02  0.30631880018E+02  0.40659140931E+02  0.00000000000E+00 0.  1.
         11    1    3    3    0    0 -0.69032848977E+01  0.18880031015E+01 -0.44057307527E+01  0.84041871598E+01  0.51100000000E-03 0. -1.
        -11    1    3    3    0    0 -0.40836932775E+01 -0.59776695470E+00  0.76984055041E+00  0.41983962237E+01  0.51100000000E-03 0.  1.
         12    1    3    3    0    0  0.83034328516E+01  0.25311497863E+02 -0.26995989816E+02  0.37926275685E+02  0.00000000000E+00 0. -1.
</event>
<event>
 7    1  0.2945316E-011  0.5052886E+02  0.7816164E-02  0.1300439E+00
        -11   -1    0    0    0    0  0.00000000000E+00  0.00000000000E+00  0.45593999997E+02  0.45594000000E+02  0.51100000000E-03 0. -1.
         11   -1    0    0    0    0 -0.00000000000E+00 -0.00000000000E+00 -0.45593999997E+02  0.45594000000E+02  0.51100000000E-03 0.  1.
    9900012    2    1    2    0    0  0.27680097206E+02 -0.27664443781E+02  0.11029795670E+02  0.50528860516E+02  0.30000002024E+02 0.  0.
        -12    1    1    2    0    0 -0.27680097206E+02  0.27664443781E+02 -0.11029795670E+02  0.40659139484E+02  0.00000000000E+00 0.  1.
         11    1    3    3    0    0  0.23372580511E+01 -0.27514980883E+01  0.84907715314E+01  0.92264141673E+01  0.51100000000E-03 0. -1.
        -11    1    3    3    0    0 -0.75830892376E+00  0.29497624256E+01  0.21395351618E+00  0.30531798440E+01  0.51100000000E-03 0.  1.
        -12    1    3    3    0    0  0.26101148079E+02 -0.27862708119E+02  0.23250706228E+01  0.38249266504E+02  0.00000000000E+00 0.  1.
</event>
<event>
 7    1  0.2945316E-011  0.5052883E+02  0.7816164E-02  0.1300439E+00
        -11   -1    0    0    0    0  0.00000000000E+00  0.00000000000E+00  0.45593999997E+02  0.45594000000E+02  0.51100000000E-03 0.  1.
         11   -1    0    0    0    0 -0.00000000000E+00 -0.00000000000E+00 -0.45593999997E+02  0.45594000000E+02  0.51100000000E-03 0. -1.
    9900012    2    1    2    0    0 -0.33950146119E+01  0.18854878960E+02 -0.35862732728E+02  0.50528829035E+02  0.29999906336E+02 0.  0.
        -12    1    1    2    0    0  0.33950146119E+01 -0.18854878960E+02  0.35862732728E+02  0.40659170965E+02  0.00000000000E+00 0.  1.
         11    1    3    3    0    0  0.36590822936E+01  0.32985686745E+01 -0.15382324854E+02  0.16151945911E+02  0.51100000000E-03 0. -1.
        -11    1    3    3    0    0 -0.53905368820E+01  0.20779517934E+02 -0.12978528512E+02  0.25085622497E+02  0.51100000000E-03 0.  1.
         12    1    3    3    0    0 -0.16635600236E+01 -0.52232076484E+01 -0.75018793622E+01  0.92912606279E+01  0.00000000000E+00 0. -1.
</event>
<event>
 7    1  0.2945316E-011  0.5052886E+02  0.7816164E-02  0.1300439E+00
        -11   -1    0    0    0    0  0.00000000000E+00  0.00000000000E+00  0.45593999997E+02  0.45594000000E+02  0.51100000000E-03 0.  1.
         11   -1    0    0    0    0 -0.00000000000E+00 -0.00000000000E+00 -0.45593999997E+02  0.45594000000E+02  0.51100000000E-03 0. -1.
    9900012    2    1    2    0    0 -0.84985890793E+01  0.22474297335E+02 -0.32800079415E+02  0.50528864905E+02  0.30000015364E+02 0.  0.
        -12    1    1    2    0    0  0.84985890793E+01 -0.22474297335E+02  0.32800079415E+02  0.40659135095E+02  0.00000000000E+00 0.  1.
         11    1    3    3    0    0 -0.87290828098E+01 -0.18666884443E+01 -0.13828434680E+02  0.16459253276E+02  0.51100000000E-03 0.  1.
        -11    1    3    3    0    0 -0.51805696037E+01  0.12997404228E+02 -0.40620024238E+01  0.14569512073E+02  0.51100000000E-03 0. -1.
        -12    1    3    3    0    0  0.54110633343E+01  0.11343581551E+02 -0.14909642311E+02  0.19500099556E+02  0.00000000000E+00 0.  1.
</event>
<event>
 7    1  0.2945316E-011  0.5052886E+02  0.7816164E-02  0.1300439E+00
        -11   -1    0    0    0    0  0.00000000000E+00  0.00000000000E+00  0.45593999997E+02  0.45594000000E+02  0.51100000000E-03 0.  1.
         11   -1    0    0    0    0 -0.00000000000E+00 -0.00000000000E+00 -0.45593999997E+02  0.45594000000E+02  0.51100000000E-03 0. -1.
    9900012    2    1    2    0    0  0.33178867615E+02 -0.65416922940E+01 -0.22572880028E+02  0.50528857030E+02  0.29999991429E+02 0.  0.
        -12    1    1    2    0    0 -0.33178867615E+02  0.65416922940E+01  0.22572880028E+02  0.40659142970E+02  0.00000000000E+00 0.  1.
         11    1    3    3    0    0 -0.12670862893E+01  0.38003589990E+00  0.15070068899E+01  0.20052443684E+01  0.51100000000E-03 0. -1.
        -11    1    3    3    0    0  0.12400541781E+02 -0.13824768648E+02 -0.72243618475E+01  0.19927093842E+02  0.51100000000E-03 0.  1.
        -12    1    3    3    0    0  0.22045412123E+02  0.69030404543E+01 -0.16855525070E+02  0.28596518820E+02  0.00000000000E+00 0.  1.
</event>
<event>
 7    1  0.2945316E-011  0.5052887E+02  0.7816164E-02  0.1300439E+00
        -11   -1    0    0    0    0  0.00000000000E+00  0.00000000000E+00  0.45593999997E+02  0.45594000000E+02  0.51100000000E-03 0.  1.
         11   -1    0    0    0    0 -0.00000000000E+00 -0.00000000000E+00 -0.45593999997E+02  0.45594000000E+02  0.51100000000E-03 0. -1.
    9900012    2    1    2    0    0  0.59180714891E+01 -0.80102319541E+01 -0.39420521250E+02  0.50528869639E+02  0.30000029754E+02 0.  0.
        -12    1    1    2    0    0 -0.59180714891E+01  0.80102319541E+01  0.39420521250E+02  0.40659130361E+02  0.00000000000E+00 0.  1.
         11    1    3    3    0    0 -0.54212855939E+00  0.83716314920E+01 -0.77009020960E+01  0.11387800954E+02  0.51100000000E-03 0. -1.
        -11    1    3    3    0    0 -0.26066914755E+01 -0.43273903738E+01 -0.18190233907E+02  0.18878711761E+02  0.51100000000E-03 0.  1.
        -12    1    3    3    0    0  0.90668915240E+01 -0.12054473072E+02 -0.13529385247E+02  0.20262356924E+02  0.00000000000E+00 0.  1.
</event>
<event>
 7    1  0.2945316E-011  0.5052887E+02  0.7816164E-02  0.1300439E+00
        -11   -1    0    0    0    0  0.00000000000E+00  0.00000000000E+00  0.45593999997E+02  0.45594000000E+02  0.51100000000E-03 0.  1.
         11   -1    0    0    0    0 -0.00000000000E+00 -0.00000000000E+00 -0.45593999997E+02  0.45594000000E+02  0.51100000000E-03 0. -1.
    9900012    2    1    2    0    0 -0.87828586747E+01 -0.30700929422E+02 -0.25169016682E+02  0.50528867267E+02  0.30000022545E+02 0.  0.
        -12    1    1    2    0    0  0.87828586747E+01  0.30700929422E+02  0.25169016682E+02  0.40659132733E+02  0.00000000000E+00 0.  1.
         11    1    3    3    0    0 -0.63011367634E+01  0.82329303771E+00 -0.56088858700E+01  0.84759505013E+01  0.51100000000E-03 0. -1.
        -11    1    3    3    0    0 -0.74041109202E+00 -0.31525668777E+01 -0.12294719978E+02  0.12714048376E+02  0.51100000000E-03 0.  1.
         12    1    3    3    0    0 -0.17413108193E+01 -0.28371655582E+02 -0.72654108335E+01  0.29338868390E+02  0.00000000000E+00 0. -1.
</event>
<event>
 7    1  0.2945316E-011  0.5052895E+02  0.7816164E-02  0.1300438E+00
        -11   -1    0    0    0    0  0.00000000000E+00  0.00000000000E+00  0.45593999997E+02  0.45594000000E+02  0.51100000000E-03 0. -1.
         11   -1    0    0    0    0 -0.00000000000E+00 -0.00000000000E+00 -0.45593999997E+02  0.45594000000E+02  0.51100000000E-03 0.  1.
    9900012    2    1    2    0    0 -0.36071078361E+02  0.51310325585E+01  0.18047388972E+02  0.50528948881E+02  0.30000270617E+02 0.  0.
        -12    1    1    2    0    0  0.36071078361E+02 -0.51310325585E+01 -0.18047388972E+02  0.40659051119E+02  0.00000000000E+00 0.  1.
         11    1    3    3    0    0  0.14021501588E+01 -0.24471847945E+01  0.58599288411E+01  0.65033456597E+01  0.51100000000E-03 0. -1.
        -11    1    3    3    0    0 -0.10358403422E+02 -0.20008411451E+01 -0.36898568231E+01  0.11176534811E+02  0.51100000000E-03 0.  1.
         12    1    3    3    0    0 -0.27114825097E+02  0.95790584981E+01  0.15877316954E+02  0.32849068410E+02  0.00000000000E+00 0. -1.
</event>
<event>
 7    1  0.2945316E-011  0.5052887E+02  0.7816164E-02  0.1300439E+00
        -11   -1    0    0    0    0  0.00000000000E+00  0.00000000000E+00  0.45593999997E+02  0.45594000000E+02  0.51100000000E-03 0.  1.
         11   -1    0    0    0    0 -0.00000000000E+00 -0.00000000000E+00 -0.45593999997E+02  0.45594000000E+02  0.51100000000E-03 0. -1.
    9900012    2    1    2    0    0 -0.74937611777E+01  0.33066452731E+02 -0.22441441419E+02  0.50528867621E+02  0.30000023622E+02 0.  0.
        -12    1    1    2    0    0  0.74937611777E+01 -0.33066452731E+02  0.22441441419E+02  0.40659132379E+02  0.00000000000E+00 0.  1.
         11    1    3    3    0    0 -0.10991938901E+02  0.94601934969E+01 -0.14999404961E+02  0.20863847470E+02  0.51100000000E-03 0. -1.
        -11    1    3    3    0    0 -0.56799877497E+01  0.36975860525E+01 -0.13336220424E+01  0.69074562225E+01  0.51100000000E-03 0.  1.
        -12    1    3    3    0    0  0.91781654729E+01  0.19908673182E+02 -0.61084144154E+01  0.22757563929E+02  0.00000000000E+00 0.  1.
</event>
<event>
 7    1  0.2945316E-011  0.5052888E+02  0.7816164E-02  0.1300439E+00
        -11   -1    0    0    0    0  0.00000000000E+00  0.00000000000E+00  0.45593999997E+02  0.45594000000E+02  0.51100000000E-03 0.  1.
         11   -1    0    0    0    0 -0.00000000000E+00 -0.00000000000E+00 -0.45593999997E+02  0.45594000000E+02  0.51100000000E-03 0. -1.
    9900012    2    1    2    0    0 -0.22741770345E+02  0.26033970775E+02 -0.21405798291E+02  0.50528881057E+02  0.30000064462E+02 0.  0.
        -12    1    1    2    0    0  0.22741770345E+02 -0.26033970775E+02  0.21405798291E+02  0.40659118943E+02  0.00000000000E+00 0.  1.
         11    1    3    3    0    0 -0.47967533239E+01 -0.27775814441E+01  0.23046947068E-02  0.55429059799E+01  0.51100000000E-03 0. -1.
        -11    1    3    3    0    0 -0.12327592491E+01  0.18738885020E+02 -0.16170968798E+02  0.24782367508E+02  0.51100000000E-03 0.  1.
         12    1    3    3    0    0 -0.16712257772E+02  0.10072667199E+02 -0.52371341871E+01  0.20203607569E+02  0.00000000000E+00 0. -1.
</event>
<event>
 7    1  0.2945316E-011  0.5052886E+02  0.7816164E-02  0.1300439E+00
        -11   -1    0    0    0    0  0.00000000000E+00  0.00000000000E+00  0.45593999997E+02  0.45594000000E+02  0.51100000000E-03 0. -1.
         11   -1    0    0    0    0 -0.00000000000E+00 -0.00000000000E+00 -0.45593999997E+02  0.45594000000E+02  0.51100000000E-03 0.  1.
    9900012    2    1    2    0    0 -0.24692818755E+02  0.10890096297E+02  0.30411115450E+02  0.50528862794E+02  0.30000008948E+02 0.  0.
        -12    1    1    2    0    0  0.24692818755E+02 -0.10890096297E+02 -0.30411115450E+02  0.40659137206E+02  0.00000000000E+00 0.  1.
         11    1    3    3    0    0 -0.20025808453E+02  0.49346772736E+01  0.98598895795E+01  0.22860478270E+02  0.51100000000E-03 0. -1.
        -11    1    3    3    0    0  0.13296020864E+01 -0.36930503698E+01 -0.28615309741E+00  0.39355236752E+01  0.51100000000E-03 0.  1.
        -12    1    3    3    0    0 -0.59966123890E+01  0.96484693937E+01  0.20837378968E+02  0.23732860848E+02  0.00000000000E+00 0.  1.
</event>
<event>
 7    1  0.2945316E-011  0.5052886E+02  0.7816164E-02  0.1300439E+00
        -11   -1    0    0    0    0  0.00000000000E+00  0.00000000000E+00  0.45593999997E+02  0.45594000000E+02  0.51100000000E-03 0.  1.
         11   -1    0    0    0    0 -0.00000000000E+00 -0.00000000000E+00 -0.45593999997E+02  0.45594000000E+02  0.51100000000E-03 0. -1.
    9900012    2    1    2    0    0  0.20674911495E+02 -0.34920254835E+02 -0.25079290670E+01  0.50528857470E+02  0.29999992766E+02 0.  0.
        -12    1    1    2    0    0 -0.20674911495E+02  0.34920254835E+02  0.25079290670E+01  0.40659142530E+02  0.00000000000E+00 0.  1.
         11    1    3    3    0    0  0.22844538167E+02 -0.25898661385E+02 -0.14039834890E+01  0.34562765449E+02  0.51100000000E-03 0. -1.
        -11    1    3    3    0    0  0.24398793835E+00 -0.80110282488E+01  0.49158361663E+01  0.94022098037E+01  0.51100000000E-03 0.  1.
        -12    1    3    3    0    0 -0.24136146105E+01 -0.10105652018E+01 -0.60197817444E+01  0.65638822175E+01  0.00000000000E+00 0.  1.
</event>
<event>
 7    1  0.2945316E-011  0.5052886E+02  0.7816164E-02  0.1300439E+00
        -11   -1    0    0    0    0  0.00000000000E+00  0.00000000000E+00  0.45593999997E+02  0.45594000000E+02  0.51100000000E-03 0.  1.
         11   -1    0    0    0    0 -0.00000000000E+00 -0.00000000000E+00 -0.45593999997E+02  0.45594000000E+02  0.51100000000E-03 0. -1.
    9900012    2    1    2    0    0  0.87444722421E+01  0.14685305308E+02 -0.36892299378E+02  0.50528859082E+02  0.29999997665E+02 0.  0.
        -12    1    1    2    0    0 -0.87444722421E+01 -0.14685305308E+02  0.36892299378E+02  0.40659140918E+02  0.00000000000E+00 0.  1.
         11    1    3    3    0    0  0.33456667731E+01 -0.32270468891E+00  0.13937105078E+00  0.33640821963E+01  0.51100000000E-03 0. -1.
        -11    1    3    3    0    0  0.15464562761E+01 -0.65096715685E+01 -0.48619305052E+01  0.82707750206E+01  0.51100000000E-03 0.  1.
         12    1    3    3    0    0  0.38523491929E+01  0.21517681566E+02 -0.32169739924E+02  0.38894001865E+02  0.00000000000E+00 0. -1.
</event>
<event>
 7    1  0.2945316E-011  0.5052886E+02  0.7816164E-02  0.1300439E+00
        -11   -1    0    0    0    0  0.00000000000E+00  0.00000000000E+00  0.45593999997E+02  0.45594000000E+02  0.51100000000E-03 0. -1.
         11   -1    0    0    0    0 -0.00000000000E+00 -0.00000000000E+00 -0.45593999997E+02  0.45594000000E+02  0.51100000000E-03 0.  1.
    9900012    2    1    2    0    0  0.60589837879E+01 -0.28658486561E+02  0.28198328838E+02  0.50528857292E+02  0.29999992225E+02 0.  0.
        -12    1    1    2    0    0 -0.60589837879E+01  0.28658486561E+02 -0.28198328838E+02  0.40659142708E+02  0.00000000000E+00 0.  1.
         11    1    3    3    0    0 -0.10612263811E+01 -0.17602348148E+02  0.17544352190E+02  0.24875151372E+02  0.51100000000E-03 0. -1.
        -11    1    3    3    0    0 -0.45730997842E+01 -0.10225547780E+02  0.76103974965E+01  0.13542275265E+02  0.51100000000E-03 0.  1.
        -12    1    3    3    0    0  0.11693309953E+02 -0.83059063213E+00  0.30435791519E+01  0.12111430655E+02  0.00000000000E+00 0.  1.
</event>
<event>
 7    1  0.2945316E-011  0.5052886E+02  0.7816164E-02  0.1300439E+00
        -11   -1    0    0    0    0  0.00000000000E+00  0.00000000000E+00  0.45593999997E+02  0.45594000000E+02  0.51100000000E-03 0.  1.
         11   -1    0    0    0    0 -0.00000000000E+00 -0.00000000000E+00 -0.45593999997E+02  0.45594000000E+02  0.51100000000E-03 0. -1.
    9900012    2    1    2    0    0  0.33794835535E+02  0.16671521110E+02 -0.15268762587E+02  0.50528860365E+02  0.30000001564E+02 0.  0.
        -12    1    1    2    0    0 -0.33794835535E+02 -0.16671521110E+02  0.15268762587E+02  0.40659139635E+02  0.00000000000E+00 0.  1.
         11    1    3    3    0    0  0.14587699864E+02  0.78349308002E+01 -0.99150610744E+01  0.19300144153E+02  0.51100000000E-03 0. -1.
        -11    1    3    3    0    0  0.12780458206E+02  0.69772902419E+01 -0.14065098903E+02  0.20244744960E+02  0.51100000000E-03 0.  1.
        -12    1    3    3    0    0  0.64266774647E+01  0.18593000679E+01  0.87113973898E+01  0.10983971252E+02  0.00000000000E+00 0.  1.
</event>
<event>
 7    1  0.2945316E-011  0.5052886E+02  0.7816164E-02  0.1300439E+00
        -11   -1    0    0    0    0  0.00000000000E+00  0.00000000000E+00  0.45593999997E+02  0.45594000000E+02  0.51100000000E-03 0.  1.
         11   -1    0    0    0    0 -0.00000000000E+00 -0.00000000000E+00 -0.45593999997E+02  0.45594000000E+02  0.51100000000E-03 0. -1.
    9900012    2    1    2    0    0  0.12710270903E+02 -0.38616943057E+02  0.58858681552E+00  0.50528859430E+02  0.29999998723E+02 0.  0.
        -12    1    1    2    0    0 -0.12710270903E+02  0.38616943057E+02 -0.58858681552E+00  0.40659140570E+02  0.00000000000E+00 0.  1.
         11    1    3    3    0    0  0.53532873017E+01 -0.56411281895E+01  0.11862962793E+01  0.78668488805E+01  0.51100000000E-03 0. -1.
        -11    1    3    3    0    0  0.28736748200E+01 -0.21281002187E+02  0.12247562058E+02  0.24721283091E+02  0.51100000000E-03 0.  1.
        -12    1    3    3    0    0  0.44833087809E+01 -0.11694812680E+02 -0.12845271522E+02  0.17940727458E+02  0.00000000000E+00 0.  1.
</event>
<event>
 7    1  0.2945316E-011  0.5052886E+02  0.7816164E-02  0.1300439E+00
        -11   -1    0    0    0    0  0.00000000000E+00  0.00000000000E+00  0.45593999997E+02  0.45594000000E+02  0.51100000000E-03 0. -1.
         11   -1    0    0    0    0 -0.00000000000E+00 -0.00000000000E+00 -0.45593999997E+02  0.45594000000E+02  0.51100000000E-03 0.  1.
    9900012    2    1    2    0    0  0.22366420612E+01 -0.25556770402E+01  0.40517056630E+02  0.50528856738E+02  0.29999990540E+02 0.  0.
        -12    1    1    2    0    0 -0.22366420612E+01  0.25556770402E+01 -0.40517056630E+02  0.40659143262E+02  0.00000000000E+00 0.  1.
         11    1    3    3    0    0  0.13127482357E+01 -0.27957128174E+01 -0.26360069028E+01  0.40605234564E+01  0.51100000000E-03 0. -1.
        -11    1    3    3    0    0 -0.39446173191E+01  0.10925973235E+01  0.12571005836E+01  0.42818310153E+01  0.51100000000E-03 0.  1.
         12    1    3    3    0    0  0.48685111446E+01 -0.85256154638E+00  0.41895962950E+02  0.42186502266E+02  0.00000000000E+00 0. -1.
</event>
<event>
 7    1  0.2945316E-011  0.5052884E+02  0.7816164E-02  0.1300439E+00
        -11   -1    0    0    0    0  0.00000000000E+00  0.00000000000E+00  0.45593999997E+02  0.45594000000E+02  0.51100000000E-03 0. -1.
         11   -1    0    0    0    0 -0.00000000000E+00 -0.00000000000E+00 -0.45593999997E+02  0.45594000000E+02  0.51100000000E-03 0.  1.
    9900012    2    1    2    0    0 -0.12841091905E+02  0.48213629044E+01  0.38275685173E+02  0.50528840429E+02  0.29999940968E+02 0.  0.
        -12    1    1    2    0    0  0.12841091905E+02 -0.48213629044E+01 -0.38275685173E+02  0.40659159571E+02  0.00000000000E+00 0.  1.
         11    1    3    3    0    0  0.24255009592E+01  0.24357587495E+01  0.75375512309E+01  0.82843620400E+01  0.51100000000E-03 0. -1.
        -11    1    3    3    0    0  0.40513813777E+01  0.25114814980E+01  0.19112061080E+02  0.19697515310E+02  0.51100000000E-03 0.  1.
        -12    1    3    3    0    0 -0.19317974242E+02 -0.12587734314E+00  0.11626072862E+02  0.22546963079E+02  0.00000000000E+00 0.  1.
</event>
<event>
 7    1  0.2945316E-011  0.5052886E+02  0.7816164E-02  0.1300439E+00
        -11   -1    0    0    0    0  0.00000000000E+00  0.00000000000E+00  0.45593999997E+02  0.45594000000E+02  0.51100000000E-03 0.  1.
         11   -1    0    0    0    0 -0.00000000000E+00 -0.00000000000E+00 -0.45593999997E+02  0.45594000000E+02  0.51100000000E-03 0. -1.
    9900012    2    1    2    0    0  0.36757161764E+02  0.90561190668E+01 -0.14834538190E+02  0.50528858877E+02  0.29999997044E+02 0.  0.
        -12    1    1    2    0    0 -0.36757161764E+02 -0.90561190668E+01  0.14834538190E+02  0.40659141123E+02  0.00000000000E+00 0.  1.
         11    1    3    3    0    0  0.22462612326E+02  0.96013634750E+01 -0.47129708125E+01  0.24879051976E+02  0.51100000000E-03 0. -1.
        -11    1    3    3    0    0  0.13391929090E+02 -0.54593327631E+01 -0.11180105342E+00  0.14462384959E+02  0.51100000000E-03 0.  1.
         12    1    3    3    0    0  0.90262034827E+00  0.49140883549E+01 -0.10009766324E+02  0.11187421942E+02  0.00000000000E+00 0. -1.
</event>
<event>
 7    1  0.2945316E-011  0.5052886E+02  0.7816164E-02  0.1300439E+00
        -11   -1    0    0    0    0  0.00000000000E+00  0.00000000000E+00  0.45593999997E+02  0.45594000000E+02  0.51100000000E-03 0.  1.
         11   -1    0    0    0    0 -0.00000000000E+00 -0.00000000000E+00 -0.45593999997E+02  0.45594000000E+02  0.51100000000E-03 0. -1.
    9900012    2    1    2    0    0  0.29690457656E+01  0.20099879383E+02 -0.35218536568E+02  0.50528859552E+02  0.29999999093E+02 0.  0.
        -12    1    1    2    0    0 -0.29690457656E+01 -0.20099879383E+02  0.35218536568E+02  0.40659140448E+02  0.00000000000E+00 0.  1.
         11    1    3    3    0    0 -0.21735973914E+01 -0.30058749436E+01 -0.28970376939E+00  0.37207174485E+01  0.51100000000E-03 0. -1.
        -11    1    3    3    0    0 -0.47299436777E+01  0.79588076495E+01 -0.23552485052E+01  0.95531242104E+01  0.51100000000E-03 0.  1.
        -12    1    3    3    0    0  0.98725868347E+01  0.15146946677E+02 -0.32573584294E+02  0.37255017893E+02  0.00000000000E+00 0.  1.
</event>
<event>
 7    1  0.2945316E-011  0.5052886E+02  0.7816164E-02  0.1300439E+00
        -11   -1    0    0    0    0  0.00000000000E+00  0.00000000000E+00  0.45593999997E+02  0.45594000000E+02  0.51100000000E-03 0. -1.
         11   -1    0    0    0    0 -0.00000000000E+00 -0.00000000000E+00 -0.45593999997E+02  0.45594000000E+02  0.51100000000E-03 0.  1.
    9900012    2    1    2    0    0 -0.26841026162E+02 -0.59056684072E+01  0.29964113472E+02  0.50528859565E+02  0.29999999134E+02 0.  0.
        -12    1    1    2    0    0  0.26841026162E+02  0.59056684072E+01 -0.29964113472E+02  0.40659140435E+02  0.00000000000E+00 0.  1.
         11    1    3    3    0    0 -0.25736892389E+02 -0.34035423922E+01  0.85202335054E+01  0.27323361980E+02  0.51100000000E-03 0. -1.
        -11    1    3    3    0    0 -0.25287805424E+01 -0.51838118000E+01  0.15327928867E+02  0.16377180447E+02  0.51100000000E-03 0.  1.
        -12    1    3    3    0    0  0.14246467695E+01  0.26816857850E+01  0.61159510999E+01  0.68283171371E+01  0.00000000000E+00 0.  1.
</event>
<event>
 7    1  0.2945316E-011  0.5052884E+02  0.7816164E-02  0.1300439E+00
        -11   -1    0    0    0    0  0.00000000000E+00  0.00000000000E+00  0.45593999997E+02  0.45594000000E+02  0.51100000000E-03 0.  1.
         11   -1    0    0    0    0 -0.00000000000E+00 -0.00000000000E+00 -0.45593999997E+02  0.45594000000E+02  0.51100000000E-03 0. -1.
    9900012    2    1    2    0    0  0.36945059016E+02  0.16621218600E+02 -0.34590171438E+01  0.50528842445E+02  0.29999947097E+02 0.  0.
        -12    1    1    2    0    0 -0.36945059016E+02 -0.16621218600E+02  0.34590171438E+01  0.40659157555E+02  0.00000000000E+00 0.  1.
         11    1    3    3    0    0  0.12429653882E+02  0.29084412900E+01 -0.67455087373E+01  0.14438047470E+02  0.51100000000E-03 0. -1.
        -11    1    3    3    0    0  0.70805517730E+01  0.15530827959E+02 -0.32630421758E+01  0.17377809845E+02  0.51100000000E-03 0.  1.
        -12    1    3    3    0    0  0.17434853361E+02 -0.18180506493E+01  0.65495337693E+01  0.18712985130E+02  0.00000000000E+00 0.  1.
</event>
<event>
 7    1  0.2945316E-011  0.5052886E+02  0.7816164E-02  0.1300439E+00
        -11   -1    0    0    0    0  0.00000000000E+00  0.00000000000E+00  0.45593999997E+02  0.45594000000E+02  0.51100000000E-03 0.  1.
         11   -1    0    0    0    0 -0.00000000000E+00 -0.00000000000E+00 -0.45593999997E+02  0.45594000000E+02  0.51100000000E-03 0. -1.
    9900012    2    1    2    0    0  0.18881809630E+02 -0.25051361840E+02 -0.25866427585E+02  0.50528861532E+02  0.30000005113E+02 0.  0.
        -12    1    1    2    0    0 -0.18881809630E+02  0.25051361840E+02  0.25866427585E+02  0.40659138468E+02  0.00000000000E+00 0.  1.
         11    1    3    3    0    0  0.34823495737E+00 -0.45989080517E+01  0.63532579396E+01  0.78508031157E+01  0.51100000000E-03 0.  1.
        -11    1    3    3    0    0  0.93765527078E+01 -0.77913814960E+01 -0.16482822752E+02  0.20501434400E+02  0.51100000000E-03 0. -1.
        -12    1    3    3    0    0  0.91570219646E+01 -0.12661072293E+02 -0.15736862772E+02  0.22176624017E+02  0.00000000000E+00 0.  1.
</event>
<event>
 7    1  0.2945316E-011  0.5052885E+02  0.7816164E-02  0.1300439E+00
        -11   -1    0    0    0    0  0.00000000000E+00  0.00000000000E+00  0.45593999997E+02  0.45594000000E+02  0.51100000000E-03 0. -1.
         11   -1    0    0    0    0 -0.00000000000E+00 -0.00000000000E+00 -0.45593999997E+02  0.45594000000E+02  0.51100000000E-03 0.  1.
    9900012    2    1    2    0    0  0.39359236214E+02  0.86515063448E+01  0.54007939116E+01  0.50528848358E+02  0.29999965069E+02 0.  0.
        -12    1    1    2    0    0 -0.39359236214E+02 -0.86515063448E+01 -0.54007939116E+01  0.40659151642E+02  0.00000000000E+00 0.  1.
         11    1    3    3    0    0  0.34392932163E+02  0.19262780930E+01  0.70658917103E+01  0.35164060573E+02  0.51100000000E-03 0. -1.
        -11    1    3    3    0    0  0.93283959817E+01  0.42623863563E+01 -0.87216604097E+00  0.10293084227E+02  0.51100000000E-03 0.  1.
         12    1    3    3    0    0 -0.43620919303E+01  0.24628418955E+01 -0.79293175772E+00  0.50717035583E+01  0.00000000000E+00 0. -1.
</event>
<event>
 7    1  0.2945316E-011  0.5052886E+02  0.7816164E-02  0.1300439E+00
        -11   -1    0    0    0    0  0.00000000000E+00  0.00000000000E+00  0.45593999997E+02  0.45594000000E+02  0.51100000000E-03 0.  1.
         11   -1    0    0    0    0 -0.00000000000E+00 -0.00000000000E+00 -0.45593999997E+02  0.45594000000E+02  0.51100000000E-03 0. -1.
    9900012    2    1    2    0    0  0.39301329421E+02  0.42924165233E+01 -0.94945231174E+01  0.50528864457E+02  0.30000014004E+02 0.  0.
        -12    1    1    2    0    0 -0.39301329421E+02 -0.42924165233E+01  0.94945231174E+01  0.40659135543E+02  0.00000000000E+00 0.  1.
         11    1    3    3    0    0  0.98961173617E+01 -0.44069609400E+01  0.23940505264E+01  0.11094409482E+02  0.51100000000E-03 0. -1.
        -11    1    3    3    0    0  0.24029477672E+00 -0.44462067667E+01  0.15793030096E+01  0.47244782198E+01  0.51100000000E-03 0.  1.
        -12    1    3    3    0    0  0.29164917282E+02  0.13145584230E+02 -0.13467876653E+02  0.34709976756E+02  0.00000000000E+00 0.  1.
</event>
<event>
 7    1  0.2945316E-011  0.5052886E+02  0.7816164E-02  0.1300439E+00
        -11   -1    0    0    0    0  0.00000000000E+00  0.00000000000E+00  0.45593999997E+02  0.45594000000E+02  0.51100000000E-03 0.  1.
         11   -1    0    0    0    0 -0.00000000000E+00 -0.00000000000E+00 -0.45593999997E+02  0.45594000000E+02  0.51100000000E-03 0. -1.
    9900012    2    1    2    0    0  0.39851961931E+02  0.24963536150E+01  0.76651753793E+01  0.50528861240E+02  0.30000004224E+02 0.  0.
        -12    1    1    2    0    0 -0.39851961931E+02 -0.24963536150E+01 -0.76651753793E+01  0.40659138760E+02  0.00000000000E+00 0.  1.
         11    1    3    3    0    0  0.18125540298E+02  0.17144896365E+01 -0.51857839594E+01  0.18930584813E+02  0.51100000000E-03 0. -1.
        -11    1    3    3    0    0  0.21877278724E+02  0.47266592855E+00  0.34046009823E+01  0.22145655230E+02  0.51100000000E-03 0.  1.
        -12    1    3    3    0    0 -0.15085709098E+00  0.30919805000E+00  0.94463583564E+01  0.94526211970E+01  0.00000000000E+00 0.  1.
</event>
<event>
 7    1  0.2945316E-011  0.5052887E+02  0.7816164E-02  0.1300439E+00
        -11   -1    0    0    0    0  0.00000000000E+00  0.00000000000E+00  0.45593999997E+02  0.45594000000E+02  0.51100000000E-03 0. -1.
         11   -1    0    0    0    0 -0.00000000000E+00 -0.00000000000E+00 -0.45593999997E+02  0.45594000000E+02  0.51100000000E-03 0.  1.
    9900012    2    1    2    0    0  0.16678361235E+02  0.23569581305E+02  0.28626426408E+02  0.50528865906E+02  0.30000018409E+02 0.  0.
        -12    1    1    2    0    0 -0.16678361235E+02 -0.23569581305E+02 -0.28626426408E+02  0.40659134094E+02  0.00000000000E+00 0.  1.
         11    1    3    3    0    0  0.22116796804E+01  0.77721193628E+01  0.87381225247E+01  0.11901770957E+02  0.51100000000E-03 0. -1.
        -11    1    3    3    0    0  0.52969949880E+01  0.20604287162E+02  0.18477465924E+02  0.28178210599E+02  0.51100000000E-03 0.  1.
        -12    1    3    3    0    0  0.91696865662E+01 -0.48068252191E+01  0.14108379590E+01  0.10448884350E+02  0.00000000000E+00 0.  1.
</event>
<event>
 7    1  0.2945316E-011  0.5052885E+02  0.7816164E-02  0.1300439E+00
        -11   -1    0    0    0    0  0.00000000000E+00  0.00000000000E+00  0.45593999997E+02  0.45594000000E+02  0.51100000000E-03 0.  1.
         11   -1    0    0    0    0 -0.00000000000E+00 -0.00000000000E+00 -0.45593999997E+02  0.45594000000E+02  0.51100000000E-03 0. -1.
    9900012    2    1    2    0    0  0.31077719235E+02 -0.24168426256E+02  0.10160177650E+02  0.50528847642E+02  0.29999962894E+02 0.  0.
        -12    1    1    2    0    0 -0.31077719235E+02  0.24168426256E+02 -0.10160177650E+02  0.40659152358E+02  0.00000000000E+00 0.  1.
         11    1    3    3    0    0  0.13627789822E+02 -0.66104335953E+01 -0.64603957082E+01  0.16466669387E+02  0.51100000000E-03 0. -1.
        -11    1    3    3    0    0 -0.30470452963E+01 -0.43082396655E+01  0.37162944239E+01  0.64541659849E+01  0.51100000000E-03 0.  1.
         12    1    3    3    0    0  0.20496974710E+02 -0.13249752996E+02  0.12904278934E+02  0.27608012270E+02  0.00000000000E+00 0. -1.
</event>
<event>
 7    1  0.2945316E-011  0.5052886E+02  0.7816164E-02  0.1300439E+00
        -11   -1    0    0    0    0  0.00000000000E+00  0.00000000000E+00  0.45593999997E+02  0.45594000000E+02  0.51100000000E-03 0.  1.
         11   -1    0    0    0    0 -0.00000000000E+00 -0.00000000000E+00 -0.45593999997E+02  0.45594000000E+02  0.51100000000E-03 0. -1.
    9900012    2    1    2    0    0  0.21442719806E+02  0.30714386349E+02 -0.15811457775E+02  0.50528856398E+02  0.29999989507E+02 0.  0.
        -12    1    1    2    0    0 -0.21442719806E+02 -0.30714386349E+02  0.15811457775E+02  0.40659143602E+02  0.00000000000E+00 0.  1.
         11    1    3    3    0    0  0.15434753483E+02  0.94356124793E+01 -0.35574674941E+01  0.18436864516E+02  0.51100000000E-03 0. -1.
        -11    1    3    3    0    0  0.10182752878E+02  0.14755967091E+02 -0.40050133039E+00  0.17932858739E+02  0.51100000000E-03 0.  1.
        -12    1    3    3    0    0 -0.41747865555E+01  0.65228067785E+01 -0.11853488951E+02  0.14159133143E+02  0.00000000000E+00 0.  1.
</event>
<event>
 7    1  0.2945316E-011  0.5052887E+02  0.7816164E-02  0.1300439E+00
        -11   -1    0    0    0    0  0.00000000000E+00  0.00000000000E+00  0.45593999997E+02  0.45594000000E+02  0.51100000000E-03 0. -1.
         11   -1    0    0    0    0 -0.00000000000E+00 -0.00000000000E+00 -0.45593999997E+02  0.45594000000E+02  0.51100000000E-03 0.  1.
    9900012    2    1    2    0    0  0.22978306527E+02 -0.15674054704E+01  0.33506795221E+02  0.50528872406E+02  0.30000038164E+02 0.  0.
        -12    1    1    2    0    0 -0.22978306527E+02  0.15674054704E+01 -0.33506795221E+02  0.40659127594E+02  0.00000000000E+00 0.  1.
         11    1    3    3    0    0  0.42811745126E+01 -0.24933016980E+01  0.10467530255E+02  0.11580768475E+02  0.51100000000E-03 0. -1.
        -11    1    3    3    0    0 -0.47244240049E+01 -0.50232277035E+01  0.76468879445E+01  0.10296984716E+02  0.51100000000E-03 0.  1.
         12    1    3    3    0    0  0.23421556020E+02  0.59491239310E+01  0.15392377021E+02  0.28651119215E+02  0.00000000000E+00 0. -1.
</event>
<event>
 7    1  0.2945316E-011  0.5052886E+02  0.7816164E-02  0.1300439E+00
        -11   -1    0    0    0    0  0.00000000000E+00  0.00000000000E+00  0.45593999997E+02  0.45594000000E+02  0.51100000000E-03 0.  1.
         11   -1    0    0    0    0 -0.00000000000E+00 -0.00000000000E+00 -0.45593999997E+02  0.45594000000E+02  0.51100000000E-03 0. -1.
    9900012    2    1    2    0    0 -0.20772132448E+02  0.34287731369E+02 -0.67849722116E+01  0.50528857648E+02  0.29999993306E+02 0.  0.
        -12    1    1    2    0    0  0.20772132448E+02 -0.34287731369E+02  0.67849722116E+01  0.40659142352E+02  0.00000000000E+00 0.  1.
         11    1    3    3    0    0 -0.17695698503E+02  0.10498981298E+02  0.24607596764E+01  0.20722492424E+02  0.51100000000E-03 0. -1.
        -11    1    3    3    0    0 -0.88089922666E+01  0.11466906626E+02 -0.26516566313E+01  0.14701005934E+02  0.51100000000E-03 0.  1.
         12    1    3    3    0    0  0.57325583212E+01  0.12321843445E+02 -0.65940752567E+01  0.15105359290E+02  0.00000000000E+00 0. -1.
</event>
<event>
 7    1  0.2945316E-011  0.5052886E+02  0.7816164E-02  0.1300439E+00
        -11   -1    0    0    0    0  0.00000000000E+00  0.00000000000E+00  0.45593999997E+02  0.45594000000E+02  0.51100000000E-03 0.  1.
         11   -1    0    0    0    0 -0.00000000000E+00 -0.00000000000E+00 -0.45593999997E+02  0.45594000000E+02  0.51100000000E-03 0. -1.
    9900012    2    1    2    0    0  0.32208186786E+02  0.12130447603E+02 -0.21648339935E+02  0.50528859859E+02  0.30000000027E+02 0.  0.
        -12    1    1    2    0    0 -0.32208186786E+02 -0.12130447603E+02  0.21648339935E+02  0.40659140141E+02  0.00000000000E+00 0.  1.
         11    1    3    3    0    0  0.27493104868E+00  0.56669254955E+01 -0.18302721575E+01  0.59615038442E+01  0.51100000000E-03 0. -1.
        -11    1    3    3    0    0  0.61900938839E+01  0.11179462390E+02 -0.11260567380E+02  0.17032264077E+02  0.51100000000E-03 0.  1.
         12    1    3    3    0    0  0.25743161853E+02 -0.47159402827E+01 -0.85575003980E+01  0.27535091937E+02  0.00000000000E+00 0. -1.
</event>
<event>
 7    1  0.2945316E-011  0.5052885E+02  0.7816164E-02  0.1300439E+00
        -11   -1    0    0    0    0  0.00000000000E+00  0.00000000000E+00  0.45593999997E+02  0.45594000000E+02  0.51100000000E-03 0.  1.
         11   -1    0    0    0    0 -0.00000000000E+00 -0.00000000000E+00 -0.45593999997E+02  0.45594000000E+02  0.51100000000E-03 0. -1.
    9900012    2    1    2    0    0  0.25523843796E+02  0.11359081450E+02 -0.29541004876E+02  0.50528852166E+02  0.29999976644E+02 0.  0.
        -12    1    1    2    0    0 -0.25523843796E+02 -0.11359081450E+02  0.29541004876E+02  0.40659147834E+02  0.00000000000E+00 0.  1.
         11    1    3    3    0    0  0.24938211077E+02  0.34716517394E+01 -0.93189462341E+01  0.26847895573E+02  0.51100000000E-03 0.  1.
        -11    1    3    3    0    0  0.44466176885E+01  0.24060301803E+01 -0.53152844332E+01  0.73357780066E+01  0.51100000000E-03 0. -1.
        -12    1    3    3    0    0 -0.38609849691E+01  0.54813995299E+01 -0.14906774208E+02  0.16345178587E+02  0.00000000000E+00 0.  1.
</event>
<event>
 7    1  0.2945316E-011  0.5052886E+02  0.7816164E-02  0.1300439E+00
        -11   -1    0    0    0    0  0.00000000000E+00  0.00000000000E+00  0.45593999997E+02  0.45594000000E+02  0.51100000000E-03 0.  1.
         11   -1    0    0    0    0 -0.00000000000E+00 -0.00000000000E+00 -0.45593999997E+02  0.45594000000E+02  0.51100000000E-03 0. -1.
    9900012    2    1    2    0    0  0.14079092437E+02  0.13159763706E+02 -0.35801752093E+02  0.50528859852E+02  0.30000000006E+02 0.  0.
        -12    1    1    2    0    0 -0.14079092437E+02 -0.13159763706E+02  0.35801752093E+02  0.40659140148E+02  0.00000000000E+00 0.  1.
         11    1    3    3    0    0  0.53143429584E+01  0.39255684363E+01 -0.14761757246E+02  0.16172872530E+02  0.51100000000E-03 0. -1.
        -11    1    3    3    0    0  0.17146414972E+02  0.60950569454E+01 -0.13619603246E+02  0.22729779111E+02  0.51100000000E-03 0.  1.
        -12    1    3    3    0    0 -0.83816654936E+01  0.31391383246E+01 -0.74203916007E+01  0.11626208211E+02  0.00000000000E+00 0.  1.
</event>
<event>
 7    1  0.2945316E-011  0.5052886E+02  0.7816164E-02  0.1300439E+00
        -11   -1    0    0    0    0  0.00000000000E+00  0.00000000000E+00  0.45593999997E+02  0.45594000000E+02  0.51100000000E-03 0.  1.
         11   -1    0    0    0    0 -0.00000000000E+00 -0.00000000000E+00 -0.45593999997E+02  0.45594000000E+02  0.51100000000E-03 0. -1.
    9900012    2    1    2    0    0 -0.24561590955E+02 -0.61025607999E+01 -0.31822207628E+02  0.50528857155E+02  0.29999991808E+02 0.  0.
        -12    1    1    2    0    0  0.24561590955E+02  0.61025607999E+01  0.31822207628E+02  0.40659142845E+02  0.00000000000E+00 0.  1.
         11    1    3    3    0    0 -0.16878502335E+02 -0.49024602275E+01 -0.20982719433E+02  0.27371380535E+02  0.51100000000E-03 0. -1.
        -11    1    3    3    0    0  0.55860739174E+01 -0.18432396572E+01 -0.73652501719E+01  0.94259569593E+01  0.51100000000E-03 0.  1.
         12    1    3    3    0    0 -0.13269162538E+02  0.64313908479E+00 -0.34742380237E+01  0.13731519660E+02  0.00000000000E+00 0. -1.
</event>
<event>
 7    1  0.2945316E-011  0.5052881E+02  0.7816164E-02  0.1300439E+00
        -11   -1    0    0    0    0  0.00000000000E+00  0.00000000000E+00  0.45593999997E+02  0.45594000000E+02  0.51100000000E-03 0.  1.
         11   -1    0    0    0    0 -0.00000000000E+00 -0.00000000000E+00 -0.45593999997E+02  0.45594000000E+02  0.51100000000E-03 0. -1.
    9900012    2    1    2    0    0  0.20836798239E+02 -0.19408289434E+02 -0.29022678769E+02  0.50528809864E+02  0.29999848063E+02 0.  0.
        -12    1    1    2    0    0 -0.20836798239E+02  0.19408289434E+02  0.29022678769E+02  0.40659190136E+02  0.00000000000E+00 0.  1.
         11    1    3    3    0    0 -0.85074623038E-02 -0.32769567466E+01 -0.38275939911E+00  0.32992458100E+01  0.51100000000E-03 0. -1.
        -11    1    3    3    0    0  0.13497455327E+02 -0.90367729509E+00  0.50308722850E+00  0.13537024414E+02  0.51100000000E-03 0.  1.
        -12    1    3    3    0    0  0.73478503736E+01 -0.15227655392E+02 -0.29143006598E+02  0.33692539640E+02  0.00000000000E+00 0.  1.
</event>
<event>
 7    1  0.2945316E-011  0.5052884E+02  0.7816164E-02  0.1300439E+00
        -11   -1    0    0    0    0  0.00000000000E+00  0.00000000000E+00  0.45593999997E+02  0.45594000000E+02  0.51100000000E-03 0.  1.
         11   -1    0    0    0    0 -0.00000000000E+00 -0.00000000000E+00 -0.45593999997E+02  0.45594000000E+02  0.51100000000E-03 0. -1.
    9900012    2    1    2    0    0 -0.30637626675E+02  0.14833684964E+02 -0.22236560708E+02  0.50528843467E+02  0.29999950202E+02 0.  0.
        -12    1    1    2    0    0  0.30637626675E+02 -0.14833684964E+02  0.22236560708E+02  0.40659156533E+02  0.00000000000E+00 0.  1.
         11    1    3    3    0    0 -0.53530401298E+01  0.14299874040E+02 -0.49152464841E+01  0.16040607359E+02  0.51100000000E-03 0. -1.
        -11    1    3    3    0    0 -0.32527284509E+00 -0.35564087097E+01  0.41735485998E+00  0.35955570743E+01  0.51100000000E-03 0.  1.
         12    1    3    3    0    0 -0.24959313700E+02  0.40902196347E+01 -0.17738669083E+02  0.30892679034E+02  0.00000000000E+00 0. -1.
</event>
<event>
 7    1  0.2945316E-011  0.5052887E+02  0.7816164E-02  0.1300439E+00
        -11   -1    0    0    0    0  0.00000000000E+00  0.00000000000E+00  0.45593999997E+02  0.45594000000E+02  0.51100000000E-03 0.  1.
         11   -1    0    0    0    0 -0.00000000000E+00 -0.00000000000E+00 -0.45593999997E+02  0.45594000000E+02  0.51100000000E-03 0. -1.
    9900012    2    1    2    0    0 -0.14873576091E+02  0.22725461603E+02 -0.30257148440E+02  0.50528869383E+02  0.30000028977E+02 0.  0.
        -12    1    1    2    0    0  0.14873576091E+02 -0.22725461603E+02  0.30257148440E+02  0.40659130617E+02  0.00000000000E+00 0.  1.
         11    1    3    3    0    0 -0.39813972325E+01  0.11741290379E+01 -0.81850137041E+01  0.91773935580E+01  0.51100000000E-03 0. -1.
        -11    1    3    3    0    0 -0.37639281703E+01  0.10821239133E+02  0.41098423543E+01  0.12171983244E+02  0.51100000000E-03 0.  1.
         12    1    3    3    0    0 -0.71282506881E+01  0.10730093431E+02 -0.26181977091E+02  0.29179492581E+02  0.00000000000E+00 0. -1.
</event>
<event>
 7    1  0.2945316E-011  0.5052886E+02  0.7816164E-02  0.1300439E+00
        -11   -1    0    0    0    0  0.00000000000E+00  0.00000000000E+00  0.45593999997E+02  0.45594000000E+02  0.51100000000E-03 0.  1.
         11   -1    0    0    0    0 -0.00000000000E+00 -0.00000000000E+00 -0.45593999997E+02  0.45594000000E+02  0.51100000000E-03 0. -1.
    9900012    2    1    2    0    0  0.24734108999E+02  0.29256892435E+02  0.13617034068E+02  0.50528861793E+02  0.30000005905E+02 0.  0.
        -12    1    1    2    0    0 -0.24734108999E+02 -0.29256892435E+02 -0.13617034068E+02  0.40659138207E+02  0.00000000000E+00 0.  1.
         11    1    3    3    0    0  0.23737324986E+02  0.13551254986E+02  0.73237636976E+01  0.28297254711E+02  0.51100000000E-03 0. -1.
        -11    1    3    3    0    0  0.58822910361E+01  0.68945102722E+01  0.79081621073E+01  0.12028077482E+02  0.51100000000E-03 0.  1.
         12    1    3    3    0    0 -0.48855070227E+01  0.88111271764E+01 -0.16148917364E+01  0.10203529600E+02  0.00000000000E+00 0. -1.
</event>
<event>
 7    1  0.2945316E-011  0.5052886E+02  0.7816164E-02  0.1300439E+00
        -11   -1    0    0    0    0  0.00000000000E+00  0.00000000000E+00  0.45593999997E+02  0.45594000000E+02  0.51100000000E-03 0.  1.
         11   -1    0    0    0    0 -0.00000000000E+00 -0.00000000000E+00 -0.45593999997E+02  0.45594000000E+02  0.51100000000E-03 0. -1.
    9900012    2    1    2    0    0  0.40221501589E+02 -0.39226530816E+01 -0.44731775192E+01  0.50528859399E+02  0.29999998629E+02 0.  0.
        -12    1    1    2    0    0 -0.40221501589E+02  0.39226530816E+01  0.44731775192E+01  0.40659140601E+02  0.00000000000E+00 0.  1.
         11    1    3    3    0    0  0.21417754039E+02  0.24669683768E+01  0.93648045709E+01  0.23505439497E+02  0.51100000000E-03 0. -1.
        -11    1    3    3    0    0  0.74663453713E+01  0.10006991506E+01  0.18452357476E+00  0.75353673570E+01  0.51100000000E-03 0.  1.
        -12    1    3    3    0    0  0.11337402179E+02 -0.73903206089E+01 -0.14022505665E+02  0.19488052545E+02  0.00000000000E+00 0.  1.
</event>
<event>
 7    1  0.2945316E-011  0.5052885E+02  0.7816164E-02  0.1300439E+00
        -11   -1    0    0    0    0  0.00000000000E+00  0.00000000000E+00  0.45593999997E+02  0.45594000000E+02  0.51100000000E-03 0.  1.
         11   -1    0    0    0    0 -0.00000000000E+00 -0.00000000000E+00 -0.45593999997E+02  0.45594000000E+02  0.51100000000E-03 0. -1.
    9900012    2    1    2    0    0  0.28865945550E+02 -0.28451724948E+02  0.32284241327E+01  0.50528853583E+02  0.29999980949E+02 0.  0.
        -12    1    1    2    0    0 -0.28865945550E+02  0.28451724948E+02 -0.32284241327E+01  0.40659146417E+02  0.00000000000E+00 0.  1.
         11    1    3    3    0    0  0.20371446844E+02 -0.16895930755E+02  0.28973927677E+01  0.26624485116E+02  0.51100000000E-03 0. -1.
        -11    1    3    3    0    0  0.11241485493E+02 -0.66436954760E+01 -0.68780049689E+01  0.14758612343E+02  0.51100000000E-03 0.  1.
         12    1    3    3    0    0 -0.27469867866E+01 -0.49120987168E+01  0.72090363339E+01  0.91457561236E+01  0.00000000000E+00 0. -1.
</event>
<event>
 7    1  0.2945316E-011  0.5052885E+02  0.7816164E-02  0.1300439E+00
        -11   -1    0    0    0    0  0.00000000000E+00  0.00000000000E+00  0.45593999997E+02  0.45594000000E+02  0.51100000000E-03 0.  1.
         11   -1    0    0    0    0 -0.00000000000E+00 -0.00000000000E+00 -0.45593999997E+02  0.45594000000E+02  0.51100000000E-03 0. -1.
    9900012    2    1    2    0    0  0.18422981459E+01  0.53433142468E+01 -0.40264396237E+02  0.50528847600E+02  0.29999962764E+02 0.  0.
        -12    1    1    2    0    0 -0.18422981459E+01 -0.53433142468E+01  0.40264396237E+02  0.40659152400E+02  0.00000000000E+00 0.  1.
         11    1    3    3    0    0 -0.20306390198E+00  0.32210333026E+01 -0.63373389428E+01  0.71118320862E+01  0.51100000000E-03 0. -1.
        -11    1    3    3    0    0 -0.10520553999E+02 -0.51537254585E+01 -0.20649694794E+02  0.23741373968E+02  0.51100000000E-03 0.  1.
        -12    1    3    3    0    0  0.12565916047E+02  0.72760064026E+01 -0.13277362500E+02  0.19675641546E+02  0.00000000000E+00 0.  1.
</event>
<event>
 7    1  0.2945316E-011  0.5052896E+02  0.7816164E-02  0.1300438E+00
        -11   -1    0    0    0    0  0.00000000000E+00  0.00000000000E+00  0.45593999997E+02  0.45594000000E+02  0.51100000000E-03 0.  1.
         11   -1    0    0    0    0 -0.00000000000E+00 -0.00000000000E+00 -0.45593999997E+02  0.45594000000E+02  0.51100000000E-03 0. -1.
    9900012    2    1    2    0    0 -0.23842893529E+02 -0.12346658565E+02 -0.30532513379E+02  0.50528955216E+02  0.30000289872E+02 0.  0.
        -12    1    1    2    0    0  0.23842893529E+02  0.12346658565E+02  0.30532513379E+02  0.40659044784E+02  0.00000000000E+00 0.  1.
         11    1    3    3    0    0 -0.18160932144E+01 -0.10604897411E+02 -0.11439059302E+02  0.15703952421E+02  0.51100000000E-03 0. -1.
        -11    1    3    3    0    0  0.19907925147E+00 -0.60022191660E+01 -0.15818240966E+01  0.62103490400E+01  0.51100000000E-03 0.  1.
         12    1    3    3    0    0 -0.22225879566E+02  0.42604580114E+01 -0.17511629980E+02  0.28614653755E+02  0.00000000000E+00 0. -1.
</event>
<event>
 7    1  0.2945316E-011  0.5052886E+02  0.7816164E-02  0.1300439E+00
        -11   -1    0    0    0    0  0.00000000000E+00  0.00000000000E+00  0.45593999997E+02  0.45594000000E+02  0.51100000000E-03 0.  1.
         11   -1    0    0    0    0 -0.00000000000E+00 -0.00000000000E+00 -0.45593999997E+02  0.45594000000E+02  0.51100000000E-03 0. -1.
    9900012    2    1    2    0    0 -0.12440217210E+02  0.16542609526E+02 -0.34996407943E+02  0.50528861998E+02  0.30000006528E+02 0.  0.
        -12    1    1    2    0    0  0.12440217210E+02 -0.16542609526E+02  0.34996407943E+02  0.40659138002E+02  0.00000000000E+00 0.  1.
         11    1    3    3    0    0 -0.11328991483E+02  0.36279594726E+01 -0.11650934041E+02  0.16650897941E+02  0.51100000000E-03 0.  1.
        -11    1    3    3    0    0 -0.78724535107E+01  0.25098221511E+01 -0.19019546159E+02  0.20736872182E+02  0.51100000000E-03 0. -1.
         12    1    3    3    0    0  0.67612277844E+01  0.10404827902E+02 -0.43259277430E+01  0.13141091875E+02  0.00000000000E+00 0. -1.
</event>
<event>
 7    1  0.2945316E-011  0.5052886E+02  0.7816164E-02  0.1300439E+00
        -11   -1    0    0    0    0  0.00000000000E+00  0.00000000000E+00  0.45593999997E+02  0.45594000000E+02  0.51100000000E-03 0. -1.
         11   -1    0    0    0    0 -0.00000000000E+00 -0.00000000000E+00 -0.45593999997E+02  0.45594000000E+02  0.51100000000E-03 0.  1.
    9900012    2    1    2    0    0 -0.36052959076E+02 -0.12034462039E+02 -0.14440277180E+02  0.50528859087E+02  0.29999997682E+02 0.  0.
        -12    1    1    2    0    0  0.36052959076E+02  0.12034462039E+02  0.14440277180E+02  0.40659140913E+02  0.00000000000E+00 0.  1.
         11    1    3    3    0    0 -0.27193453885E+02 -0.13236067448E+02 -0.13916973918E+02  0.33292034768E+02  0.51100000000E-03 0. -1.
        -11    1    3    3    0    0 -0.10020339258E+02 -0.27870721595E+01 -0.46396316476E+01  0.11388641365E+02  0.51100000000E-03 0.  1.
         12    1    3    3    0    0  0.11608340667E+01  0.39886775693E+01  0.41163283858E+01  0.58481829539E+01  0.00000000000E+00 0. -1.
</event>
<event>
 7    1  0.2945316E-011  0.5052885E+02  0.7816164E-02  0.1300439E+00
        -11   -1    0    0    0    0  0.00000000000E+00  0.00000000000E+00  0.45593999997E+02  0.45594000000E+02  0.51100000000E-03 0. -1.
         11   -1    0    0    0    0 -0.00000000000E+00 -0.00000000000E+00 -0.45593999997E+02  0.45594000000E+02  0.51100000000E-03 0.  1.
    9900012    2    1    2    0    0  0.23120442712E+02  0.20333835765E+02  0.26554591876E+02  0.50528854684E+02  0.29999984298E+02 0.  0.
        -12    1    1    2    0    0 -0.23120442712E+02 -0.20333835765E+02 -0.26554591876E+02  0.40659145316E+02  0.00000000000E+00 0.  1.
         11    1    3    3    0    0 -0.25024070116E+00 -0.40623716988E+01  0.26966473947E+01  0.48823551346E+01  0.51100000000E-03 0. -1.
        -11    1    3    3    0    0  0.33586944135E+01  0.24226704348E+00 -0.28791190037E+01  0.44304455738E+01  0.51100000000E-03 0.  1.
         12    1    3    3    0    0  0.20011989000E+02  0.24153940420E+02  0.26737063485E+02  0.41216053976E+02  0.00000000000E+00 0. -1.
</event>
<event>
 7    1  0.2945316E-011  0.5052880E+02  0.7816164E-02  0.1300439E+00
        -11   -1    0    0    0    0  0.00000000000E+00  0.00000000000E+00  0.45593999997E+02  0.45594000000E+02  0.51100000000E-03 0.  1.
         11   -1    0    0    0    0 -0.00000000000E+00 -0.00000000000E+00 -0.45593999997E+02  0.45594000000E+02  0.51100000000E-03 0. -1.
    9900012    2    1    2    0    0  0.39414866375E+02 -0.84488689608E+01 -0.53155546131E+01  0.50528804252E+02  0.29999831003E+02 0.  0.
        -12    1    1    2    0    0 -0.39414866375E+02  0.84488689608E+01  0.53155546131E+01  0.40659195748E+02  0.00000000000E+00 0.  1.
         11    1    3    3    0    0  0.30370677659E+02 -0.77464723374E+01 -0.10828907717E+02  0.33160988190E+02  0.51100000000E-03 0. -1.
        -11    1    3    3    0    0  0.11630277202E+02 -0.26922855476E+01  0.12558696999E+01  0.12003706021E+02  0.51100000000E-03 0.  1.
        -12    1    3    3    0    0 -0.25860884865E+01  0.19898889243E+01  0.42574834044E+01  0.53641100408E+01  0.00000000000E+00 0.  1.
</event>
<event>
 7    1  0.2945316E-011  0.5052887E+02  0.7816164E-02  0.1300439E+00
        -11   -1    0    0    0    0  0.00000000000E+00  0.00000000000E+00  0.45593999997E+02  0.45594000000E+02  0.51100000000E-03 0. -1.
         11   -1    0    0    0    0 -0.00000000000E+00 -0.00000000000E+00 -0.45593999997E+02  0.45594000000E+02  0.51100000000E-03 0.  1.
    9900012    2    1    2    0    0 -0.58584452864E+01 -0.36028578352E+02  0.17910483280E+02  0.50528865103E+02  0.30000015968E+02 0.  0.
        -12    1    1    2    0    0  0.58584452864E+01  0.36028578352E+02 -0.17910483280E+02  0.40659134897E+02  0.00000000000E+00 0.  1.
         11    1    3    3    0    0 -0.52796510861E+01 -0.18441831037E+02  0.94970653800E+01  0.21404908285E+02  0.51100000000E-03 0. -1.
        -11    1    3    3    0    0 -0.89782472492E+01 -0.15511931140E+02  0.96960288068E+01  0.20377485278E+02  0.51100000000E-03 0.  1.
        -12    1    3    3    0    0  0.83994530489E+01 -0.20748161748E+01 -0.12826109066E+01  0.87464715410E+01  0.00000000000E+00 0.  1.
</event>
<event>
 7    1  0.2945316E-011  0.5052886E+02  0.7816164E-02  0.1300439E+00
        -11   -1    0    0    0    0  0.00000000000E+00  0.00000000000E+00  0.45593999997E+02  0.45594000000E+02  0.51100000000E-03 0.  1.
         11   -1    0    0    0    0 -0.00000000000E+00 -0.00000000000E+00 -0.45593999997E+02  0.45594000000E+02  0.51100000000E-03 0. -1.
    9900012    2    1    2    0    0  0.29568793077E+02  0.20150765707E+02 -0.19308001665E+02  0.50528858212E+02  0.29999995022E+02 0.  0.
        -12    1    1    2    0    0 -0.29568793077E+02 -0.20150765707E+02  0.19308001665E+02  0.40659141788E+02  0.00000000000E+00 0.  1.
         11    1    3    3    0    0  0.10921400523E+01  0.65762622821E+01 -0.78840426695E+01  0.10324636777E+02  0.51100000000E-03 0. -1.
        -11    1    3    3    0    0 -0.31688771909E+01 -0.13237021699E+01 -0.85649804309E-01  0.34353029322E+01  0.51100000000E-03 0.  1.
        -12    1    3    3    0    0  0.31645530216E+02  0.14898205595E+02 -0.11338309191E+02  0.36768918503E+02  0.00000000000E+00 0.  1.
</event>
<event>
 7    1  0.2945316E-011  0.5052885E+02  0.7816164E-02  0.1300439E+00
        -11   -1    0    0    0    0  0.00000000000E+00  0.00000000000E+00  0.45593999997E+02  0.45594000000E+02  0.51100000000E-03 0.  1.
         11   -1    0    0    0    0 -0.00000000000E+00 -0.00000000000E+00 -0.45593999997E+02  0.45594000000E+02  0.51100000000E-03 0. -1.
    9900012    2    1    2    0    0 -0.73778271187E+01  0.39881471853E+02 -0.28640288820E+01  0.50528846153E+02  0.29999958367E+02 0.  0.
        -12    1    1    2    0    0  0.73778271187E+01 -0.39881471853E+02  0.28640288820E+01  0.40659153847E+02  0.00000000000E+00 0.  1.
         11    1    3    3    0    0  0.42779844121E+01  0.20808359584E+02 -0.88763034760E+01  0.23023417272E+02  0.51100000000E-03 0. -1.
        -11    1    3    3    0    0 -0.22716582293E+01  0.11873507725E+02 -0.32093227847E+01  0.12507612474E+02  0.51100000000E-03 0.  1.
        -12    1    3    3    0    0 -0.93841533014E+01  0.71996045434E+01  0.92215973786E+01  0.14997816407E+02  0.00000000000E+00 0.  1.
</event>
<event>
 7    1  0.2945316E-011  0.5052886E+02  0.7816164E-02  0.1300439E+00
        -11   -1    0    0    0    0  0.00000000000E+00  0.00000000000E+00  0.45593999997E+02  0.45594000000E+02  0.51100000000E-03 0. -1.
         11   -1    0    0    0    0 -0.00000000000E+00 -0.00000000000E+00 -0.45593999997E+02  0.45594000000E+02  0.51100000000E-03 0.  1.
    9900012    2    1    2    0    0  0.13426192510E+02  0.28845725111E+02  0.25314571869E+02  0.50528855255E+02  0.29999986033E+02 0.  0.
        -12    1    1    2    0    0 -0.13426192510E+02 -0.28845725111E+02 -0.25314571869E+02  0.40659144745E+02  0.00000000000E+00 0.  1.
         11    1    3    3    0    0  0.10089626736E+02  0.21858841834E+02  0.30779152880E+01  0.24271034111E+02  0.51100000000E-03 0.  1.
        -11    1    3    3    0    0  0.37336300599E+01  0.10051130619E+02  0.18748396556E+02  0.21597860863E+02  0.51100000000E-03 0. -1.
        -12    1    3    3    0    0 -0.39706428613E+00 -0.30642473432E+01  0.34882600245E+01  0.46599602817E+01  0.00000000000E+00 0.  1.
</event>
<event>
 7    1  0.2945316E-011  0.5052886E+02  0.7816164E-02  0.1300439E+00
        -11   -1    0    0    0    0  0.00000000000E+00  0.00000000000E+00  0.45593999997E+02  0.45594000000E+02  0.51100000000E-03 0. -1.
         11   -1    0    0    0    0 -0.00000000000E+00 -0.00000000000E+00 -0.45593999997E+02  0.45594000000E+02  0.51100000000E-03 0.  1.
    9900012    2    1    2    0    0  0.30495250706E+02 -0.24322129223E+02  0.11473420862E+02  0.50528859923E+02  0.30000000221E+02 0.  0.
        -12    1    1    2    0    0 -0.30495250706E+02  0.24322129223E+02 -0.11473420862E+02  0.40659140077E+02  0.00000000000E+00 0.  1.
         11    1    3    3    0    0  0.50996166844E-02 -0.17799106854E+01  0.67130773696E-01  0.17811835548E+01  0.51100000000E-03 0. -1.
        -11    1    3    3    0    0  0.33492786619E+02 -0.10736153161E+02  0.93542002112E+01  0.36394131424E+02  0.51100000000E-03 0.  1.
        -12    1    3    3    0    0 -0.30026355305E+01 -0.11806065377E+02  0.20520898769E+01  0.12353544944E+02  0.00000000000E+00 0.  1.
</event>
<event>
 7    1  0.2945316E-011  0.5052875E+02  0.7816164E-02  0.1300439E+00
        -11   -1    0    0    0    0  0.00000000000E+00  0.00000000000E+00  0.45593999997E+02  0.45594000000E+02  0.51100000000E-03 0. -1.
         11   -1    0    0    0    0 -0.00000000000E+00 -0.00000000000E+00 -0.45593999997E+02  0.45594000000E+02  0.51100000000E-03 0.  1.
    9900012    2    1    2    0    0  0.27899570588E+02 -0.73142345843E+01  0.28658166253E+02  0.50528750628E+02  0.29999668006E+02 0.  0.
        -12    1    1    2    0    0 -0.27899570588E+02  0.73142345843E+01 -0.28658166253E+02  0.40659249372E+02  0.00000000000E+00 0.  1.
         11    1    3    3    0    0  0.62973673777E+01 -0.44216475089E+01 -0.21164101322E+01  0.79804131905E+01  0.51100000000E-03 0.  1.
        -11    1    3    3    0    0  0.12560632343E+02 -0.88921640103E+01  0.80542926785E+01  0.17369850214E+02  0.51100000000E-03 0. -1.
         12    1    3    3    0    0  0.90415708675E+01  0.59995769350E+01  0.22720283706E+02  0.25178487223E+02  0.00000000000E+00 0. -1.
</event>
<event>
 7    1  0.2945316E-011  0.5052886E+02  0.7816164E-02  0.1300439E+00
        -11   -1    0    0    0    0  0.00000000000E+00  0.00000000000E+00  0.45593999997E+02  0.45594000000E+02  0.51100000000E-03 0.  1.
         11   -1    0    0    0    0 -0.00000000000E+00 -0.00000000000E+00 -0.45593999997E+02  0.45594000000E+02  0.51100000000E-03 0. -1.
    9900012    2    1    2    0    0  0.29996607548E+02  0.58400827822E+01 -0.26819070377E+02  0.50528861210E+02  0.30000004134E+02 0.  0.
        -12    1    1    2    0    0 -0.29996607548E+02 -0.58400827822E+01  0.26819070377E+02  0.40659138790E+02  0.00000000000E+00 0.  1.
         11    1    3    3    0    0  0.67188282308E+01 -0.53280881959E+00 -0.13759266608E+02  0.15321356203E+02  0.51100000000E-03 0. -1.
        -11    1    3    3    0    0  0.48931260824E+01  0.12014649088E+02 -0.82851881648E+01  0.15392817115E+02  0.51100000000E-03 0.  1.
        -12    1    3    3    0    0  0.18384653235E+02 -0.56417574860E+01 -0.47746156035E+01  0.19814687892E+02  0.00000000000E+00 0.  1.
</event>
<event>
 7    1  0.2945316E-011  0.5052886E+02  0.7816164E-02  0.1300439E+00
        -11   -1    0    0    0    0  0.00000000000E+00  0.00000000000E+00  0.45593999997E+02  0.45594000000E+02  0.51100000000E-03 0. -1.
         11   -1    0    0    0    0 -0.00000000000E+00 -0.00000000000E+00 -0.45593999997E+02  0.45594000000E+02  0.51100000000E-03 0.  1.
    9900012    2    1    2    0    0  0.39728033912E+02  0.76731691345E+01 -0.39964522963E+01  0.50528857928E+02  0.29999994158E+02 0.  0.
        -12    1    1    2    0    0 -0.39728033912E+02 -0.76731691345E+01  0.39964522963E+01  0.40659142072E+02  0.00000000000E+00 0.  1.
         11    1    3    3    0    0  0.72967466721E+01 -0.16639034901E+01 -0.79794113279E+01  0.10939931089E+02  0.51100000000E-03 0. -1.
        -11    1    3    3    0    0  0.22153037901E+02  0.12695998569E+01 -0.61819190304E+01  0.23034432817E+02  0.51100000000E-03 0.  1.
         12    1    3    3    0    0  0.10278249338E+02  0.80674727678E+01  0.10164878062E+02  0.16554494022E+02  0.00000000000E+00 0. -1.
</event>
<event>
 7    1  0.2945316E-011  0.5052892E+02  0.7816164E-02  0.1300439E+00
        -11   -1    0    0    0    0  0.00000000000E+00  0.00000000000E+00  0.45593999997E+02  0.45594000000E+02  0.51100000000E-03 0. -1.
         11   -1    0    0    0    0 -0.00000000000E+00 -0.00000000000E+00 -0.45593999997E+02  0.45594000000E+02  0.51100000000E-03 0.  1.
    9900012    2    1    2    0    0 -0.10085591777E+02 -0.33986788972E+02  0.19908283016E+02  0.50528920832E+02  0.30000185361E+02 0.  0.
        -12    1    1    2    0    0  0.10085591777E+02  0.33986788972E+02 -0.19908283016E+02  0.40659079168E+02  0.00000000000E+00 0.  1.
         11    1    3    3    0    0  0.14940604229E+01 -0.15102028530E+02  0.30602180993E+01  0.15481227901E+02  0.51100000000E-03 0. -1.
        -11    1    3    3    0    0 -0.62895125521E+01 -0.16104274108E+02  0.21417376053E+02  0.27524709080E+02  0.51100000000E-03 0.  1.
        -12    1    3    3    0    0 -0.52901396473E+01 -0.27804863347E+01 -0.45693111370E+01  0.75229838503E+01  0.00000000000E+00 0.  1.
</event>
<event>
 7    1  0.2945316E-011  0.5052884E+02  0.7816164E-02  0.1300439E+00
        -11   -1    0    0    0    0  0.00000000000E+00  0.00000000000E+00  0.45593999997E+02  0.45594000000E+02  0.51100000000E-03 0. -1.
         11   -1    0    0    0    0 -0.00000000000E+00 -0.00000000000E+00 -0.45593999997E+02  0.45594000000E+02  0.51100000000E-03 0.  1.
    9900012    2    1    2    0    0  0.28627799370E+02 -0.28562088487E+02 -0.42217480300E+01  0.50528844181E+02  0.29999952371E+02 0.  0.
        -12    1    1    2    0    0 -0.28627799370E+02  0.28562088487E+02  0.42217480300E+01  0.40659155819E+02  0.00000000000E+00 0.  1.
         11    1    3    3    0    0 -0.51755380110E+00  0.78161931899E+00  0.14860042616E+00  0.94914332144E+00  0.51100000000E-03 0. -1.
        -11    1    3    3    0    0  0.10728586466E+02 -0.39571590608E+01 -0.12739609505E+02  0.17118975612E+02  0.51100000000E-03 0.  1.
        -12    1    3    3    0    0  0.18416766705E+02 -0.25386548745E+02  0.83692610491E+01  0.32460725247E+02  0.00000000000E+00 0.  1.
</event>
<event>
 7    1  0.2945316E-011  0.5052891E+02  0.7816164E-02  0.1300439E+00
        -11   -1    0    0    0    0  0.00000000000E+00  0.00000000000E+00  0.45593999997E+02  0.45594000000E+02  0.51100000000E-03 0.  1.
         11   -1    0    0    0    0 -0.00000000000E+00 -0.00000000000E+00 -0.45593999997E+02  0.45594000000E+02  0.51100000000E-03 0. -1.
    9900012    2    1    2    0    0 -0.36937244788E+01 -0.90904181657E+01 -0.39457352518E+02  0.50528905437E+02  0.30000138567E+02 0.  0.
        -12    1    1    2    0    0  0.36937244788E+01  0.90904181657E+01  0.39457352518E+02  0.40659094563E+02  0.00000000000E+00 0.  1.
         11    1    3    3    0    0  0.42156001297E+00 -0.17667259543E+01 -0.10431839857E+02  0.10588782579E+02  0.51100000000E-03 0. -1.
        -11    1    3    3    0    0  0.64197444916E+01 -0.13492475968E+02 -0.18804701313E+02  0.24018260112E+02  0.51100000000E-03 0.  1.
        -12    1    3    3    0    0 -0.10535028983E+02  0.61687837561E+01 -0.10220811348E+02  0.15921862747E+02  0.00000000000E+00 0.  1.
</event>
<event>
 7    1  0.2945316E-011  0.5052891E+02  0.7816164E-02  0.1300439E+00
        -11   -1    0    0    0    0  0.00000000000E+00  0.00000000000E+00  0.45593999997E+02  0.45594000000E+02  0.51100000000E-03 0. -1.
         11   -1    0    0    0    0 -0.00000000000E+00 -0.00000000000E+00 -0.45593999997E+02  0.45594000000E+02  0.51100000000E-03 0.  1.
    9900012    2    1    2    0    0 -0.36589466120E+02 -0.16829350615E+02  0.55808198342E+01  0.50528909712E+02  0.30000151559E+02 0.  0.
        -12    1    1    2    0    0  0.36589466120E+02  0.16829350615E+02 -0.55808198342E+01  0.40659090288E+02  0.00000000000E+00 0.  1.
         11    1    3    3    0    0 -0.23026127302E+01 -0.87986108585E+01  0.65148370932E+01  0.11187523454E+02  0.51100000000E-03 0. -1.
        -11    1    3    3    0    0  0.20570606360E+01 -0.91852510625E+00 -0.48977974435E+00  0.23054438380E+01  0.51100000000E-03 0.  1.
        -12    1    3    3    0    0 -0.36343914026E+02 -0.71122146503E+01 -0.44423751470E+00  0.37035942420E+02  0.00000000000E+00 0.  1.
</event>
<event>
 7    1  0.2945316E-011  0.5052886E+02  0.7816164E-02  0.1300439E+00
        -11   -1    0    0    0    0  0.00000000000E+00  0.00000000000E+00  0.45593999997E+02  0.45594000000E+02  0.51100000000E-03 0.  1.
         11   -1    0    0    0    0 -0.00000000000E+00 -0.00000000000E+00 -0.45593999997E+02  0.45594000000E+02  0.51100000000E-03 0. -1.
    9900012    2    1    2    0    0 -0.21002229408E+02 -0.18282164113E+02 -0.29628267203E+02  0.50528863484E+02  0.30000011046E+02 0.  0.
        -12    1    1    2    0    0  0.21002229408E+02  0.18282164113E+02  0.29628267203E+02  0.40659136516E+02  0.00000000000E+00 0.  1.
         11    1    3    3    0    0 -0.81085565663E+00 -0.54947856015E+01  0.99206804463E+00  0.56421941626E+01  0.51100000000E-03 0. -1.
        -11    1    3    3    0    0  0.95447200132E+00  0.37389241385E+00  0.29285514451E+01  0.31027771700E+01  0.51100000000E-03 0.  1.
         12    1    3    3    0    0 -0.21145845753E+02 -0.13161270926E+02 -0.33548886693E+02  0.41783892151E+02  0.00000000000E+00 0. -1.
</event>
<event>
 7    1  0.2945316E-011  0.5052886E+02  0.7816164E-02  0.1300439E+00
        -11   -1    0    0    0    0  0.00000000000E+00  0.00000000000E+00  0.45593999997E+02  0.45594000000E+02  0.51100000000E-03 0.  1.
         11   -1    0    0    0    0 -0.00000000000E+00 -0.00000000000E+00 -0.45593999997E+02  0.45594000000E+02  0.51100000000E-03 0. -1.
    9900012    2    1    2    0    0  0.78104140224E+01  0.16135449606E+02 -0.36493974216E+02  0.50528862586E+02  0.30000008316E+02 0.  0.
        -12    1    1    2    0    0 -0.78104140224E+01 -0.16135449606E+02  0.36493974216E+02  0.40659137414E+02  0.00000000000E+00 0.  1.
         11    1    3    3    0    0  0.17171669158E+01  0.77772763710E+01 -0.31126941389E+02  0.32129755220E+02  0.51100000000E-03 0. -1.
        -11    1    3    3    0    0 -0.29454372509E+01  0.18314271915E+01 -0.63204799731E+01  0.72095903842E+01  0.51100000000E-03 0.  1.
        -12    1    3    3    0    0  0.90386843576E+01  0.65267460429E+01  0.95344714630E+00  0.11189516982E+02  0.00000000000E+00 0.  1.
</event>
<event>
 7    1  0.2945316E-011  0.5052886E+02  0.7816164E-02  0.1300439E+00
        -11   -1    0    0    0    0  0.00000000000E+00  0.00000000000E+00  0.45593999997E+02  0.45594000000E+02  0.51100000000E-03 0.  1.
         11   -1    0    0    0    0 -0.00000000000E+00 -0.00000000000E+00 -0.45593999997E+02  0.45594000000E+02  0.51100000000E-03 0. -1.
    9900012    2    1    2    0    0  0.28074870389E+01 -0.27039049209E+02 -0.30235306177E+02  0.50528857053E+02  0.29999991497E+02 0.  0.
        -12    1    1    2    0    0 -0.28074870389E+01  0.27039049209E+02  0.30235306177E+02  0.40659142947E+02  0.00000000000E+00 0.  1.
         11    1    3    3    0    0 -0.80056462508E+01 -0.11874529386E+02 -0.56646101385E+01  0.15400734668E+02  0.51100000000E-03 0. -1.
        -11    1    3    3    0    0 -0.33444433039E+01 -0.81502878617E+01 -0.12266983415E+02  0.15102694316E+02  0.51100000000E-03 0.  1.
        -12    1    3    3    0    0  0.14157576594E+02 -0.70142319611E+01 -0.12303712624E+02  0.20025428069E+02  0.00000000000E+00 0.  1.
</event>
<event>
 7    1  0.2945316E-011  0.5052885E+02  0.7816164E-02  0.1300439E+00
        -11   -1    0    0    0    0  0.00000000000E+00  0.00000000000E+00  0.45593999997E+02  0.45594000000E+02  0.51100000000E-03 0. -1.
         11   -1    0    0    0    0 -0.00000000000E+00 -0.00000000000E+00 -0.45593999997E+02  0.45594000000E+02  0.51100000000E-03 0.  1.
    9900012    2    1    2    0    0  0.34767300531E+02 -0.20065715205E+02 -0.64628235407E+01  0.50528853416E+02  0.29999980442E+02 0.  0.
        -12    1    1    2    0    0 -0.34767300531E+02  0.20065715205E+02  0.64628235407E+01  0.40659146584E+02  0.00000000000E+00 0.  1.
         11    1    3    3    0    0  0.40908101244E+01 -0.12776071553E+02 -0.72761612173E+01  0.15261233703E+02  0.51100000000E-03 0. -1.
        -11    1    3    3    0    0  0.13750932845E+01  0.38439122818E+00 -0.43166206285E+01  0.45466308481E+01  0.51100000000E-03 0.  1.
         12    1    3    3    0    0  0.29301397122E+02 -0.76740348797E+01  0.51299583052E+01  0.30720988865E+02  0.00000000000E+00 0. -1.
</event>
<event>
 7    1  0.2945316E-011  0.5052886E+02  0.7816164E-02  0.1300439E+00
        -11   -1    0    0    0    0  0.00000000000E+00  0.00000000000E+00  0.45593999997E+02  0.45594000000E+02  0.51100000000E-03 0.  1.
         11   -1    0    0    0    0 -0.00000000000E+00 -0.00000000000E+00 -0.45593999997E+02  0.45594000000E+02  0.51100000000E-03 0. -1.
    9900012    2    1    2    0    0 -0.10730000468E+02 -0.16977944144E+02 -0.35352261109E+02  0.50528857573E+02  0.29999993079E+02 0.  0.
        -12    1    1    2    0    0  0.10730000468E+02  0.16977944144E+02  0.35352261109E+02  0.40659142427E+02  0.00000000000E+00 0.  1.
         11    1    3    3    0    0  0.16345276388E+01 -0.69353961076E+01 -0.11512060400E+02  0.13538793694E+02  0.51100000000E-03 0. -1.
        -11    1    3    3    0    0  0.69037044848E+01 -0.21576140384E+01 -0.41738840291E+01  0.83509126509E+01  0.51100000000E-03 0.  1.
         12    1    3    3    0    0 -0.19268232591E+02 -0.78849339983E+01 -0.19666316680E+02  0.28639151229E+02  0.00000000000E+00 0. -1.
</event>
<event>
 7    1  0.2945316E-011  0.5052886E+02  0.7816164E-02  0.1300439E+00
        -11   -1    0    0    0    0  0.00000000000E+00  0.00000000000E+00  0.45593999997E+02  0.45594000000E+02  0.51100000000E-03 0. -1.
         11   -1    0    0    0    0 -0.00000000000E+00 -0.00000000000E+00 -0.45593999997E+02  0.45594000000E+02  0.51100000000E-03 0.  1.
    9900012    2    1    2    0    0  0.40156304732E+02  0.38365826637E+00  0.63631548131E+01  0.50528859053E+02  0.29999997578E+02 0.  0.
        -12    1    1    2    0    0 -0.40156304732E+02 -0.38365826637E+00 -0.63631548131E+01  0.40659140947E+02  0.00000000000E+00 0.  1.
         11    1    3    3    0    0  0.27116889985E+02  0.35057073053E+01  0.10564900958E+02  0.29312673687E+02  0.51100000000E-03 0. -1.
        -11    1    3    3    0    0  0.34795495935E+01  0.60707039256E+01  0.79775312092E+00  0.70425224053E+01  0.51100000000E-03 0.  1.
        -12    1    3    3    0    0  0.95598651530E+01 -0.91927529645E+01 -0.49994992658E+01  0.14173662961E+02  0.00000000000E+00 0.  1.
</event>
<event>
 7    1  0.2945316E-011  0.5052885E+02  0.7816164E-02  0.1300439E+00
        -11   -1    0    0    0    0  0.00000000000E+00  0.00000000000E+00  0.45593999997E+02  0.45594000000E+02  0.51100000000E-03 0.  1.
         11   -1    0    0    0    0 -0.00000000000E+00 -0.00000000000E+00 -0.45593999997E+02  0.45594000000E+02  0.51100000000E-03 0. -1.
    9900012    2    1    2    0    0 -0.13750646888E+02 -0.21870876950E+02 -0.31396666648E+02  0.50528853119E+02  0.29999979542E+02 0.  0.
        -12    1    1    2    0    0  0.13750646888E+02  0.21870876950E+02  0.31396666648E+02  0.40659146881E+02  0.00000000000E+00 0.  1.
         11    1    3    3    0    0 -0.92810965419E+01 -0.13542120599E+02 -0.20016819001E+02  0.25888237223E+02  0.51100000000E-03 0. -1.
        -11    1    3    3    0    0 -0.82346724109E+01 -0.13272592304E+02 -0.86294361307E+01  0.17844850921E+02  0.51100000000E-03 0.  1.
        -12    1    3    3    0    0  0.37651220644E+01  0.49438359530E+01 -0.27504115166E+01  0.67957649754E+01  0.00000000000E+00 0.  1.
</event>
<event>
 7    1  0.2945316E-011  0.5052887E+02  0.7816164E-02  0.1300439E+00
        -11   -1    0    0    0    0  0.00000000000E+00  0.00000000000E+00  0.45593999997E+02  0.45594000000E+02  0.51100000000E-03 0.  1.
         11   -1    0    0    0    0 -0.00000000000E+00 -0.00000000000E+00 -0.45593999997E+02  0.45594000000E+02  0.51100000000E-03 0. -1.
    9900012    2    1    2    0    0 -0.21650649080E+02  0.34379228034E+02  0.15756363427E+01  0.50528873648E+02  0.30000041941E+02 0.  0.
        -12    1    1    2    0    0  0.21650649080E+02 -0.34379228034E+02 -0.15756363427E+01  0.40659126352E+02  0.00000000000E+00 0.  1.
         11    1    3    3    0    0 -0.37776787784E+01  0.13967696443E+02 -0.40017243008E+00  0.14475066117E+02  0.51100000000E-03 0. -1.
        -11    1    3    3    0    0 -0.93943347166E+01  0.24631856169E+02  0.29772104821E+01  0.26530089438E+02  0.51100000000E-03 0.  1.
        -12    1    3    3    0    0 -0.84786355851E+01 -0.42203245772E+01 -0.10014017094E+01  0.95237180925E+01  0.00000000000E+00 0.  1.
</event>
<event>
 7    1  0.2945316E-011  0.5052887E+02  0.7816164E-02  0.1300439E+00
        -11   -1    0    0    0    0  0.00000000000E+00  0.00000000000E+00  0.45593999997E+02  0.45594000000E+02  0.51100000000E-03 0.  1.
         11   -1    0    0    0    0 -0.00000000000E+00 -0.00000000000E+00 -0.45593999997E+02  0.45594000000E+02  0.51100000000E-03 0. -1.
    9900012    2    1    2    0    0  0.23467074653E+02 -0.25471433581E+02 -0.21299461286E+02  0.50528873441E+02  0.30000041312E+02 0.  0.
        -12    1    1    2    0    0 -0.23467074653E+02  0.25471433581E+02  0.21299461286E+02  0.40659126559E+02  0.00000000000E+00 0.  1.
         11    1    3    3    0    0  0.80195662071E+01 -0.13460506317E+02 -0.40301126490E+01  0.16178395492E+02  0.51100000000E-03 0. -1.
        -11    1    3    3    0    0 -0.50089919666E+01 -0.52039603774E+01 -0.82920407087E+01  0.10996778779E+02  0.51100000000E-03 0.  1.
        -12    1    3    3    0    0  0.20456500413E+02 -0.68069668866E+01 -0.89773079280E+01  0.23353699171E+02  0.00000000000E+00 0.  1.
</event>
<event>
 7    1  0.2945316E-011  0.5052886E+02  0.7816164E-02  0.1300439E+00
        -11   -1    0    0    0    0  0.00000000000E+00  0.00000000000E+00  0.45593999997E+02  0.45594000000E+02  0.51100000000E-03 0. -1.
         11   -1    0    0    0    0 -0.00000000000E+00 -0.00000000000E+00 -0.45593999997E+02  0.45594000000E+02  0.51100000000E-03 0.  1.
    9900012    2    1    2    0    0  0.18770335710E+02 -0.19858530298E+02  0.30107784162E+02  0.50528863322E+02  0.30000010552E+02 0.  0.
        -12    1    1    2    0    0 -0.18770335710E+02  0.19858530298E+02 -0.30107784162E+02  0.40659136678E+02  0.00000000000E+00 0.  1.
         11    1    3    3    0    0  0.47321625167E+01 -0.22421447680E+01  0.76958717237E+01  0.93084379513E+01  0.51100000000E-03 0. -1.
        -11    1    3    3    0    0  0.11309584402E+02 -0.23082093830E+02  0.23716502716E+02  0.34973736664E+02  0.51100000000E-03 0.  1.
        -12    1    3    3    0    0  0.27285887905E+01  0.54657082993E+01 -0.13045902771E+01  0.62466887062E+01  0.00000000000E+00 0.  1.
</event>
<event>
 7    1  0.2945316E-011  0.5052886E+02  0.7816164E-02  0.1300439E+00
        -11   -1    0    0    0    0  0.00000000000E+00  0.00000000000E+00  0.45593999997E+02  0.45594000000E+02  0.51100000000E-03 0.  1.
         11   -1    0    0    0    0 -0.00000000000E+00 -0.00000000000E+00 -0.45593999997E+02  0.45594000000E+02  0.51100000000E-03 0. -1.
    9900012    2    1    2    0    0  0.88958780218E+01 -0.19027223067E+02 -0.34813703122E+02  0.50528858488E+02  0.29999995861E+02 0.  0.
        -12    1    1    2    0    0 -0.88958780218E+01  0.19027223067E+02  0.34813703122E+02  0.40659141512E+02  0.00000000000E+00 0.  1.
         11    1    3    3    0    0  0.35188497766E+01 -0.76949772529E+01 -0.14524960749E+02  0.16809802607E+02  0.51100000000E-03 0. -1.
        -11    1    3    3    0    0 -0.61705810454E+01 -0.11197187124E+02 -0.17783256700E+02  0.21901992809E+02  0.51100000000E-03 0.  1.
        -12    1    3    3    0    0  0.11547609291E+02 -0.13505869024E+00 -0.25054856735E+01  0.11817063072E+02  0.00000000000E+00 0.  1.
</event>
<event>
 7    1  0.2945316E-011  0.5052892E+02  0.7816164E-02  0.1300439E+00
        -11   -1    0    0    0    0  0.00000000000E+00  0.00000000000E+00  0.45593999997E+02  0.45594000000E+02  0.51100000000E-03 0. -1.
         11   -1    0    0    0    0 -0.00000000000E+00 -0.00000000000E+00 -0.45593999997E+02  0.45594000000E+02  0.51100000000E-03 0.  1.
    9900012    2    1    2    0    0 -0.39015159284E+02 -0.47031659562E+01  0.10433530627E+02  0.50528917554E+02  0.30000175397E+02 0.  0.
        -12    1    1    2    0    0  0.39015159284E+02  0.47031659562E+01 -0.10433530627E+02  0.40659082446E+02  0.00000000000E+00 0.  1.
         11    1    3    3    0    0 -0.22222067096E+02 -0.22615877865E+01  0.16880865318E+02  0.27998190289E+02  0.51100000000E-03 0.  1.
        -11    1    3    3    0    0 -0.10813031021E+02  0.36670643543E+01  0.62631582570E+00  0.11435089532E+02  0.51100000000E-03 0. -1.
        -12    1    3    3    0    0 -0.59800611682E+01 -0.61086425240E+01 -0.70736505167E+01  0.11095637733E+02  0.00000000000E+00 0.  1.
</event>
<event>
 7    1  0.2945316E-011  0.5052885E+02  0.7816164E-02  0.1300439E+00
        -11   -1    0    0    0    0  0.00000000000E+00  0.00000000000E+00  0.45593999997E+02  0.45594000000E+02  0.51100000000E-03 0.  1.
         11   -1    0    0    0    0 -0.00000000000E+00 -0.00000000000E+00 -0.45593999997E+02  0.45594000000E+02  0.51100000000E-03 0. -1.
    9900012    2    1    2    0    0  0.19768595926E+02  0.35005033313E+01 -0.35356974860E+02  0.50528848758E+02  0.29999966286E+02 0.  0.
        -12    1    1    2    0    0 -0.19768595926E+02 -0.35005033313E+01  0.35356974860E+02  0.40659151242E+02  0.00000000000E+00 0.  1.
         11    1    3    3    0    0  0.78513989752E+01  0.12999023421E+02 -0.18147803202E+02  0.23663512780E+02  0.51100000000E-03 0. -1.
        -11    1    3    3    0    0  0.83983307562E+01 -0.12142376524E+01 -0.12973475474E+01  0.85842555581E+01  0.51100000000E-03 0.  1.
         12    1    3    3    0    0  0.35188661942E+01 -0.82842824375E+01 -0.15911824111E+02  0.18281080420E+02  0.00000000000E+00 0. -1.
</event>
<event>
 7    1  0.2945316E-011  0.5052886E+02  0.7816164E-02  0.1300439E+00
        -11   -1    0    0    0    0  0.00000000000E+00  0.00000000000E+00  0.45593999997E+02  0.45594000000E+02  0.51100000000E-03 0. -1.
         11   -1    0    0    0    0 -0.00000000000E+00 -0.00000000000E+00 -0.45593999997E+02  0.45594000000E+02  0.51100000000E-03 0.  1.
    9900012    2    1    2    0    0 -0.19748309511E+02 -0.25546786129E+02  0.24708933573E+02  0.50528863162E+02  0.30000010068E+02 0.  0.
        -12    1    1    2    0    0  0.19748309511E+02  0.25546786129E+02 -0.24708933573E+02  0.40659136838E+02  0.00000000000E+00 0.  1.
         11    1    3    3    0    0 -0.10256456906E+02 -0.36716377158E+00  0.16004530557E+02  0.19012488425E+02  0.51100000000E-03 0. -1.
        -11    1    3    3    0    0 -0.12418175276E+02 -0.16028214663E+02  0.82730129031E+01  0.21898801000E+02  0.51100000000E-03 0.  1.
        -12    1    3    3    0    0  0.29263226708E+01 -0.91514076946E+01  0.43139011232E+00  0.96175737374E+01  0.00000000000E+00 0.  1.
</event>
<event>
 7    1  0.2945316E-011  0.5052887E+02  0.7816164E-02  0.1300439E+00
        -11   -1    0    0    0    0  0.00000000000E+00  0.00000000000E+00  0.45593999997E+02  0.45594000000E+02  0.51100000000E-03 0.  1.
         11   -1    0    0    0    0 -0.00000000000E+00 -0.00000000000E+00 -0.45593999997E+02  0.45594000000E+02  0.51100000000E-03 0. -1.
    9900012    2    1    2    0    0  0.35294160874E+02 -0.18150651808E+02 -0.88340922251E+01  0.50528866484E+02  0.30000020165E+02 0.  0.
        -12    1    1    2    0    0 -0.35294160874E+02  0.18150651808E+02  0.88340922251E+01  0.40659133516E+02  0.00000000000E+00 0.  1.
         11    1    3    3    0    0  0.23762858675E+01 -0.11502103871E+02 -0.10266709672E+01  0.11789791411E+02  0.51100000000E-03 0. -1.
        -11    1    3    3    0    0  0.34915710823E+02 -0.68675028834E+01 -0.85483603422E+01  0.36597048008E+02  0.51100000000E-03 0.  1.
         12    1    3    3    0    0 -0.19978358167E+01  0.21895494648E+00  0.74093908435E+00  0.21420270647E+01  0.00000000000E+00 0. -1.
</event>
<event>
 7    1  0.2945316E-011  0.5052887E+02  0.7816164E-02  0.1300439E+00
        -11   -1    0    0    0    0  0.00000000000E+00  0.00000000000E+00  0.45593999997E+02  0.45594000000E+02  0.51100000000E-03 0. -1.
         11   -1    0    0    0    0 -0.00000000000E+00 -0.00000000000E+00 -0.45593999997E+02  0.45594000000E+02  0.51100000000E-03 0.  1.
    9900012    2    1    2    0    0 -0.20526170598E+01  0.57198485370E+01  0.40202423787E+02  0.50528870860E+02  0.30000033465E+02 0.  0.
        -12    1    1    2    0    0  0.20526170598E+01 -0.57198485370E+01 -0.40202423787E+02  0.40659129140E+02  0.00000000000E+00 0.  1.
         11    1    3    3    0    0 -0.10626188809E+01 -0.59852609653E+00  0.25879990633E+02  0.25908711041E+02  0.51100000000E-03 0. -1.
        -11    1    3    3    0    0 -0.72542899292E+01 -0.18687928849E+01  0.11849623886E+02  0.14018940607E+02  0.51100000000E-03 0.  1.
         12    1    3    3    0    0  0.62642917503E+01  0.81871675184E+01  0.24728092678E+01  0.10601219212E+02  0.00000000000E+00 0. -1.
</event>
<event>
 7    1  0.2945316E-011  0.5052894E+02  0.7816164E-02  0.1300439E+00
        -11   -1    0    0    0    0  0.00000000000E+00  0.00000000000E+00  0.45593999997E+02  0.45594000000E+02  0.51100000000E-03 0.  1.
         11   -1    0    0    0    0 -0.00000000000E+00 -0.00000000000E+00 -0.45593999997E+02  0.45594000000E+02  0.51100000000E-03 0. -1.
    9900012    2    1    2    0    0 -0.22745531919E+02  0.57449290939E+01 -0.33208371458E+02  0.50528937450E+02  0.30000235871E+02 0.  0.
        -12    1    1    2    0    0  0.22745531919E+02 -0.57449290939E+01  0.33208371458E+02  0.40659062550E+02  0.00000000000E+00 0.  1.
         11    1    3    3    0    0 -0.35164350111E+01  0.96989544910E+00  0.89806933104E+00  0.37566662287E+01  0.51100000000E-03 0. -1.
        -11    1    3    3    0    0 -0.15378145905E+02 -0.68866609880E+01 -0.96801925945E+01  0.19432436799E+02  0.51100000000E-03 0.  1.
        -12    1    3    3    0    0 -0.38509510034E+01  0.11661694633E+02 -0.24426248194E+02  0.27339834422E+02  0.00000000000E+00 0.  1.
</event>
<event>
 7    1  0.2945316E-011  0.5052886E+02  0.7816164E-02  0.1300439E+00
        -11   -1    0    0    0    0  0.00000000000E+00  0.00000000000E+00  0.45593999997E+02  0.45594000000E+02  0.51100000000E-03 0. -1.
         11   -1    0    0    0    0 -0.00000000000E+00 -0.00000000000E+00 -0.45593999997E+02  0.45594000000E+02  0.51100000000E-03 0.  1.
    9900012    2    1    2    0    0  0.27699841296E+02  0.18476108808E+02  0.23334905887E+02  0.50528860347E+02  0.30000001512E+02 0.  0.
        -12    1    1    2    0    0 -0.27699841296E+02 -0.18476108808E+02 -0.23334905887E+02  0.40659139653E+02  0.00000000000E+00 0.  1.
         11    1    3    3    0    0  0.26017734659E+02  0.17081629358E+02  0.25149319022E+02  0.40014907545E+02  0.51100000000E-03 0. -1.
        -11    1    3    3    0    0  0.87731781281E+00  0.45736966975E+01  0.23474470071E+01  0.52152560568E+01  0.51100000000E-03 0.  1.
        -12    1    3    3    0    0  0.80478882383E+00 -0.31792172473E+01 -0.41618601420E+01  0.52986967452E+01  0.00000000000E+00 0.  1.
</event>
<event>
 7    1  0.2945316E-011  0.5052886E+02  0.7816164E-02  0.1300439E+00
        -11   -1    0    0    0    0  0.00000000000E+00  0.00000000000E+00  0.45593999997E+02  0.45594000000E+02  0.51100000000E-03 0.  1.
         11   -1    0    0    0    0 -0.00000000000E+00 -0.00000000000E+00 -0.45593999997E+02  0.45594000000E+02  0.51100000000E-03 0. -1.
    9900012    2    1    2    0    0 -0.11480995812E+02 -0.42378657363E+01 -0.38773608768E+02  0.50528861941E+02  0.30000006355E+02 0.  0.
        -12    1    1    2    0    0  0.11480995812E+02  0.42378657363E+01  0.38773608768E+02  0.40659138059E+02  0.00000000000E+00 0.  1.
         11    1    3    3    0    0 -0.32997714367E+01 -0.63978602711E+01 -0.12310348423E+02  0.14260637649E+02  0.51100000000E-03 0. -1.
        -11    1    3    3    0    0  0.25924349001E+01 -0.89533656085E+01 -0.97634963852E+01  0.13498493855E+02  0.51100000000E-03 0.  1.
         12    1    3    3    0    0 -0.10773659276E+02  0.11113360143E+02 -0.16699763960E+02  0.22769730437E+02  0.00000000000E+00 0. -1.
</event>
<event>
 7    1  0.2945316E-011  0.5052886E+02  0.7816164E-02  0.1300439E+00
        -11   -1    0    0    0    0  0.00000000000E+00  0.00000000000E+00  0.45593999997E+02  0.45594000000E+02  0.51100000000E-03 0. -1.
         11   -1    0    0    0    0 -0.00000000000E+00 -0.00000000000E+00 -0.45593999997E+02  0.45594000000E+02  0.51100000000E-03 0.  1.
    9900012    2    1    2    0    0 -0.23635364146E+02  0.21482894849E+02  0.25159891420E+02  0.50528863934E+02  0.30000012412E+02 0.  0.
        -12    1    1    2    0    0  0.23635364146E+02 -0.21482894849E+02 -0.25159891420E+02  0.40659136066E+02  0.00000000000E+00 0.  1.
         11    1    3    3    0    0 -0.12487550405E+01 -0.76018629814E+00 -0.11569636670E+01  0.18643598222E+01  0.51100000000E-03 0. -1.
        -11    1    3    3    0    0  0.39956348664E+01  0.96212023111E+01  0.19523755227E+01  0.10599264236E+02  0.51100000000E-03 0.  1.
         12    1    3    3    0    0 -0.26382243972E+02  0.12621878836E+02  0.24364479564E+02  0.38065239876E+02  0.00000000000E+00 0. -1.
</event>
<event>
 7    1  0.2945316E-011  0.5052886E+02  0.7816164E-02  0.1300439E+00
        -11   -1    0    0    0    0  0.00000000000E+00  0.00000000000E+00  0.45593999997E+02  0.45594000000E+02  0.51100000000E-03 0.  1.
         11   -1    0    0    0    0 -0.00000000000E+00 -0.00000000000E+00 -0.45593999997E+02  0.45594000000E+02  0.51100000000E-03 0. -1.
    9900012    2    1    2    0    0  0.26014569301E+01 -0.15284399223E+02 -0.37587036696E+02  0.50528858772E+02  0.29999996724E+02 0.  0.
        -12    1    1    2    0    0 -0.26014569301E+01  0.15284399223E+02  0.37587036696E+02  0.40659141228E+02  0.00000000000E+00 0.  1.
         11    1    3    3    0    0  0.59596757255E+01 -0.12815366113E+02 -0.12883564418E+02  0.19124266672E+02  0.51100000000E-03 0. -1.
        -11    1    3    3    0    0 -0.45704894509E+00 -0.75457907413E+01 -0.18060522038E+01  0.77723662081E+01  0.51100000000E-03 0.  1.
        -12    1    3    3    0    0 -0.29011698503E+01  0.50767576316E+01 -0.22897420074E+02  0.23632225892E+02  0.00000000000E+00 0.  1.
</event>
<event>
 7    1  0.2945316E-011  0.5052898E+02  0.7816164E-02  0.1300438E+00
        -11   -1    0    0    0    0  0.00000000000E+00  0.00000000000E+00  0.45593999997E+02  0.45594000000E+02  0.51100000000E-03 0. -1.
         11   -1    0    0    0    0 -0.00000000000E+00 -0.00000000000E+00 -0.45593999997E+02  0.45594000000E+02  0.51100000000E-03 0.  1.
    9900012    2    1    2    0    0  0.21828692989E+02 -0.31131667651E+02  0.14404280933E+02  0.50528980367E+02  0.30000366320E+02 0.  0.
        -12    1    1    2    0    0 -0.21828692989E+02  0.31131667651E+02 -0.14404280933E+02  0.40659019633E+02  0.00000000000E+00 0.  1.
         11    1    3    3    0    0  0.53057618088E+01  0.26373392222E-01  0.69385339306E+01  0.87347041905E+01  0.51100000000E-03 0. -1.
        -11    1    3    3    0    0  0.96566304705E+01 -0.63477339177E+01  0.10823547166E+02  0.15833300712E+02  0.51100000000E-03 0.  1.
        -12    1    3    3    0    0  0.68663007100E+01 -0.24810307125E+02 -0.33578001634E+01  0.25960975464E+02  0.00000000000E+00 0.  1.
</event>
<event>
 7    1  0.2945316E-011  0.5052890E+02  0.7816164E-02  0.1300439E+00
        -11   -1    0    0    0    0  0.00000000000E+00  0.00000000000E+00  0.45593999997E+02  0.45594000000E+02  0.51100000000E-03 0.  1.
         11   -1    0    0    0    0 -0.00000000000E+00 -0.00000000000E+00 -0.45593999997E+02  0.45594000000E+02  0.51100000000E-03 0. -1.
    9900012    2    1    2    0    0  0.37011588875E+02  0.14377436441E+02 -0.87518180580E+01  0.50528896357E+02  0.30000110968E+02 0.  0.
        -12    1    1    2    0    0 -0.37011588875E+02 -0.14377436441E+02  0.87518180580E+01  0.40659103643E+02  0.00000000000E+00 0.  1.
         11    1    3    3    0    0  0.51330820373E+01 -0.22856782963E+01 -0.13338135055E+01  0.57751117049E+01  0.51100000000E-03 0.  1.
        -11    1    3    3    0    0  0.11847610135E+02  0.14206428485E+02  0.71837700031E+01  0.19844269398E+02  0.51100000000E-03 0. -1.
         12    1    3    3    0    0  0.20030896703E+02  0.24566862526E+01 -0.14601774556E+02  0.24909515255E+02  0.00000000000E+00 0. -1.
</event>
<event>
 7    1  0.2945316E-011  0.5052888E+02  0.7816164E-02  0.1300439E+00
        -11   -1    0    0    0    0  0.00000000000E+00  0.00000000000E+00  0.45593999997E+02  0.45594000000E+02  0.51100000000E-03 0.  1.
         11   -1    0    0    0    0 -0.00000000000E+00 -0.00000000000E+00 -0.45593999997E+02  0.45594000000E+02  0.51100000000E-03 0. -1.
    9900012    2    1    2    0    0 -0.19913616097E+02  0.17437439380E+02 -0.30863365186E+02  0.50528884063E+02  0.30000073598E+02 0.  0.
        -12    1    1    2    0    0  0.19913616097E+02 -0.17437439380E+02  0.30863365186E+02  0.40659115937E+02  0.00000000000E+00 0.  1.
         11    1    3    3    0    0 -0.11698224369E+02  0.11309309354E+01  0.26695299263E+00  0.11755795266E+02  0.51100000000E-03 0. -1.
        -11    1    3    3    0    0 -0.38283624083E+01  0.94121489351E+01 -0.48643648703E+01  0.11265298583E+02  0.51100000000E-03 0.  1.
         12    1    3    3    0    0 -0.43870293193E+01  0.68943595098E+01 -0.26265953308E+02  0.27507790214E+02  0.00000000000E+00 0. -1.
</event>
<event>
 7    1  0.2945316E-011  0.5052884E+02  0.7816164E-02  0.1300439E+00
        -11   -1    0    0    0    0  0.00000000000E+00  0.00000000000E+00  0.45593999997E+02  0.45594000000E+02  0.51100000000E-03 0. -1.
         11   -1    0    0    0    0 -0.00000000000E+00 -0.00000000000E+00 -0.45593999997E+02  0.45594000000E+02  0.51100000000E-03 0.  1.
    9900012    2    1    2    0    0 -0.30218092910E+02 -0.26186183782E+02 -0.73700916737E+01  0.50528836071E+02  0.29999927720E+02 0.  0.
        -12    1    1    2    0    0  0.30218092910E+02  0.26186183782E+02  0.73700916737E+01  0.40659163929E+02  0.00000000000E+00 0.  1.
         11    1    3    3    0    0 -0.66537834139E+01 -0.69774492824E+01 -0.26559852746E+01  0.10000594495E+02  0.51100000000E-03 0. -1.
        -11    1    3    3    0    0 -0.99275919794E+01 -0.17868599300E+02  0.78894476987E+01  0.21910894749E+02  0.51100000000E-03 0.  1.
        -12    1    3    3    0    0 -0.13636717516E+02 -0.13401351993E+01 -0.12603554098E+02  0.18617346827E+02  0.00000000000E+00 0.  1.
</event>
<event>
 7    1  0.2945316E-011  0.5052887E+02  0.7816164E-02  0.1300439E+00
        -11   -1    0    0    0    0  0.00000000000E+00  0.00000000000E+00  0.45593999997E+02  0.45594000000E+02  0.51100000000E-03 0.  1.
         11   -1    0    0    0    0 -0.00000000000E+00 -0.00000000000E+00 -0.45593999997E+02  0.45594000000E+02  0.51100000000E-03 0. -1.
    9900012    2    1    2    0    0 -0.27973744531E+02  0.91127623999E+01 -0.28064063923E+02  0.50528874265E+02  0.30000043817E+02 0.  0.
        -12    1    1    2    0    0  0.27973744531E+02 -0.91127623999E+01  0.28064063923E+02  0.40659125735E+02  0.00000000000E+00 0.  1.
         11    1    3    3    0    0  0.27748019769E+01 -0.66532006700E+00 -0.17519264629E+01  0.33483463672E+01  0.51100000000E-03 0. -1.
        -11    1    3    3    0    0 -0.44335761529E+01 -0.22297405252E+01  0.31617770837E+01  0.58843160096E+01  0.51100000000E-03 0.  1.
         12    1    3    3    0    0 -0.26314970355E+02  0.12007822992E+02 -0.29473914544E+02  0.41296211888E+02  0.00000000000E+00 0. -1.
</event>
<event>
 7    1  0.2945316E-011  0.5052886E+02  0.7816164E-02  0.1300439E+00
        -11   -1    0    0    0    0  0.00000000000E+00  0.00000000000E+00  0.45593999997E+02  0.45594000000E+02  0.51100000000E-03 0. -1.
         11   -1    0    0    0    0 -0.00000000000E+00 -0.00000000000E+00 -0.45593999997E+02  0.45594000000E+02  0.51100000000E-03 0.  1.
    9900012    2    1    2    0    0 -0.17156369661E+02  0.36854442659E+02 -0.75799506031E+00  0.50528861787E+02  0.30000005889E+02 0.  0.
        -12    1    1    2    0    0  0.17156369661E+02 -0.36854442659E+02  0.75799506031E+00  0.40659138213E+02  0.00000000000E+00 0.  1.
         11    1    3    3    0    0 -0.59396745413E+01  0.19497814405E+02 -0.64726767004E+01  0.21385510145E+02  0.51100000000E-03 0. -1.
        -11    1    3    3    0    0  0.25028309153E+01  0.53688171075E+01 -0.52195344648E+01  0.78950554156E+01  0.51100000000E-03 0.  1.
        -12    1    3    3    0    0 -0.13719526035E+02  0.11987811147E+02  0.10934216105E+02  0.21248296227E+02  0.00000000000E+00 0.  1.
</event>
<event>
 7    1  0.2945316E-011  0.5052887E+02  0.7816164E-02  0.1300439E+00
        -11   -1    0    0    0    0  0.00000000000E+00  0.00000000000E+00  0.45593999997E+02  0.45594000000E+02  0.51100000000E-03 0.  1.
         11   -1    0    0    0    0 -0.00000000000E+00 -0.00000000000E+00 -0.45593999997E+02  0.45594000000E+02  0.51100000000E-03 0. -1.
    9900012    2    1    2    0    0 -0.15500027297E+02  0.34884474104E+02 -0.13999565633E+02  0.50528865508E+02  0.30000017199E+02 0.  0.
        -12    1    1    2    0    0  0.15500027297E+02 -0.34884474104E+02  0.13999565633E+02  0.40659134492E+02  0.00000000000E+00 0.  1.
         11    1    3    3    0    0 -0.27178519091E+01  0.13549455899E+02 -0.22531422706E+01  0.14001825757E+02  0.51100000000E-03 0. -1.
        -11    1    3    3    0    0 -0.13753786613E+02  0.77854144688E+01  0.34160007359E+01  0.16169365663E+02  0.51100000000E-03 0.  1.
        -12    1    3    3    0    0  0.97161122539E+00  0.13549603736E+02 -0.15162424098E+02  0.20357674089E+02  0.00000000000E+00 0.  1.
</event>
<event>
 7    1  0.2945316E-011  0.5052887E+02  0.7816164E-02  0.1300439E+00
        -11   -1    0    0    0    0  0.00000000000E+00  0.00000000000E+00  0.45593999997E+02  0.45594000000E+02  0.51100000000E-03 0.  1.
         11   -1    0    0    0    0 -0.00000000000E+00 -0.00000000000E+00 -0.45593999997E+02  0.45594000000E+02  0.51100000000E-03 0. -1.
    9900012    2    1    2    0    0 -0.78346492086E+01 -0.39747517766E+02  0.34521994254E+01  0.50528873378E+02  0.30000041120E+02 0.  0.
        -12    1    1    2    0    0  0.78346492086E+01  0.39747517766E+02 -0.34521994254E+01  0.40659126622E+02  0.00000000000E+00 0.  1.
         11    1    3    3    0    0 -0.24669864246E+01  0.54587564752E+00 -0.16087034067E+01  0.29953178719E+01  0.51100000000E-03 0. -1.
        -11    1    3    3    0    0 -0.49424620448E+01 -0.28785249179E+01  0.81857578555E+01  0.99860136540E+01  0.51100000000E-03 0.  1.
        -12    1    3    3    0    0 -0.42520073920E+00 -0.37414868496E+02 -0.31248550235E+01  0.37547541852E+02  0.00000000000E+00 0.  1.
</event>
<event>
 7    1  0.2945316E-011  0.5052888E+02  0.7816164E-02  0.1300439E+00
        -11   -1    0    0    0    0  0.00000000000E+00  0.00000000000E+00  0.45593999997E+02  0.45594000000E+02  0.51100000000E-03 0. -1.
         11   -1    0    0    0    0 -0.00000000000E+00 -0.00000000000E+00 -0.45593999997E+02  0.45594000000E+02  0.51100000000E-03 0.  1.
    9900012    2    1    2    0    0  0.11248251679E+02  0.25983706508E+02  0.29180268250E+02  0.50528877716E+02  0.30000054307E+02 0.  0.
        -12    1    1    2    0    0 -0.11248251679E+02 -0.25983706508E+02 -0.29180268250E+02  0.40659122284E+02  0.00000000000E+00 0.  1.
         11    1    3    3    0    0 -0.53308995178E+01  0.10455277897E+02  0.12837191777E+02  0.17393240600E+02  0.51100000000E-03 0. -1.
        -11    1    3    3    0    0  0.13798231215E+01  0.83751114691E+01  0.13720333919E+02  0.16133628453E+02  0.51100000000E-03 0.  1.
        -12    1    3    3    0    0  0.15199328076E+02  0.71533171421E+01  0.26227425537E+01  0.17002008663E+02  0.00000000000E+00 0.  1.
</event>
<event>
 7    1  0.2945316E-011  0.5052885E+02  0.7816164E-02  0.1300439E+00
        -11   -1    0    0    0    0  0.00000000000E+00  0.00000000000E+00  0.45593999997E+02  0.45594000000E+02  0.51100000000E-03 0.  1.
         11   -1    0    0    0    0 -0.00000000000E+00 -0.00000000000E+00 -0.45593999997E+02  0.45594000000E+02  0.51100000000E-03 0. -1.
    9900012    2    1    2    0    0  0.12192470287E+02 -0.14019117237E+02 -0.36165927289E+02  0.50528852487E+02  0.29999977620E+02 0.  0.
        -12    1    1    2    0    0 -0.12192470287E+02  0.14019117237E+02  0.36165927289E+02  0.40659147513E+02  0.00000000000E+00 0.  1.
         11    1    3    3    0    0  0.10983899073E+02  0.27408487413E+01 -0.29940657309E+01  0.11709941099E+02  0.51100000000E-03 0. -1.
        -11    1    3    3    0    0  0.14197658448E+01  0.54141663434E+00 -0.13528108692E+00  0.15255059028E+01  0.51100000000E-03 0.  1.
         12    1    3    3    0    0 -0.21119463110E+00 -0.17301382612E+02 -0.33036580471E+02  0.37293405486E+02  0.00000000000E+00 0. -1.
</event>
<event>
 7    1  0.2945316E-011  0.5052886E+02  0.7816164E-02  0.1300439E+00
        -11   -1    0    0    0    0  0.00000000000E+00  0.00000000000E+00  0.45593999997E+02  0.45594000000E+02  0.51100000000E-03 0. -1.
         11   -1    0    0    0    0 -0.00000000000E+00 -0.00000000000E+00 -0.45593999997E+02  0.45594000000E+02  0.51100000000E-03 0.  1.
    9900012    2    1    2    0    0 -0.23153724970E+01 -0.28759452503E+02  0.28647842005E+02  0.50528856999E+02  0.29999991333E+02 0.  0.
        -12    1    1    2    0    0  0.23153724970E+01  0.28759452503E+02 -0.28647842005E+02  0.40659143001E+02  0.00000000000E+00 0.  1.
         11    1    3    3    0    0 -0.13769338660E+01 -0.18670861475E+02  0.96902586561E+01  0.21080752553E+02  0.51100000000E-03 0. -1.
        -11    1    3    3    0    0 -0.34533295212E+01 -0.14723672412E+02  0.75988960166E+01  0.16924988479E+02  0.51100000000E-03 0.  1.
        -12    1    3    3    0    0  0.25148908902E+01  0.46350813842E+01  0.11358687332E+02  0.12523115968E+02  0.00000000000E+00 0.  1.
</event>
<event>
 7    1  0.2945316E-011  0.5052886E+02  0.7816164E-02  0.1300439E+00
        -11   -1    0    0    0    0  0.00000000000E+00  0.00000000000E+00  0.45593999997E+02  0.45594000000E+02  0.51100000000E-03 0.  1.
         11   -1    0    0    0    0 -0.00000000000E+00 -0.00000000000E+00 -0.45593999997E+02  0.45594000000E+02  0.51100000000E-03 0. -1.
    9900012    2    1    2    0    0 -0.84832960160E+01 -0.29135905464E+02 -0.27061006829E+02  0.50528863400E+02  0.30000010790E+02 0.  0.
        -12    1    1    2    0    0  0.84832960160E+01  0.29135905464E+02  0.27061006829E+02  0.40659136600E+02  0.00000000000E+00 0.  1.
         11    1    3    3    0    0  0.15204972889E+01 -0.11053158140E+02 -0.18091788066E+02  0.21255517226E+02  0.51100000000E-03 0. -1.
        -11    1    3    3    0    0  0.51008384049E+01 -0.49341891594E+01 -0.54329815775E+01  0.89376766655E+01  0.51100000000E-03 0.  1.
         12    1    3    3    0    0 -0.15104631710E+02 -0.13148558165E+02 -0.35362371848E+01  0.20335669508E+02  0.00000000000E+00 0. -1.
</event>
<event>
 7    1  0.2945316E-011  0.5052886E+02  0.7816164E-02  0.1300439E+00
        -11   -1    0    0    0    0  0.00000000000E+00  0.00000000000E+00  0.45593999997E+02  0.45594000000E+02  0.51100000000E-03 0. -1.
         11   -1    0    0    0    0 -0.00000000000E+00 -0.00000000000E+00 -0.45593999997E+02  0.45594000000E+02  0.51100000000E-03 0.  1.
    9900012    2    1    2    0    0  0.53887504516E+01  0.35391452459E+02  0.19276207383E+02  0.50528859457E+02  0.29999998807E+02 0.  0.
        -12    1    1    2    0    0 -0.53887504516E+01 -0.35391452459E+02 -0.19276207383E+02  0.40659140543E+02  0.00000000000E+00 0.  1.
         11    1    3    3    0    0  0.67929354878E+01  0.18655864692E+02  0.15142140371E+02  0.24969374747E+02  0.51100000000E-03 0. -1.
        -11    1    3    3    0    0  0.47391743560E+01  0.14889890757E+02  0.85114189443E+01  0.17793618886E+02  0.51100000000E-03 0.  1.
        -12    1    3    3    0    0 -0.61433593922E+01  0.18456970097E+01 -0.43773519325E+01  0.77658658252E+01  0.00000000000E+00 0.  1.
</event>
<event>
 7    1  0.2945316E-011  0.5052886E+02  0.7816164E-02  0.1300439E+00
        -11   -1    0    0    0    0  0.00000000000E+00  0.00000000000E+00  0.45593999997E+02  0.45594000000E+02  0.51100000000E-03 0. -1.
         11   -1    0    0    0    0 -0.00000000000E+00 -0.00000000000E+00 -0.45593999997E+02  0.45594000000E+02  0.51100000000E-03 0.  1.
    9900012    2    1    2    0    0  0.10324970425E+02  0.37248668441E+02 -0.12613371238E+02  0.50528862664E+02  0.30000008553E+02 0.  0.
        -12    1    1    2    0    0 -0.10324970425E+02 -0.37248668441E+02  0.12613371238E+02  0.40659137336E+02  0.00000000000E+00 0.  1.
         11    1    3    3    0    0  0.44990103753E+01  0.12116339433E+02 -0.57933372888E+00  0.12937635156E+02  0.51100000000E-03 0. -1.
        -11    1    3    3    0    0  0.98788983579E+01  0.11168972465E+02  0.44984056164E+01  0.15574794767E+02  0.51100000000E-03 0.  1.
        -12    1    3    3    0    0 -0.40529383082E+01  0.13963356543E+02 -0.16532443126E+02  0.22016432740E+02  0.00000000000E+00 0.  1.
</event>
<event>
 7    1  0.2945316E-011  0.5052886E+02  0.7816164E-02  0.1300439E+00
        -11   -1    0    0    0    0  0.00000000000E+00  0.00000000000E+00  0.45593999997E+02  0.45594000000E+02  0.51100000000E-03 0.  1.
         11   -1    0    0    0    0 -0.00000000000E+00 -0.00000000000E+00 -0.45593999997E+02  0.45594000000E+02  0.51100000000E-03 0. -1.
    9900012    2    1    2    0    0 -0.71344416935E+01 -0.35995440130E+02 -0.17509813907E+02  0.50528861403E+02  0.30000004719E+02 0.  0.
        -12    1    1    2    0    0  0.71344416935E+01  0.35995440130E+02  0.17509813907E+02  0.40659138597E+02  0.00000000000E+00 0.  1.
         11    1    3    3    0    0 -0.14912240216E+01 -0.11944075589E+02  0.38758349453E+00  0.12043044132E+02  0.51100000000E-03 0. -1.
        -11    1    3    3    0    0  0.16004851491E+01 -0.19365668257E+02 -0.93333199713E+00  0.19454093878E+02  0.51100000000E-03 0.  1.
        -12    1    3    3    0    0 -0.72437028210E+01 -0.46856962848E+01 -0.16964065404E+02  0.19031723392E+02  0.00000000000E+00 0.  1.
</event>
<event>
 7    1  0.2945316E-011  0.5052887E+02  0.7816164E-02  0.1300439E+00
        -11   -1    0    0    0    0  0.00000000000E+00  0.00000000000E+00  0.45593999997E+02  0.45594000000E+02  0.51100000000E-03 0. -1.
         11   -1    0    0    0    0 -0.00000000000E+00 -0.00000000000E+00 -0.45593999997E+02  0.45594000000E+02  0.51100000000E-03 0.  1.
    9900012    2    1    2    0    0  0.20248976176E+02  0.33062323414E+02  0.12248547403E+02  0.50528865981E+02  0.30000018635E+02 0.  0.
        -12    1    1    2    0    0 -0.20248976176E+02 -0.33062323414E+02 -0.12248547403E+02  0.40659134019E+02  0.00000000000E+00 0.  1.
         11    1    3    3    0    0  0.16272085394E+02  0.21884955086E+02  0.15282733037E+02  0.31261701034E+02  0.51100000000E-03 0. -1.
        -11    1    3    3    0    0  0.95872638511E+01  0.78315762243E+01 -0.29872951856E+01  0.12734722105E+02  0.51100000000E-03 0.  1.
         12    1    3    3    0    0 -0.56103730688E+01  0.33457921038E+01 -0.46890448320E-01  0.65324428422E+01  0.00000000000E+00 0. -1.
</event>
<event>
 7    1  0.2945316E-011  0.5052887E+02  0.7816164E-02  0.1300439E+00
        -11   -1    0    0    0    0  0.00000000000E+00  0.00000000000E+00  0.45593999997E+02  0.45594000000E+02  0.51100000000E-03 0.  1.
         11   -1    0    0    0    0 -0.00000000000E+00 -0.00000000000E+00 -0.45593999997E+02  0.45594000000E+02  0.51100000000E-03 0. -1.
    9900012    2    1    2    0    0  0.30074398725E-01 -0.52509455690E+00 -0.40655730598E+02  0.50528867456E+02  0.30000023120E+02 0.  0.
        -12    1    1    2    0    0 -0.30074398725E-01  0.52509455690E+00  0.40655730598E+02  0.40659132544E+02  0.00000000000E+00 0.  1.
         11    1    3    3    0    0 -0.39553779280E+01 -0.61583067480E+01 -0.23929520414E+02  0.25023822731E+02  0.51100000000E-03 0. -1.
        -11    1    3    3    0    0  0.25742558804E+01 -0.57018386323E+01 -0.11170514600E+02  0.12803052519E+02  0.51100000000E-03 0.  1.
        -12    1    3    3    0    0  0.14111964463E+01  0.11335050823E+02 -0.55556955842E+01  0.12701992206E+02  0.00000000000E+00 0.  1.
</event>
<event>
 7    1  0.2945316E-011  0.5052884E+02  0.7816164E-02  0.1300439E+00
        -11   -1    0    0    0    0  0.00000000000E+00  0.00000000000E+00  0.45593999997E+02  0.45594000000E+02  0.51100000000E-03 0. -1.
         11   -1    0    0    0    0 -0.00000000000E+00 -0.00000000000E+00 -0.45593999997E+02  0.45594000000E+02  0.51100000000E-03 0.  1.
    9900012    2    1    2    0    0  0.19169231562E+02  0.35278073821E+02  0.64160021798E+01  0.50528843403E+02  0.29999950008E+02 0.  0.
        -12    1    1    2    0    0 -0.19169231562E+02 -0.35278073821E+02 -0.64160021798E+01  0.40659156597E+02  0.00000000000E+00 0.  1.
         11    1    3    3    0    0  0.17738805825E+02  0.30154764088E+02 -0.74106118241E+00  0.34993202215E+02  0.51100000000E-03 0. -1.
        -11    1    3    3    0    0  0.37641582571E+01  0.82120208635E+01  0.22948664897E+01  0.93205464708E+01  0.51100000000E-03 0.  1.
        -12    1    3    3    0    0 -0.23337325198E+01 -0.30887111307E+01  0.48621968725E+01  0.62150947177E+01  0.00000000000E+00 0.  1.
</event>
<event>
 7    1  0.2945316E-011  0.5052886E+02  0.7816164E-02  0.1300439E+00
        -11   -1    0    0    0    0  0.00000000000E+00  0.00000000000E+00  0.45593999997E+02  0.45594000000E+02  0.51100000000E-03 0. -1.
         11   -1    0    0    0    0 -0.00000000000E+00 -0.00000000000E+00 -0.45593999997E+02  0.45594000000E+02  0.51100000000E-03 0.  1.
    9900012    2    1    2    0    0 -0.29207850867E+02  0.16247424124E+02  0.23153577933E+02  0.50528861863E+02  0.30000006120E+02 0.  0.
        -12    1    1    2    0    0  0.29207850867E+02 -0.16247424124E+02 -0.23153577933E+02  0.40659138137E+02  0.00000000000E+00 0.  1.
         11    1    3    3    0    0 -0.19961750256E+02  0.11958348568E+02  0.14892527994E+02  0.27627177997E+02  0.51100000000E-03 0. -1.
        -11    1    3    3    0    0  0.43552136416E+01  0.62447107740E+01  0.27035936299E+01  0.80792151408E+01  0.51100000000E-03 0.  1.
        -12    1    3    3    0    0 -0.13601314253E+02 -0.19556352179E+01  0.55574563084E+01  0.14822468726E+02  0.00000000000E+00 0.  1.
</event>
<event>
 7    1  0.2945316E-011  0.5052886E+02  0.7816164E-02  0.1300439E+00
        -11   -1    0    0    0    0  0.00000000000E+00  0.00000000000E+00  0.45593999997E+02  0.45594000000E+02  0.51100000000E-03 0.  1.
         11   -1    0    0    0    0 -0.00000000000E+00 -0.00000000000E+00 -0.45593999997E+02  0.45594000000E+02  0.51100000000E-03 0. -1.
    9900012    2    1    2    0    0 -0.99867285519E+01  0.35394213912E+02 -0.17340149780E+02  0.50528856871E+02  0.29999990945E+02 0.  0.
        -12    1    1    2    0    0  0.99867285519E+01 -0.35394213912E+02  0.17340149780E+02  0.40659143129E+02  0.00000000000E+00 0.  1.
         11    1    3    3    0    0  0.19160408081E+00  0.85298609935E+00  0.62888216614E+00  0.10769356756E+01  0.51100000000E-03 0. -1.
        -11    1    3    3    0    0 -0.35843882596E+01  0.44438834968E+01  0.75356360133E+01  0.94541921979E+01  0.51100000000E-03 0.  1.
         12    1    3    3    0    0 -0.65939443731E+01  0.30097344315E+02 -0.25504667959E+02  0.39997728998E+02  0.00000000000E+00 0. -1.
</event>
<event>
 7    1  0.2945316E-011  0.5052886E+02  0.7816164E-02  0.1300439E+00
        -11   -1    0    0    0    0  0.00000000000E+00  0.00000000000E+00  0.45593999997E+02  0.45594000000E+02  0.51100000000E-03 0.  1.
         11   -1    0    0    0    0 -0.00000000000E+00 -0.00000000000E+00 -0.45593999997E+02  0.45594000000E+02  0.51100000000E-03 0. -1.
    9900012    2    1    2    0    0  0.27619697653E+02 -0.29575323964E+02 -0.39519762482E+01  0.50528860778E+02  0.30000002820E+02 0.  0.
        -12    1    1    2    0    0 -0.27619697653E+02  0.29575323964E+02  0.39519762482E+01  0.40659139222E+02  0.00000000000E+00 0.  1.
         11    1    3    3    0    0  0.52946955723E+01 -0.82109340543E+01  0.29987628857E+01  0.10219873696E+02  0.51100000000E-03 0. -1.
        -11    1    3    3    0    0  0.21251709191E+02 -0.75447337896E+01  0.36682946236E+01  0.22847637454E+02  0.51100000000E-03 0.  1.
         12    1    3    3    0    0  0.10732928892E+01 -0.13819656120E+02 -0.10619033757E+02  0.17461349629E+02  0.00000000000E+00 0. -1.
</event>
<event>
 7    1  0.2945316E-011  0.5052887E+02  0.7816164E-02  0.1300439E+00
        -11   -1    0    0    0    0  0.00000000000E+00  0.00000000000E+00  0.45593999997E+02  0.45594000000E+02  0.51100000000E-03 0. -1.
         11   -1    0    0    0    0 -0.00000000000E+00 -0.00000000000E+00 -0.45593999997E+02  0.45594000000E+02  0.51100000000E-03 0.  1.
    9900012    2    1    2    0    0  0.35149760233E+02 -0.13356302071E+02  0.15468296775E+02  0.50528872432E+02  0.30000038245E+02 0.  0.
        -12    1    1    2    0    0 -0.35149760233E+02  0.13356302071E+02 -0.15468296775E+02  0.40659127568E+02  0.00000000000E+00 0.  1.
         11    1    3    3    0    0 -0.21199805316E+01 -0.12653708402E+01  0.28650868066E+01  0.37820898308E+01  0.51100000000E-03 0. -1.
        -11    1    3    3    0    0 -0.27533989418E+01  0.75435541218E+00  0.16964087178E+01  0.33208523935E+01  0.51100000000E-03 0.  1.
         12    1    3    3    0    0  0.40023139706E+02 -0.12845286643E+02  0.10906801251E+02  0.43425930208E+02  0.00000000000E+00 0. -1.
</event>
<event>
 7    1  0.2945316E-011  0.5052885E+02  0.7816164E-02  0.1300439E+00
        -11   -1    0    0    0    0  0.00000000000E+00  0.00000000000E+00  0.45593999997E+02  0.45594000000E+02  0.51100000000E-03 0. -1.
         11   -1    0    0    0    0 -0.00000000000E+00 -0.00000000000E+00 -0.45593999997E+02  0.45594000000E+02  0.51100000000E-03 0.  1.
    9900012    2    1    2    0    0  0.13544321012E+02 -0.18842147010E+01  0.38290564217E+02  0.50528853369E+02  0.29999980301E+02 0.  0.
        -12    1    1    2    0    0 -0.13544321012E+02  0.18842147010E+01 -0.38290564217E+02  0.40659146631E+02  0.00000000000E+00 0.  1.
         11    1    3    3    0    0  0.95772279952E+01 -0.64157029361E+01  0.29023329298E+02  0.31228803756E+02  0.51100000000E-03 0. -1.
        -11    1    3    3    0    0  0.61098762985E+01  0.36979493033E+01  0.13048229575E+02  0.14874868495E+02  0.51100000000E-03 0.  1.
        -12    1    3    3    0    0 -0.21427832816E+01  0.83353893176E+00 -0.37809946560E+01  0.44251811185E+01  0.00000000000E+00 0.  1.
</event>
<event>
 7    1  0.2945316E-011  0.5052886E+02  0.7816164E-02  0.1300439E+00
        -11   -1    0    0    0    0  0.00000000000E+00  0.00000000000E+00  0.45593999997E+02  0.45594000000E+02  0.51100000000E-03 0. -1.
         11   -1    0    0    0    0 -0.00000000000E+00 -0.00000000000E+00 -0.45593999997E+02  0.45594000000E+02  0.51100000000E-03 0.  1.
    9900012    2    1    2    0    0 -0.19766364902E+02  0.17973365271E+02  0.30649866924E+02  0.50528863474E+02  0.30000011015E+02 0.  0.
        -12    1    1    2    0    0  0.19766364902E+02 -0.17973365271E+02 -0.30649866924E+02  0.40659136526E+02  0.00000000000E+00 0.  1.
         11    1    3    3    0    0 -0.87799112528E+01  0.16653820345E+02  0.30665029649E+02  0.35983060144E+02  0.51100000000E-03 0. -1.
        -11    1    3    3    0    0 -0.16148164108E+01  0.43294101792E+01 -0.72428431796E+00  0.46771799810E+01  0.51100000000E-03 0.  1.
        -12    1    3    3    0    0 -0.93716372384E+01 -0.30098652531E+01  0.70912159275E+00  0.98686233490E+01  0.00000000000E+00 0.  1.
</event>
<event>
 7    1  0.2945316E-011  0.5052883E+02  0.7816164E-02  0.1300439E+00
        -11   -1    0    0    0    0  0.00000000000E+00  0.00000000000E+00  0.45593999997E+02  0.45594000000E+02  0.51100000000E-03 0. -1.
         11   -1    0    0    0    0 -0.00000000000E+00 -0.00000000000E+00 -0.45593999997E+02  0.45594000000E+02  0.51100000000E-03 0.  1.
    9900012    2    1    2    0    0 -0.77985143534E+01 -0.27002116815E+02  0.29380887903E+02  0.50528834826E+02  0.29999923938E+02 0.  0.
        -12    1    1    2    0    0  0.77985143534E+01  0.27002116815E+02 -0.29380887903E+02  0.40659165174E+02  0.00000000000E+00 0.  1.
         11    1    3    3    0    0  0.69751494204E+00 -0.10129230958E+02  0.13005930522E+02  0.16499759875E+02  0.51100000000E-03 0. -1.
        -11    1    3    3    0    0  0.15569080473E+01 -0.65399392412E+01  0.18289722314E+02  0.19486115840E+02  0.51100000000E-03 0.  1.
        -12    1    3    3    0    0 -0.10052937343E+02 -0.10332946616E+02 -0.19147649331E+01  0.14542959112E+02  0.00000000000E+00 0.  1.
</event>
<event>
 7    1  0.2945316E-011  0.5052886E+02  0.7816164E-02  0.1300439E+00
        -11   -1    0    0    0    0  0.00000000000E+00  0.00000000000E+00  0.45593999997E+02  0.45594000000E+02  0.51100000000E-03 0. -1.
         11   -1    0    0    0    0 -0.00000000000E+00 -0.00000000000E+00 -0.45593999997E+02  0.45594000000E+02  0.51100000000E-03 0.  1.
    9900012    2    1    2    0    0  0.32128066879E+02 -0.19490108538E+01  0.24842596068E+02  0.50528857067E+02  0.29999991540E+02 0.  0.
        -12    1    1    2    0    0 -0.32128066879E+02  0.19490108538E+01 -0.24842596068E+02  0.40659142933E+02  0.00000000000E+00 0.  1.
         11    1    3    3    0    0 -0.22340004998E+01  0.45514355316E+01  0.22980177814E+01  0.55666156340E+01  0.51100000000E-03 0. -1.
        -11    1    3    3    0    0  0.71564061055E+00  0.36575638153E+01  0.16678634739E+01  0.40830972773E+01  0.51100000000E-03 0.  1.
         12    1    3    3    0    0  0.33646426768E+02 -0.10158010201E+02  0.20876714812E+02  0.40879144155E+02  0.00000000000E+00 0. -1.
</event>
<event>
 7    1  0.2945316E-011  0.5052886E+02  0.7816164E-02  0.1300439E+00
        -11   -1    0    0    0    0  0.00000000000E+00  0.00000000000E+00  0.45593999997E+02  0.45594000000E+02  0.51100000000E-03 0. -1.
         11   -1    0    0    0    0 -0.00000000000E+00 -0.00000000000E+00 -0.45593999997E+02  0.45594000000E+02  0.51100000000E-03 0.  1.
    9900012    2    1    2    0    0 -0.38374450356E+02 -0.49362479602E+01  0.12498023085E+02  0.50528861235E+02  0.30000004211E+02 0.  0.
        -12    1    1    2    0    0  0.38374450356E+02  0.49362479602E+01 -0.12498023085E+02  0.40659138765E+02  0.00000000000E+00 0.  1.
         11    1    3    3    0    0 -0.92594727214E+00 -0.44534228602E+01  0.15205923929E+01  0.47960978940E+01  0.51100000000E-03 0. -1.
        -11    1    3    3    0    0 -0.28955465297E+01 -0.44582750457E+00 -0.64128326377E+01  0.70503457057E+01  0.51100000000E-03 0.  1.
        -12    1    3    3    0    0 -0.34552956554E+02 -0.36997595502E-01  0.17390263330E+02  0.38682417636E+02  0.00000000000E+00 0.  1.
</event>
<event>
 7    1  0.2945316E-011  0.5052886E+02  0.7816164E-02  0.1300439E+00
        -11   -1    0    0    0    0  0.00000000000E+00  0.00000000000E+00  0.45593999997E+02  0.45594000000E+02  0.51100000000E-03 0.  1.
         11   -1    0    0    0    0 -0.00000000000E+00 -0.00000000000E+00 -0.45593999997E+02  0.45594000000E+02  0.51100000000E-03 0. -1.
    9900012    2    1    2    0    0  0.21876861649E+02  0.14341857335E+02 -0.31126829970E+02  0.50528862141E+02  0.30000006965E+02 0.  0.
        -12    1    1    2    0    0 -0.21876861649E+02 -0.14341857335E+02  0.31126829970E+02  0.40659137859E+02  0.00000000000E+00 0.  1.
         11    1    3    3    0    0 -0.22436816154E+01  0.33455940255E+01 -0.82846322429E+01  0.92120702470E+01  0.51100000000E-03 0. -1.
        -11    1    3    3    0    0 -0.32085769907E+01  0.57215056395E+01 -0.51040503057E+01  0.83115535776E+01  0.51100000000E-03 0.  1.
         12    1    3    3    0    0  0.27329120256E+02  0.52747576695E+01 -0.17738147421E+02  0.33005238317E+02  0.00000000000E+00 0. -1.
</event>
<event>
 7    1  0.2945316E-011  0.5052886E+02  0.7816164E-02  0.1300439E+00
        -11   -1    0    0    0    0  0.00000000000E+00  0.00000000000E+00  0.45593999997E+02  0.45594000000E+02  0.51100000000E-03 0. -1.
         11   -1    0    0    0    0 -0.00000000000E+00 -0.00000000000E+00 -0.45593999997E+02  0.45594000000E+02  0.51100000000E-03 0.  1.
    9900012    2    1    2    0    0 -0.38390929777E+02 -0.85283391819E+00  0.13363201013E+02  0.50528856427E+02  0.29999989594E+02 0.  0.
        -12    1    1    2    0    0  0.38390929777E+02  0.85283391819E+00 -0.13363201013E+02  0.40659143573E+02  0.00000000000E+00 0.  1.
         11    1    3    3    0    0 -0.23575221678E+02 -0.28716431855E+01  0.34415748424E+01  0.23997538403E+02  0.51100000000E-03 0. -1.
        -11    1    3    3    0    0 -0.18495269212E+02 -0.53733122382E-01  0.11768497433E+02  0.21922030074E+02  0.51100000000E-03 0.  1.
        -12    1    3    3    0    0  0.36795611134E+01  0.20725423897E+01 -0.18468712623E+01  0.46092879497E+01  0.00000000000E+00 0.  1.
</event>
<event>
 7    1  0.2945316E-011  0.5052886E+02  0.7816164E-02  0.1300439E+00
        -11   -1    0    0    0    0  0.00000000000E+00  0.00000000000E+00  0.45593999997E+02  0.45594000000E+02  0.51100000000E-03 0.  1.
         11   -1    0    0    0    0 -0.00000000000E+00 -0.00000000000E+00 -0.45593999997E+02  0.45594000000E+02  0.51100000000E-03 0. -1.
    9900012    2    1    2    0    0 -0.19222765361E+02 -0.13368897601E+02 -0.33240390303E+02  0.50528859838E+02  0.29999999965E+02 0.  0.
        -12    1    1    2    0    0  0.19222765361E+02  0.13368897601E+02  0.33240390303E+02  0.40659140162E+02  0.00000000000E+00 0.  1.
         11    1    3    3    0    0 -0.52765216545E+01 -0.58348768499E+01 -0.38202321436E+01  0.87453783518E+01  0.51100000000E-03 0. -1.
        -11    1    3    3    0    0  0.11817025133E-03 -0.54062960688E+01  0.31726154826E+01  0.62684548701E+01  0.51100000000E-03 0.  1.
        -12    1    3    3    0    0 -0.13946361877E+02 -0.21277246826E+01 -0.32592773642E+02  0.35515026617E+02  0.00000000000E+00 0.  1.
</event>
<event>
 7    1  0.2945316E-011  0.5052883E+02  0.7816164E-02  0.1300439E+00
        -11   -1    0    0    0    0  0.00000000000E+00  0.00000000000E+00  0.45593999997E+02  0.45594000000E+02  0.51100000000E-03 0.  1.
         11   -1    0    0    0    0 -0.00000000000E+00 -0.00000000000E+00 -0.45593999997E+02  0.45594000000E+02  0.51100000000E-03 0. -1.
    9900012    2    1    2    0    0  0.77887432595E+01 -0.16886857506E+02 -0.36157123978E+02  0.50528830157E+02  0.29999909745E+02 0.  0.
        -12    1    1    2    0    0 -0.77887432595E+01  0.16886857506E+02  0.36157123978E+02  0.40659169843E+02  0.00000000000E+00 0.  1.
         11    1    3    3    0    0  0.46417664935E+01 -0.92278583147E+01 -0.16967738934E+02  0.19864630126E+02  0.51100000000E-03 0. -1.
        -11    1    3    3    0    0  0.10666257818E+02 -0.82056139098E+01 -0.18793275342E+02  0.23114678319E+02  0.51100000000E-03 0.  1.
        -12    1    3    3    0    0 -0.75192810516E+01  0.54661471884E+00 -0.39610970289E+00  0.75495217120E+01  0.00000000000E+00 0.  1.
</event>
<event>
 7    1  0.2945316E-011  0.5052889E+02  0.7816164E-02  0.1300439E+00
        -11   -1    0    0    0    0  0.00000000000E+00  0.00000000000E+00  0.45593999997E+02  0.45594000000E+02  0.51100000000E-03 0.  1.
         11   -1    0    0    0    0 -0.00000000000E+00 -0.00000000000E+00 -0.45593999997E+02  0.45594000000E+02  0.51100000000E-03 0. -1.
    9900012    2    1    2    0    0 -0.22394653630E+02 -0.25507103226E+02 -0.22383709300E+02  0.50528889480E+02  0.30000090064E+02 0.  0.
        -12    1    1    2    0    0  0.22394653630E+02  0.25507103226E+02  0.22383709300E+02  0.40659110520E+02  0.00000000000E+00 0.  1.
         11    1    3    3    0    0 -0.13657482496E+02 -0.62911087196E+01 -0.95002916408E+01  0.17786523510E+02  0.51100000000E-03 0. -1.
        -11    1    3    3    0    0 -0.13830284408E+02 -0.54035387151E+01 -0.95304378001E+01  0.17643815981E+02  0.51100000000E-03 0.  1.
        -12    1    3    3    0    0  0.50931132744E+01 -0.13812455792E+02 -0.33529798593E+01  0.15098549989E+02  0.00000000000E+00 0.  1.
</event>
<event>
 7    1  0.2945316E-011  0.5052882E+02  0.7816164E-02  0.1300439E+00
        -11   -1    0    0    0    0  0.00000000000E+00  0.00000000000E+00  0.45593999997E+02  0.45594000000E+02  0.51100000000E-03 0.  1.
         11   -1    0    0    0    0 -0.00000000000E+00 -0.00000000000E+00 -0.45593999997E+02  0.45594000000E+02  0.51100000000E-03 0. -1.
    9900012    2    1    2    0    0  0.80214467654E+01 -0.17330342190E+02 -0.35895465846E+02  0.50528821001E+02  0.29999881913E+02 0.  0.
        -12    1    1    2    0    0 -0.80214467654E+01  0.17330342190E+02  0.35895465846E+02  0.40659178999E+02  0.00000000000E+00 0.  1.
         11    1    3    3    0    0  0.99552359176E+00 -0.83525810081E+00 -0.32444989962E+01  0.34950675693E+01  0.51100000000E-03 0. -1.
        -11    1    3    3    0    0 -0.99901219966E+01  0.19753694623E+00 -0.88273923368E+01  0.13332832185E+02  0.51100000000E-03 0.  1.
         12    1    3    3    0    0  0.17016045170E+02 -0.16692621036E+02 -0.23823574513E+02  0.33700921246E+02  0.00000000000E+00 0. -1.
</event>
<event>
 7    1  0.2945316E-011  0.5052887E+02  0.7816164E-02  0.1300439E+00
        -11   -1    0    0    0    0  0.00000000000E+00  0.00000000000E+00  0.45593999997E+02  0.45594000000E+02  0.51100000000E-03 0.  1.
         11   -1    0    0    0    0 -0.00000000000E+00 -0.00000000000E+00 -0.45593999997E+02  0.45594000000E+02  0.51100000000E-03 0. -1.
    9900012    2    1    2    0    0  0.19043478308E+02  0.16549703178E+02 -0.31884445657E+02  0.50528872904E+02  0.30000039678E+02 0.  0.
        -12    1    1    2    0    0 -0.19043478308E+02 -0.16549703178E+02  0.31884445657E+02  0.40659127096E+02  0.00000000000E+00 0.  1.
         11    1    3    3    0    0  0.83401627374E+01  0.15470266998E+01 -0.19288017051E+02  0.21070814130E+02  0.51100000000E-03 0. -1.
        -11    1    3    3    0    0  0.14397714414E+02  0.17089339497E+02 -0.99801318767E+01  0.24473306629E+02  0.51100000000E-03 0.  1.
         12    1    3    3    0    0 -0.36943988427E+01 -0.20866630197E+01 -0.26162967298E+01  0.49847521448E+01  0.00000000000E+00 0. -1.
</event>
<event>
 7    1  0.2945316E-011  0.5052886E+02  0.7816164E-02  0.1300439E+00
        -11   -1    0    0    0    0  0.00000000000E+00  0.00000000000E+00  0.45593999997E+02  0.45594000000E+02  0.51100000000E-03 0. -1.
         11   -1    0    0    0    0 -0.00000000000E+00 -0.00000000000E+00 -0.45593999997E+02  0.45594000000E+02  0.51100000000E-03 0.  1.
    9900012    2    1    2    0    0  0.26686624557E+02  0.28237890433E+02  0.11983806581E+02  0.50528855807E+02  0.29999987710E+02 0.  0.
        -12    1    1    2    0    0 -0.26686624557E+02 -0.28237890433E+02 -0.11983806581E+02  0.40659144193E+02  0.00000000000E+00 0.  1.
         11    1    3    3    0    0  0.37351470037E+01  0.12258026786E+02  0.27047133114E+01  0.13096794195E+02  0.51100000000E-03 0. -1.
        -11    1    3    3    0    0  0.15729199180E+01  0.14470474663E+02  0.60304178038E+01  0.15755464232E+02  0.51100000000E-03 0.  1.
         12    1    3    3    0    0  0.21378557635E+02  0.15093889842E+01  0.32486754662E+01  0.21676597380E+02  0.00000000000E+00 0. -1.
</event>
<event>
 7    1  0.2945316E-011  0.5052886E+02  0.7816164E-02  0.1300439E+00
        -11   -1    0    0    0    0  0.00000000000E+00  0.00000000000E+00  0.45593999997E+02  0.45594000000E+02  0.51100000000E-03 0. -1.
         11   -1    0    0    0    0 -0.00000000000E+00 -0.00000000000E+00 -0.45593999997E+02  0.45594000000E+02  0.51100000000E-03 0.  1.
    9900012    2    1    2    0    0 -0.18737716362E+02 -0.35200162416E+02  0.79380229661E+01  0.50528860103E+02  0.30000000768E+02 0.  0.
        -12    1    1    2    0    0  0.18737716362E+02  0.35200162416E+02 -0.79380229661E+01  0.40659139897E+02  0.00000000000E+00 0.  1.
         11    1    3    3    0    0 -0.17604886484E+02 -0.21984218046E+02  0.14514193302E+01  0.28201852590E+02  0.51100000000E-03 0. -1.
        -11    1    3    3    0    0 -0.33424620937E+01 -0.26390666960E+01  0.10077751514E+02  0.10940649054E+02  0.51100000000E-03 0.  1.
        -12    1    3    3    0    0  0.22096322158E+01 -0.10576877674E+02 -0.35911478782E+01  0.11386358459E+02  0.00000000000E+00 0.  1.
</event>
<event>
 7    1  0.2945316E-011  0.5052886E+02  0.7816164E-02  0.1300439E+00
        -11   -1    0    0    0    0  0.00000000000E+00  0.00000000000E+00  0.45593999997E+02  0.45594000000E+02  0.51100000000E-03 0. -1.
         11   -1    0    0    0    0 -0.00000000000E+00 -0.00000000000E+00 -0.45593999997E+02  0.45594000000E+02  0.51100000000E-03 0.  1.
    9900012    2    1    2    0    0 -0.36592788498E+02 -0.26877454529E+01 -0.17518824589E+02  0.50528863749E+02  0.30000011852E+02 0.  0.
        -12    1    1    2    0    0  0.36592788498E+02  0.26877454529E+01  0.17518824589E+02  0.40659136251E+02  0.00000000000E+00 0.  1.
         11    1    3    3    0    0 -0.14431247409E+02 -0.64675918529E+01 -0.87771403531E+01  0.18086703381E+02  0.51100000000E-03 0. -1.
        -11    1    3    3    0    0  0.20897314375E+01 -0.50241576923E+01 -0.14292797432E+01  0.56260091400E+01  0.51100000000E-03 0.  1.
         12    1    3    3    0    0 -0.24251272527E+02  0.88040040923E+01 -0.73124044922E+01  0.26816151228E+02  0.00000000000E+00 0. -1.
</event>
<event>
 7    1  0.2945316E-011  0.5052886E+02  0.7816164E-02  0.1300439E+00
        -11   -1    0    0    0    0  0.00000000000E+00  0.00000000000E+00  0.45593999997E+02  0.45594000000E+02  0.51100000000E-03 0.  1.
         11   -1    0    0    0    0 -0.00000000000E+00 -0.00000000000E+00 -0.45593999997E+02  0.45594000000E+02  0.51100000000E-03 0. -1.
    9900012    2    1    2    0    0  0.93350100757E+01  0.26895514024E+02 -0.29028517998E+02  0.50528856564E+02  0.29999990013E+02 0.  0.
        -12    1    1    2    0    0 -0.93350100757E+01 -0.26895514024E+02  0.29028517998E+02  0.40659143436E+02  0.00000000000E+00 0.  1.
         11    1    3    3    0    0  0.32965328440E+01  0.14578547705E+02 -0.55699883711E+01  0.15950735177E+02  0.51100000000E-03 0. -1.
        -11    1    3    3    0    0  0.56205507785E+01  0.50683802525E+01 -0.25848942444E+02  0.26934121392E+02  0.51100000000E-03 0.  1.
         12    1    3    3    0    0  0.41792645312E+00  0.72485860671E+01  0.23904128168E+01  0.76439999952E+01  0.00000000000E+00 0. -1.
</event>
<event>
 7    1  0.2945316E-011  0.5052886E+02  0.7816164E-02  0.1300439E+00
        -11   -1    0    0    0    0  0.00000000000E+00  0.00000000000E+00  0.45593999997E+02  0.45594000000E+02  0.51100000000E-03 0.  1.
         11   -1    0    0    0    0 -0.00000000000E+00 -0.00000000000E+00 -0.45593999997E+02  0.45594000000E+02  0.51100000000E-03 0. -1.
    9900012    2    1    2    0    0 -0.30210193293E+02 -0.10029982527E+02 -0.25296428393E+02  0.50528860588E+02  0.30000002244E+02 0.  0.
        -12    1    1    2    0    0  0.30210193293E+02  0.10029982527E+02  0.25296428393E+02  0.40659139412E+02  0.00000000000E+00 0.  1.
         11    1    3    3    0    0 -0.43070649989E+01 -0.30158901024E+01  0.31392694589E+01  0.61238398910E+01  0.51100000000E-03 0. -1.
        -11    1    3    3    0    0 -0.52291187083E+01 -0.10682469811E+02 -0.48970185986E+01  0.12862333970E+02  0.51100000000E-03 0.  1.
         12    1    3    3    0    0 -0.20674009585E+02  0.36683773870E+01 -0.23538679253E+02  0.31542686727E+02  0.00000000000E+00 0. -1.
</event>
<event>
 7    1  0.2945316E-011  0.5052883E+02  0.7816164E-02  0.1300439E+00
        -11   -1    0    0    0    0  0.00000000000E+00  0.00000000000E+00  0.45593999997E+02  0.45594000000E+02  0.51100000000E-03 0. -1.
         11   -1    0    0    0    0 -0.00000000000E+00 -0.00000000000E+00 -0.45593999997E+02  0.45594000000E+02  0.51100000000E-03 0.  1.
    9900012    2    1    2    0    0  0.11430210132E+02 -0.30148217330E+02  0.24771013697E+02  0.50528833366E+02  0.29999919499E+02 0.  0.
        -12    1    1    2    0    0 -0.11430210132E+02  0.30148217330E+02 -0.24771013697E+02  0.40659166634E+02  0.00000000000E+00 0.  1.
         11    1    3    3    0    0  0.11759184420E+02 -0.23454457531E+01  0.88141754003E+01  0.14881842031E+02  0.51100000000E-03 0. -1.
        -11    1    3    3    0    0 -0.13178439219E+01 -0.99967235632E+01 -0.20656642667E+01  0.10292626668E+02  0.51100000000E-03 0.  1.
        -12    1    3    3    0    0  0.98886963389E+00 -0.17806048013E+02  0.18022502563E+02  0.25354364667E+02  0.00000000000E+00 0.  1.
</event>
<event>
 7    1  0.2945316E-011  0.5052886E+02  0.7816164E-02  0.1300439E+00
        -11   -1    0    0    0    0  0.00000000000E+00  0.00000000000E+00  0.45593999997E+02  0.45594000000E+02  0.51100000000E-03 0.  1.
         11   -1    0    0    0    0 -0.00000000000E+00 -0.00000000000E+00 -0.45593999997E+02  0.45594000000E+02  0.51100000000E-03 0. -1.
    9900012    2    1    2    0    0  0.25433894191E+01 -0.13362433552E+02 -0.38316340950E+02  0.50528862725E+02  0.30000008738E+02 0.  0.
        -12    1    1    2    0    0 -0.25433894191E+01  0.13362433552E+02  0.38316340950E+02  0.40659137275E+02  0.00000000000E+00 0.  1.
         11    1    3    3    0    0 -0.11220962699E+02 -0.34936608244E+01 -0.25820993998E+02  0.28369691594E+02  0.51100000000E-03 0. -1.
        -11    1    3    3    0    0  0.37402257852E+01 -0.41091445146E+01 -0.62870402325E+00  0.55919251226E+01  0.51100000000E-03 0.  1.
        -12    1    3    3    0    0  0.10024126333E+02 -0.57596282132E+01 -0.11866642929E+02  0.16567246008E+02  0.00000000000E+00 0.  1.
</event>
<event>
 7    1  0.2945316E-011  0.5052886E+02  0.7816164E-02  0.1300439E+00
        -11   -1    0    0    0    0  0.00000000000E+00  0.00000000000E+00  0.45593999997E+02  0.45594000000E+02  0.51100000000E-03 0. -1.
         11   -1    0    0    0    0 -0.00000000000E+00 -0.00000000000E+00 -0.45593999997E+02  0.45594000000E+02  0.51100000000E-03 0.  1.
    9900012    2    1    2    0    0 -0.32833754548E+02  0.39653286916E+01  0.23651344970E+02  0.50528863410E+02  0.30000010822E+02 0.  0.
        -12    1    1    2    0    0  0.32833754548E+02 -0.39653286916E+01 -0.23651344970E+02  0.40659136590E+02  0.00000000000E+00 0.  1.
         11    1    3    3    0    0 -0.83249027334E+01  0.10408812437E+02  0.36835881869E+01  0.13828094737E+02  0.51100000000E-03 0. -1.
        -11    1    3    3    0    0  0.32657631967E+00  0.32984014611E+01 -0.10290643211E+00  0.33161263978E+01  0.51100000000E-03 0.  1.
         12    1    3    3    0    0 -0.24835428134E+02 -0.97418852061E+01  0.20070663215E+02  0.33384642276E+02  0.00000000000E+00 0. -1.
</event>
<event>
 7    1  0.2945316E-011  0.5052886E+02  0.7816164E-02  0.1300439E+00
        -11   -1    0    0    0    0  0.00000000000E+00  0.00000000000E+00  0.45593999997E+02  0.45594000000E+02  0.51100000000E-03 0.  1.
         11   -1    0    0    0    0 -0.00000000000E+00 -0.00000000000E+00 -0.45593999997E+02  0.45594000000E+02  0.51100000000E-03 0. -1.
    9900012    2    1    2    0    0  0.28144679927E+02  0.28975735742E+02 -0.46313157998E+01  0.50528863806E+02  0.30000012024E+02 0.  0.
        -12    1    1    2    0    0 -0.28144679927E+02 -0.28975735742E+02  0.46313157998E+01  0.40659136194E+02  0.00000000000E+00 0.  1.
         11    1    3    3    0    0  0.16128527412E+02  0.12724753408E+02  0.88696642461E+01  0.22376766744E+02  0.51100000000E-03 0.  1.
        -11    1    3    3    0    0  0.11414174469E+02  0.15699603987E+02 -0.55901721726E+01  0.20199281406E+02  0.51100000000E-03 0. -1.
        -12    1    3    3    0    0  0.60197804627E+00  0.55137834745E+00 -0.79108078734E+01  0.79528156561E+01  0.00000000000E+00 0.  1.
</event>
<event>
 7    1  0.2945316E-011  0.5052885E+02  0.7816164E-02  0.1300439E+00
        -11   -1    0    0    0    0  0.00000000000E+00  0.00000000000E+00  0.45593999997E+02  0.45594000000E+02  0.51100000000E-03 0.  1.
         11   -1    0    0    0    0 -0.00000000000E+00 -0.00000000000E+00 -0.45593999997E+02  0.45594000000E+02  0.51100000000E-03 0. -1.
    9900012    2    1    2    0    0  0.40176566781E+02  0.58946352914E+01  0.20647384916E+01  0.50528851109E+02  0.29999973431E+02 0.  0.
        -12    1    1    2    0    0 -0.40176566781E+02 -0.58946352914E+01 -0.20647384916E+01  0.40659148891E+02  0.00000000000E+00 0.  1.
         11    1    3    3    0    0  0.28129684060E+02 -0.47988715092E+01 -0.46418205682E+01  0.28911153410E+02  0.51100000000E-03 0. -1.
        -11    1    3    3    0    0  0.64472285573E+01 -0.19387373745E+01  0.21007030775E+01  0.70525465159E+01  0.51100000000E-03 0.  1.
         12    1    3    3    0    0  0.55996541635E+01  0.12632244175E+02  0.46058559823E+01  0.14565151183E+02  0.00000000000E+00 0. -1.
</event>
<event>
 7    1  0.2945316E-011  0.5052885E+02  0.7816164E-02  0.1300439E+00
        -11   -1    0    0    0    0  0.00000000000E+00  0.00000000000E+00  0.45593999997E+02  0.45594000000E+02  0.51100000000E-03 0. -1.
         11   -1    0    0    0    0 -0.00000000000E+00 -0.00000000000E+00 -0.45593999997E+02  0.45594000000E+02  0.51100000000E-03 0.  1.
    9900012    2    1    2    0    0  0.36658067028E+02  0.15229716159E+02  0.87981965625E+01  0.50528851026E+02  0.29999973180E+02 0.  0.
        -12    1    1    2    0    0 -0.36658067028E+02 -0.15229716159E+02 -0.87981965625E+01  0.40659148974E+02  0.00000000000E+00 0.  1.
         11    1    3    3    0    0 -0.20855131389E+01  0.67345664878E+00 -0.31822671172E+01  0.38639012897E+01  0.51100000000E-03 0. -1.
        -11    1    3    3    0    0  0.62344464429E+00  0.17689577957E+01 -0.31817397640E+01  0.36934215971E+01  0.51100000000E-03 0.  1.
         12    1    3    3    0    0  0.38120135523E+02  0.12787301714E+02  0.15162203444E+02  0.42971528140E+02  0.00000000000E+00 0. -1.
</event>
<event>
 7    1  0.2945316E-011  0.5052885E+02  0.7816164E-02  0.1300439E+00
        -11   -1    0    0    0    0  0.00000000000E+00  0.00000000000E+00  0.45593999997E+02  0.45594000000E+02  0.51100000000E-03 0.  1.
         11   -1    0    0    0    0 -0.00000000000E+00 -0.00000000000E+00 -0.45593999997E+02  0.45594000000E+02  0.51100000000E-03 0. -1.
    9900012    2    1    2    0    0 -0.36906150731E+01  0.33846118739E+02 -0.22225792153E+02  0.50528853057E+02  0.29999979353E+02 0.  0.
        -12    1    1    2    0    0  0.36906150731E+01 -0.33846118739E+02  0.22225792153E+02  0.40659146943E+02  0.00000000000E+00 0.  1.
         11    1    3    3    0    0 -0.19180694292E+01  0.17935337436E+02  0.17318740804E+01  0.18120560350E+02  0.51100000000E-03 0. -1.
        -11    1    3    3    0    0 -0.18609434965E+01  0.71931971557E+01 -0.57379776763E+00  0.74521433264E+01  0.51100000000E-03 0.  1.
        -12    1    3    3    0    0  0.88397852673E-01  0.87175841467E+01 -0.23383868465E+02  0.24956149381E+02  0.00000000000E+00 0.  1.
</event>
<event>
 7    1  0.2945316E-011  0.5052883E+02  0.7816164E-02  0.1300439E+00
        -11   -1    0    0    0    0  0.00000000000E+00  0.00000000000E+00  0.45593999997E+02  0.45594000000E+02  0.51100000000E-03 0.  1.
         11   -1    0    0    0    0 -0.00000000000E+00 -0.00000000000E+00 -0.45593999997E+02  0.45594000000E+02  0.51100000000E-03 0. -1.
    9900012    2    1    2    0    0  0.23264976902E+02 -0.68444684517E+01 -0.32635292843E+02  0.50528828370E+02  0.29999904314E+02 0.  0.
        -12    1    1    2    0    0 -0.23264976902E+02  0.68444684517E+01  0.32635292843E+02  0.40659171630E+02  0.00000000000E+00 0.  1.
         11    1    3    3    0    0  0.15376296391E+02  0.39046671512E+01 -0.20489366093E+02  0.25913144144E+02  0.51100000000E-03 0. -1.
        -11    1    3    3    0    0 -0.40454190776E+01  0.31917591874E+00  0.38207830087E+00  0.40759382809E+01  0.51100000000E-03 0.  1.
        -12    1    3    3    0    0  0.11934099589E+02 -0.11068311522E+02 -0.12528005051E+02  0.20539745945E+02  0.00000000000E+00 0.  1.
</event>
<event>
 7    1  0.2945316E-011  0.5052890E+02  0.7816164E-02  0.1300439E+00
        -11   -1    0    0    0    0  0.00000000000E+00  0.00000000000E+00  0.45593999997E+02  0.45594000000E+02  0.51100000000E-03 0. -1.
         11   -1    0    0    0    0 -0.00000000000E+00 -0.00000000000E+00 -0.45593999997E+02  0.45594000000E+02  0.51100000000E-03 0.  1.
    9900012    2    1    2    0    0 -0.30675146332E+02 -0.10513538442E+02  0.24528823372E+02  0.50528901768E+02  0.30000127413E+02 0.  0.
        -12    1    1    2    0    0  0.30675146332E+02  0.10513538442E+02 -0.24528823372E+02  0.40659098232E+02  0.00000000000E+00 0.  1.
         11    1    3    3    0    0 -0.15115919300E+02 -0.12274477672E+01  0.20524065304E+01  0.15303921626E+02  0.51100000000E-03 0. -1.
        -11    1    3    3    0    0  0.57480280764E+00 -0.10480901487E+02  0.58081507343E+01  0.11996429030E+02  0.51100000000E-03 0.  1.
         12    1    3    3    0    0 -0.16134029839E+02  0.11948108120E+01  0.16668266107E+02  0.23228551112E+02  0.00000000000E+00 0. -1.
</event>
<event>
 7    1  0.2945316E-011  0.5052885E+02  0.7816164E-02  0.1300439E+00
        -11   -1    0    0    0    0  0.00000000000E+00  0.00000000000E+00  0.45593999997E+02  0.45594000000E+02  0.51100000000E-03 0.  1.
         11   -1    0    0    0    0 -0.00000000000E+00 -0.00000000000E+00 -0.45593999997E+02  0.45594000000E+02  0.51100000000E-03 0. -1.
    9900012    2    1    2    0    0 -0.30731043295E+02 -0.10833287903E+02 -0.24318901090E+02  0.50528854669E+02  0.29999984253E+02 0.  0.
        -12    1    1    2    0    0  0.30731043295E+02  0.10833287903E+02  0.24318901090E+02  0.40659145331E+02  0.00000000000E+00 0.  1.
         11    1    3    3    0    0  0.18659443428E+01  0.61345418398E+00 -0.60275979414E+01  0.63395592536E+01  0.51100000000E-03 0. -1.
        -11    1    3    3    0    0 -0.10190909805E+02 -0.53773334429E+01  0.38110202977E+01  0.12136483575E+02  0.51100000000E-03 0.  1.
         12    1    3    3    0    0 -0.22406077833E+02 -0.60694086446E+01 -0.22102323447E+02  0.32052811840E+02  0.00000000000E+00 0. -1.
</event>
<event>
 7    1  0.2945316E-011  0.5052883E+02  0.7816164E-02  0.1300439E+00
        -11   -1    0    0    0    0  0.00000000000E+00  0.00000000000E+00  0.45593999997E+02  0.45594000000E+02  0.51100000000E-03 0.  1.
         11   -1    0    0    0    0 -0.00000000000E+00 -0.00000000000E+00 -0.45593999997E+02  0.45594000000E+02  0.51100000000E-03 0. -1.
    9900012    2    1    2    0    0  0.37901425062E+02  0.14599833637E+02 -0.18694600643E+01  0.50528830740E+02  0.29999911518E+02 0.  0.
        -12    1    1    2    0    0 -0.37901425062E+02 -0.14599833637E+02  0.18694600643E+01  0.40659169260E+02  0.00000000000E+00 0.  1.
         11    1    3    3    0    0  0.17871872629E+01 -0.23681510011E+01 -0.57348223291E+01  0.64568076388E+01  0.51100000000E-03 0. -1.
        -11    1    3    3    0    0  0.17703744045E+01  0.65190925437E+01 -0.32166058354E+01  0.74819346753E+01  0.51100000000E-03 0.  1.
         12    1    3    3    0    0  0.34343863395E+02  0.10448892094E+02  0.70819681002E+01  0.36590088426E+02  0.00000000000E+00 0. -1.
</event>
<event>
 7    1  0.2945316E-011  0.5052888E+02  0.7816164E-02  0.1300439E+00
        -11   -1    0    0    0    0  0.00000000000E+00  0.00000000000E+00  0.45593999997E+02  0.45594000000E+02  0.51100000000E-03 0.  1.
         11   -1    0    0    0    0 -0.00000000000E+00 -0.00000000000E+00 -0.45593999997E+02  0.45594000000E+02  0.51100000000E-03 0. -1.
    9900012    2    1    2    0    0 -0.38487287390E+02 -0.49580862473E+01 -0.12137127606E+02  0.50528883231E+02  0.30000071070E+02 0.  0.
        -12    1    1    2    0    0  0.38487287390E+02  0.49580862473E+01  0.12137127606E+02  0.40659116769E+02  0.00000000000E+00 0.  1.
         11    1    3    3    0    0 -0.53061899009E+01 -0.63772608500E+01 -0.70893244523E+01  0.10912544555E+02  0.51100000000E-03 0.  1.
        -11    1    3    3    0    0 -0.22104997488E+01  0.46242989493E+01  0.47368104690E+01  0.69790990530E+01  0.51100000000E-03 0. -1.
         12    1    3    3    0    0 -0.30970597740E+02 -0.32051243466E+01 -0.97846136228E+01  0.32637239623E+02  0.00000000000E+00 0. -1.
</event>
<event>
 7    1  0.2945316E-011  0.5052886E+02  0.7816164E-02  0.1300439E+00
        -11   -1    0    0    0    0  0.00000000000E+00  0.00000000000E+00  0.45593999997E+02  0.45594000000E+02  0.51100000000E-03 0.  1.
         11   -1    0    0    0    0 -0.00000000000E+00 -0.00000000000E+00 -0.45593999997E+02  0.45594000000E+02  0.51100000000E-03 0. -1.
    9900012    2    1    2    0    0  0.26602157637E+02 -0.29763326446E+02  0.77223793909E+01  0.50528861598E+02  0.30000005314E+02 0.  0.
        -12    1    1    2    0    0 -0.26602157637E+02  0.29763326446E+02 -0.77223793909E+01  0.40659138402E+02  0.00000000000E+00 0.  1.
         11    1    3    3    0    0  0.44459027883E+01 -0.20405864198E+02  0.21036475009E+01  0.20990251984E+02  0.51100000000E-03 0. -1.
        -11    1    3    3    0    0  0.64017026051E+01 -0.96143338297E+01  0.73442307019E+01  0.13687765928E+02  0.51100000000E-03 0.  1.
         12    1    3    3    0    0  0.15754552244E+02  0.25687158155E+00 -0.17254988119E+01  0.15850843686E+02  0.00000000000E+00 0. -1.
</event>
<event>
 7    1  0.2945316E-011  0.5052886E+02  0.7816164E-02  0.1300439E+00
        -11   -1    0    0    0    0  0.00000000000E+00  0.00000000000E+00  0.45593999997E+02  0.45594000000E+02  0.51100000000E-03 0.  1.
         11   -1    0    0    0    0 -0.00000000000E+00 -0.00000000000E+00 -0.45593999997E+02  0.45594000000E+02  0.51100000000E-03 0. -1.
    9900012    2    1    2    0    0  0.31149783881E+02  0.25387653578E+02 -0.61906384175E+01  0.50528855961E+02  0.29999988178E+02 0.  0.
        -12    1    1    2    0    0 -0.31149783881E+02 -0.25387653578E+02  0.61906384175E+01  0.40659144039E+02  0.00000000000E+00 0.  1.
         11    1    3    3    0    0  0.98336768342E+00  0.22432553060E+01 -0.10831831948E+02  0.11105304588E+02  0.51100000000E-03 0. -1.
        -11    1    3    3    0    0  0.20172332722E+01  0.72122050582E-01  0.21391202514E+01  0.29411336889E+01  0.51100000000E-03 0.  1.
         12    1    3    3    0    0  0.28149182925E+02  0.23072276221E+02  0.25020732793E+01  0.36482417684E+02  0.00000000000E+00 0. -1.
</event>
<event>
 7    1  0.2945316E-011  0.5052885E+02  0.7816164E-02  0.1300439E+00
        -11   -1    0    0    0    0  0.00000000000E+00  0.00000000000E+00  0.45593999997E+02  0.45594000000E+02  0.51100000000E-03 0. -1.
         11   -1    0    0    0    0 -0.00000000000E+00 -0.00000000000E+00 -0.45593999997E+02  0.45594000000E+02  0.51100000000E-03 0.  1.
    9900012    2    1    2    0    0  0.21780972039E+02 -0.34311053999E+02  0.12276001800E+01  0.50528853776E+02  0.29999981537E+02 0.  0.
        -12    1    1    2    0    0 -0.21780972039E+02  0.34311053999E+02 -0.12276001800E+01  0.40659146224E+02  0.00000000000E+00 0.  1.
         11    1    3    3    0    0  0.18535803892E+02 -0.16507355856E+02  0.31667953088E+01  0.25021938696E+02  0.51100000000E-03 0. -1.
        -11    1    3    3    0    0  0.66513734654E+01 -0.17573233868E+02 -0.64354842292E+01  0.19861389053E+02  0.51100000000E-03 0.  1.
         12    1    3    3    0    0 -0.34062053186E+01 -0.23046427391E+00  0.44962891004E+01  0.56455260276E+01  0.00000000000E+00 0. -1.
</event>
<event>
 7    1  0.2945316E-011  0.5052886E+02  0.7816164E-02  0.1300439E+00
        -11   -1    0    0    0    0  0.00000000000E+00  0.00000000000E+00  0.45593999997E+02  0.45594000000E+02  0.51100000000E-03 0.  1.
         11   -1    0    0    0    0 -0.00000000000E+00 -0.00000000000E+00 -0.45593999997E+02  0.45594000000E+02  0.51100000000E-03 0. -1.
    9900012    2    1    2    0    0  0.34576075671E+02  0.14923004231E+02 -0.15328553785E+02  0.50528860496E+02  0.30000001963E+02 0.  0.
        -12    1    1    2    0    0 -0.34576075671E+02 -0.14923004231E+02  0.15328553785E+02  0.40659139504E+02  0.00000000000E+00 0.  1.
         11    1    3    3    0    0  0.12842165735E+02  0.19424017975E+02 -0.64216397107E+01  0.24154733530E+02  0.51100000000E-03 0. -1.
        -11    1    3    3    0    0  0.14531708895E+02  0.17438931160E+01 -0.23975177925E+01  0.14831042392E+02  0.51100000000E-03 0.  1.
        -12    1    3    3    0    0  0.72022010418E+01 -0.62449068602E+01 -0.65093962818E+01  0.11543084574E+02  0.00000000000E+00 0.  1.
</event>
<event>
 7    1  0.2945316E-011  0.5052884E+02  0.7816164E-02  0.1300439E+00
        -11   -1    0    0    0    0  0.00000000000E+00  0.00000000000E+00  0.45593999997E+02  0.45594000000E+02  0.51100000000E-03 0.  1.
         11   -1    0    0    0    0 -0.00000000000E+00 -0.00000000000E+00 -0.45593999997E+02  0.45594000000E+02  0.51100000000E-03 0. -1.
    9900012    2    1    2    0    0 -0.43676804953E+01 -0.13238091882E+02 -0.38194808942E+02  0.50528841872E+02  0.29999945353E+02 0.  0.
        -12    1    1    2    0    0  0.43676804953E+01  0.13238091882E+02  0.38194808942E+02  0.40659158128E+02  0.00000000000E+00 0.  1.
         11    1    3    3    0    0 -0.61070632069E+01 -0.57835983548E+01 -0.19519340226E+01  0.86345977111E+01  0.51100000000E-03 0. -1.
        -11    1    3    3    0    0  0.33469729723E+01 -0.52401926733E+01 -0.71238300951E+00  0.62585411354E+01  0.51100000000E-03 0.  1.
         12    1    3    3    0    0 -0.16075902607E+01 -0.22143008540E+01 -0.35530491910E+02  0.35635703025E+02  0.00000000000E+00 0. -1.
</event>
<event>
 7    1  0.2945316E-011  0.5052886E+02  0.7816164E-02  0.1300439E+00
        -11   -1    0    0    0    0  0.00000000000E+00  0.00000000000E+00  0.45593999997E+02  0.45594000000E+02  0.51100000000E-03 0.  1.
         11   -1    0    0    0    0 -0.00000000000E+00 -0.00000000000E+00 -0.45593999997E+02  0.45594000000E+02  0.51100000000E-03 0. -1.
    9900012    2    1    2    0    0 -0.39424412295E+02  0.96345395757E+01  0.24610743767E+01  0.50528861732E+02  0.30000005720E+02 0.  0.
        -12    1    1    2    0    0  0.39424412295E+02 -0.96345395757E+01 -0.24610743767E+01  0.40659138268E+02  0.00000000000E+00 0.  1.
         11    1    3    3    0    0 -0.35158475822E+01  0.21839517755E+01 -0.59041920353E+01  0.72104308768E+01  0.51100000000E-03 0. -1.
        -11    1    3    3    0    0 -0.26379657924E+00  0.29221494970E+01 -0.43126871572E+01  0.52161113001E+01  0.51100000000E-03 0.  1.
         12    1    3    3    0    0 -0.35644768133E+02  0.45284383032E+01  0.12677953569E+02  0.38102319555E+02  0.00000000000E+00 0. -1.
</event>
<event>
 7    1  0.2945316E-011  0.5052886E+02  0.7816164E-02  0.1300439E+00
        -11   -1    0    0    0    0  0.00000000000E+00  0.00000000000E+00  0.45593999997E+02  0.45594000000E+02  0.51100000000E-03 0.  1.
         11   -1    0    0    0    0 -0.00000000000E+00 -0.00000000000E+00 -0.45593999997E+02  0.45594000000E+02  0.51100000000E-03 0. -1.
    9900012    2    1    2    0    0  0.28278879237E+02 -0.52009232778E+01 -0.28747536854E+02  0.50528862171E+02  0.30000007056E+02 0.  0.
        -12    1    1    2    0    0 -0.28278879237E+02  0.52009232778E+01  0.28747536854E+02  0.40659137829E+02  0.00000000000E+00 0.  1.
         11    1    3    3    0    0  0.64602333054E+01  0.13256051194E+01 -0.31248536746E+01  0.72977088214E+01  0.51100000000E-03 0. -1.
        -11    1    3    3    0    0  0.34222268793E+01  0.97022021675E+01 -0.75847984658E+01  0.12781765596E+02  0.51100000000E-03 0.  1.
         12    1    3    3    0    0  0.18396419052E+02 -0.16228730565E+02 -0.18037884713E+02  0.30449387754E+02  0.00000000000E+00 0. -1.
</event>
<event>
 7    1  0.2945316E-011  0.5052884E+02  0.7816164E-02  0.1300439E+00
        -11   -1    0    0    0    0  0.00000000000E+00  0.00000000000E+00  0.45593999997E+02  0.45594000000E+02  0.51100000000E-03 0. -1.
         11   -1    0    0    0    0 -0.00000000000E+00 -0.00000000000E+00 -0.45593999997E+02  0.45594000000E+02  0.51100000000E-03 0.  1.
    9900012    2    1    2    0    0 -0.21571099670E+02 -0.18730077638E+02  0.28931629300E+02  0.50528839614E+02  0.29999938490E+02 0.  0.
        -12    1    1    2    0    0  0.21571099670E+02  0.18730077638E+02 -0.28931629300E+02  0.40659160386E+02  0.00000000000E+00 0.  1.
         11    1    3    3    0    0 -0.99109219784E+01 -0.12046817649E+02  0.20128934723E+02  0.25466177634E+02  0.51100000000E-03 0. -1.
        -11    1    3    3    0    0 -0.14585583915E+02 -0.60274702450E+01  0.12621085974E+02  0.20207955540E+02  0.51100000000E-03 0.  1.
         12    1    3    3    0    0  0.29254062231E+01 -0.65578974395E+00 -0.38183913964E+01  0.48547064396E+01  0.00000000000E+00 0. -1.
</event>
<event>
 7    1  0.2945316E-011  0.5052887E+02  0.7816164E-02  0.1300439E+00
        -11   -1    0    0    0    0  0.00000000000E+00  0.00000000000E+00  0.45593999997E+02  0.45594000000E+02  0.51100000000E-03 0.  1.
         11   -1    0    0    0    0 -0.00000000000E+00 -0.00000000000E+00 -0.45593999997E+02  0.45594000000E+02  0.51100000000E-03 0. -1.
    9900012    2    1    2    0    0 -0.19968919834E+02  0.28406894542E+02 -0.21153146791E+02  0.50528867741E+02  0.30000023986E+02 0.  0.
        -12    1    1    2    0    0  0.19968919834E+02 -0.28406894542E+02  0.21153146791E+02  0.40659132259E+02  0.00000000000E+00 0.  1.
         11    1    3    3    0    0 -0.76643443393E+01  0.59644516294E+01  0.85867547048E+00  0.97495733864E+01  0.51100000000E-03 0. -1.
        -11    1    3    3    0    0  0.17483122160E+01  0.17782110249E+02 -0.57108444037E+01  0.18758299085E+02  0.51100000000E-03 0.  1.
         12    1    3    3    0    0 -0.14052887710E+02  0.46603326640E+01 -0.16300977858E+02  0.22020995270E+02  0.00000000000E+00 0. -1.
</event>
<event>
 7    1  0.2945316E-011  0.5052886E+02  0.7816164E-02  0.1300439E+00
        -11   -1    0    0    0    0  0.00000000000E+00  0.00000000000E+00  0.45593999997E+02  0.45594000000E+02  0.51100000000E-03 0.  1.
         11   -1    0    0    0    0 -0.00000000000E+00 -0.00000000000E+00 -0.45593999997E+02  0.45594000000E+02  0.51100000000E-03 0. -1.
    9900012    2    1    2    0    0 -0.30809056281E+02  0.10635775645E+02 -0.24307356817E+02  0.50528864890E+02  0.30000015319E+02 0.  0.
        -12    1    1    2    0    0  0.30809056281E+02 -0.10635775645E+02  0.24307356817E+02  0.40659135110E+02  0.00000000000E+00 0.  1.
         11    1    3    3    0    0 -0.14400866903E+02  0.11149391446E+02 -0.17487364164E+02  0.25248798047E+02  0.51100000000E-03 0. -1.
        -11    1    3    3    0    0 -0.13869923949E+01  0.72862276422E+01 -0.20379910469E+01  0.76919613186E+01  0.51100000000E-03 0.  1.
         12    1    3    3    0    0 -0.15021196983E+02 -0.77998434435E+01 -0.47820016062E+01  0.17588105524E+02  0.00000000000E+00 0. -1.
</event>
<event>
 7    1  0.2945316E-011  0.5052886E+02  0.7816164E-02  0.1300439E+00
        -11   -1    0    0    0    0  0.00000000000E+00  0.00000000000E+00  0.45593999997E+02  0.45594000000E+02  0.51100000000E-03 0.  1.
         11   -1    0    0    0    0 -0.00000000000E+00 -0.00000000000E+00 -0.45593999997E+02  0.45594000000E+02  0.51100000000E-03 0. -1.
    9900012    2    1    2    0    0 -0.28061232458E+02 -0.95383566475E+01 -0.27834376939E+02  0.50528861369E+02  0.30000004618E+02 0.  0.
        -12    1    1    2    0    0  0.28061232458E+02  0.95383566475E+01  0.27834376939E+02  0.40659138631E+02  0.00000000000E+00 0.  1.
         11    1    3    3    0    0 -0.10038187536E+02 -0.66203952260E+01  0.73898082918E-01  0.12024986617E+02  0.51100000000E-03 0. -1.
        -11    1    3    3    0    0  0.65984944973E+00  0.57281454144E+01 -0.80367960671E+01  0.98912659690E+01  0.51100000000E-03 0.  1.
         12    1    3    3    0    0 -0.18682894371E+02 -0.86461068359E+01 -0.19871478955E+02  0.28612608783E+02  0.00000000000E+00 0. -1.
</event>
<event>
 7    1  0.2945316E-011  0.5052886E+02  0.7816164E-02  0.1300439E+00
        -11   -1    0    0    0    0  0.00000000000E+00  0.00000000000E+00  0.45593999997E+02  0.45594000000E+02  0.51100000000E-03 0.  1.
         11   -1    0    0    0    0 -0.00000000000E+00 -0.00000000000E+00 -0.45593999997E+02  0.45594000000E+02  0.51100000000E-03 0. -1.
    9900012    2    1    2    0    0 -0.12054538792E+02 -0.34940804961E+02 -0.16940903220E+02  0.50528856394E+02  0.29999989497E+02 0.  0.
        -12    1    1    2    0    0  0.12054538792E+02  0.34940804961E+02  0.16940903220E+02  0.40659143606E+02  0.00000000000E+00 0.  1.
         11    1    3    3    0    0 -0.59756644654E+01 -0.48633256054E+01 -0.55944867204E+01  0.95214906225E+01  0.51100000000E-03 0. -1.
        -11    1    3    3    0    0 -0.60675268310E+01 -0.58127232337E+01 -0.14277189354E+02  0.16566253932E+02  0.51100000000E-03 0.  1.
         12    1    3    3    0    0 -0.11347495297E-01 -0.24264756122E+02  0.29307728543E+01  0.24441111840E+02  0.00000000000E+00 0. -1.
</event>
<event>
 7    1  0.2945316E-011  0.5052886E+02  0.7816164E-02  0.1300439E+00
        -11   -1    0    0    0    0  0.00000000000E+00  0.00000000000E+00  0.45593999997E+02  0.45594000000E+02  0.51100000000E-03 0. -1.
         11   -1    0    0    0    0 -0.00000000000E+00 -0.00000000000E+00 -0.45593999997E+02  0.45594000000E+02  0.51100000000E-03 0.  1.
    9900012    2    1    2    0    0 -0.37593095248E+02 -0.14178635379E+02  0.62362680813E+01  0.50528861407E+02  0.30000004734E+02 0.  0.
        -12    1    1    2    0    0  0.37593095248E+02  0.14178635379E+02 -0.62362680813E+01  0.40659138593E+02  0.00000000000E+00 0.  1.
         11    1    3    3    0    0 -0.89284457753E+01 -0.29434517594E+00 -0.79495204293E+01  0.11958204646E+02  0.51100000000E-03 0. -1.
        -11    1    3    3    0    0 -0.24504640009E+00  0.28654796867E+01  0.10032186915E+01  0.30458938880E+01  0.51100000000E-03 0.  1.
         12    1    3    3    0    0 -0.28419603072E+02 -0.16749769889E+02  0.13182569819E+02  0.35524762873E+02  0.00000000000E+00 0. -1.
</event>
<event>
 7    1  0.2945316E-011  0.5052886E+02  0.7816164E-02  0.1300439E+00
        -11   -1    0    0    0    0  0.00000000000E+00  0.00000000000E+00  0.45593999997E+02  0.45594000000E+02  0.51100000000E-03 0. -1.
         11   -1    0    0    0    0 -0.00000000000E+00 -0.00000000000E+00 -0.45593999997E+02  0.45594000000E+02  0.51100000000E-03 0.  1.
    9900012    2    1    2    0    0 -0.40119969601E+01  0.73866494133E+01  0.39780731998E+02  0.50528863911E+02  0.30000012345E+02 0.  0.
        -12    1    1    2    0    0  0.40119969601E+01 -0.73866494133E+01 -0.39780731998E+02  0.40659136089E+02  0.00000000000E+00 0.  1.
         11    1    3    3    0    0  0.37302985115E+01  0.65478964270E+01  0.17230591380E+02  0.18806471071E+02  0.51100000000E-03 0. -1.
        -11    1    3    3    0    0  0.29147489053E+01  0.72559066264E+01  0.15655258096E+02  0.17499458520E+02  0.51100000000E-03 0.  1.
        -12    1    3    3    0    0 -0.10657044377E+02 -0.64171536401E+01  0.68948825221E+01  0.14222934321E+02  0.00000000000E+00 0.  1.
</event>
<event>
 7    1  0.2945316E-011  0.5052886E+02  0.7816164E-02  0.1300439E+00
        -11   -1    0    0    0    0  0.00000000000E+00  0.00000000000E+00  0.45593999997E+02  0.45594000000E+02  0.51100000000E-03 0. -1.
         11   -1    0    0    0    0 -0.00000000000E+00 -0.00000000000E+00 -0.45593999997E+02  0.45594000000E+02  0.51100000000E-03 0.  1.
    9900012    2    1    2    0    0  0.70219640240E-01  0.21274208363E+02  0.34649227266E+02  0.50528858071E+02  0.29999994593E+02 0.  0.
        -12    1    1    2    0    0 -0.70219640240E-01 -0.21274208363E+02 -0.34649227266E+02  0.40659141929E+02  0.00000000000E+00 0.  1.
         11    1    3    3    0    0 -0.47156841128E+01  0.24662439082E+01  0.30787476088E+01  0.61480665877E+01  0.51100000000E-03 0. -1.
        -11    1    3    3    0    0 -0.58372568781E+01  0.70430360244E+01  0.10505838030E+00  0.91481671293E+01  0.51100000000E-03 0.  1.
         12    1    3    3    0    0  0.10623160631E+02  0.11764928430E+02  0.31465421277E+02  0.35232624354E+02  0.00000000000E+00 0. -1.
</event>
<event>
 7    1  0.2945316E-011  0.5052887E+02  0.7816164E-02  0.1300439E+00
        -11   -1    0    0    0    0  0.00000000000E+00  0.00000000000E+00  0.45593999997E+02  0.45594000000E+02  0.51100000000E-03 0.  1.
         11   -1    0    0    0    0 -0.00000000000E+00 -0.00000000000E+00 -0.45593999997E+02  0.45594000000E+02  0.51100000000E-03 0. -1.
    9900012    2    1    2    0    0 -0.38904845810E+02 -0.10217385760E+02  0.59315191988E+01  0.50528869178E+02  0.30000028352E+02 0.  0.
        -12    1    1    2    0    0  0.38904845810E+02  0.10217385760E+02 -0.59315191988E+01  0.40659130822E+02  0.00000000000E+00 0.  1.
         11    1    3    3    0    0 -0.55495410909E+01 -0.48639574343E+01 -0.95406393655E+01  0.12061479512E+02  0.51100000000E-03 0.  1.
        -11    1    3    3    0    0 -0.12069834157E+02  0.95804488689E+00  0.14158610240E+01  0.12190299803E+02  0.51100000000E-03 0. -1.
        -12    1    3    3    0    0 -0.21285470562E+02 -0.63114732122E+01  0.14056297540E+02  0.26277089863E+02  0.00000000000E+00 0.  1.
</event>
<event>
 7    1  0.2945316E-011  0.5052885E+02  0.7816164E-02  0.1300439E+00
        -11   -1    0    0    0    0  0.00000000000E+00  0.00000000000E+00  0.45593999997E+02  0.45594000000E+02  0.51100000000E-03 0. -1.
         11   -1    0    0    0    0 -0.00000000000E+00 -0.00000000000E+00 -0.45593999997E+02  0.45594000000E+02  0.51100000000E-03 0.  1.
    9900012    2    1    2    0    0  0.97013295282E+00  0.31026404248E+02  0.26259994542E+02  0.50528853036E+02  0.29999979288E+02 0.  0.
        -12    1    1    2    0    0 -0.97013295282E+00 -0.31026404248E+02 -0.26259994542E+02  0.40659146964E+02  0.00000000000E+00 0.  1.
         11    1    3    3    0    0  0.18174241079E+01  0.41887966528E+01  0.12406638270E+02  0.13220201255E+02  0.51100000000E-03 0. -1.
        -11    1    3    3    0    0  0.13159581870E+01 -0.30335916677E+01  0.51500721379E+01  0.61202669585E+01  0.51100000000E-03 0.  1.
         12    1    3    3    0    0 -0.21632493421E+01  0.29871199263E+02  0.87032841340E+01  0.31188384822E+02  0.00000000000E+00 0. -1.
</event>
<event>
 7    1  0.2945316E-011  0.5052886E+02  0.7816164E-02  0.1300439E+00
        -11   -1    0    0    0    0  0.00000000000E+00  0.00000000000E+00  0.45593999997E+02  0.45594000000E+02  0.51100000000E-03 0.  1.
         11   -1    0    0    0    0 -0.00000000000E+00 -0.00000000000E+00 -0.45593999997E+02  0.45594000000E+02  0.51100000000E-03 0. -1.
    9900012    2    1    2    0    0  0.89017378013E+01  0.23464310766E+02 -0.31989856856E+02  0.50528858872E+02  0.29999997028E+02 0.  0.
        -12    1    1    2    0    0 -0.89017378013E+01 -0.23464310766E+02  0.31989856856E+02  0.40659141128E+02  0.00000000000E+00 0.  1.
         11    1    3    3    0    0 -0.10221792637E+01  0.20251240912E+01  0.88644776675E+00  0.24355221075E+01  0.51100000000E-03 0. -1.
        -11    1    3    3    0    0 -0.62120029653E+00  0.10095685722E+02  0.16536091459E+01  0.10249057687E+02  0.51100000000E-03 0.  1.
         12    1    3    3    0    0  0.10545117362E+02  0.11343500952E+02 -0.34529913768E+02  0.37844279077E+02  0.00000000000E+00 0. -1.
</event>
<event>
 7    1  0.2945316E-011  0.5052886E+02  0.7816164E-02  0.1300439E+00
        -11   -1    0    0    0    0  0.00000000000E+00  0.00000000000E+00  0.45593999997E+02  0.45594000000E+02  0.51100000000E-03 0. -1.
         11   -1    0    0    0    0 -0.00000000000E+00 -0.00000000000E+00 -0.45593999997E+02  0.45594000000E+02  0.51100000000E-03 0.  1.
    9900012    2    1    2    0    0  0.31728410840E+02  0.18547567186E+02  0.17391424627E+02  0.50528856459E+02  0.29999989692E+02 0.  0.
        -12    1    1    2    0    0 -0.31728410840E+02 -0.18547567186E+02 -0.17391424627E+02  0.40659143541E+02  0.00000000000E+00 0.  1.
         11    1    3    3    0    0  0.12330195715E+00 -0.27956126173E+01 -0.20048167239E+01  0.34423747089E+01  0.51100000000E-03 0. -1.
        -11    1    3    3    0    0  0.74524089803E+01  0.44776688670E+01 -0.39008619566E+01  0.95291469900E+01  0.51100000000E-03 0.  1.
         12    1    3    3    0    0  0.24152699903E+02  0.16865510936E+02  0.23297103308E+02  0.37557334760E+02  0.00000000000E+00 0. -1.
</event>
<event>
 7    1  0.2945316E-011  0.5052885E+02  0.7816164E-02  0.1300439E+00
        -11   -1    0    0    0    0  0.00000000000E+00  0.00000000000E+00  0.45593999997E+02  0.45594000000E+02  0.51100000000E-03 0.  1.
         11   -1    0    0    0    0 -0.00000000000E+00 -0.00000000000E+00 -0.45593999997E+02  0.45594000000E+02  0.51100000000E-03 0. -1.
    9900012    2    1    2    0    0 -0.27313480372E+02  0.29235649092E+02  0.72399684530E+01  0.50528849356E+02  0.29999968103E+02 0.  0.
        -12    1    1    2    0    0  0.27313480372E+02 -0.29235649092E+02 -0.72399684530E+01  0.40659150644E+02  0.00000000000E+00 0.  1.
         11    1    3    3    0    0 -0.67820992198E+01  0.19978669655E+02 -0.48966693798E+01  0.21659212411E+02  0.51100000000E-03 0. -1.
        -11    1    3    3    0    0  0.97253403550E+00  0.16116048537E+01  0.43760153521E+01  0.47636753959E+01  0.51100000000E-03 0.  1.
         12    1    3    3    0    0 -0.21503915187E+02  0.76453745840E+01  0.77606224807E+01  0.24105961549E+02  0.00000000000E+00 0. -1.
</event>
<event>
 7    1  0.2945316E-011  0.5052891E+02  0.7816164E-02  0.1300439E+00
        -11   -1    0    0    0    0  0.00000000000E+00  0.00000000000E+00  0.45593999997E+02  0.45594000000E+02  0.51100000000E-03 0. -1.
         11   -1    0    0    0    0 -0.00000000000E+00 -0.00000000000E+00 -0.45593999997E+02  0.45594000000E+02  0.51100000000E-03 0.  1.
    9900012    2    1    2    0    0 -0.30029731672E+02 -0.23811482742E+02  0.13579038831E+02  0.50528907655E+02  0.30000145309E+02 0.  0.
        -12    1    1    2    0    0  0.30029731672E+02  0.23811482742E+02 -0.13579038831E+02  0.40659092345E+02  0.00000000000E+00 0.  1.
         11    1    3    3    0    0  0.10116691256E+01 -0.78174976956E+01 -0.14503451163E+01  0.80150013012E+01  0.51100000000E-03 0.  1.
        -11    1    3    3    0    0 -0.24433797703E+02 -0.46153720119E+01  0.36785834915E+01  0.25136509419E+02  0.51100000000E-03 0. -1.
         12    1    3    3    0    0 -0.66076030948E+01 -0.11378613035E+02  0.11350800456E+02  0.17377396935E+02  0.00000000000E+00 0. -1.
</event>
<event>
 7    1  0.2945316E-011  0.5052885E+02  0.7816164E-02  0.1300439E+00
        -11   -1    0    0    0    0  0.00000000000E+00  0.00000000000E+00  0.45593999997E+02  0.45594000000E+02  0.51100000000E-03 0.  1.
         11   -1    0    0    0    0 -0.00000000000E+00 -0.00000000000E+00 -0.45593999997E+02  0.45594000000E+02  0.51100000000E-03 0. -1.
    9900012    2    1    2    0    0  0.37110653344E+02 -0.26920776895E+01 -0.16392645115E+02  0.50528847429E+02  0.29999962244E+02 0.  0.
        -12    1    1    2    0    0 -0.37110653344E+02  0.26920776895E+01  0.16392645115E+02  0.40659152571E+02  0.00000000000E+00 0.  1.
         11    1    3    3    0    0 -0.57707508015E+00 -0.43032098007E+01 -0.35868840119E+00  0.43565224511E+01  0.51100000000E-03 0. -1.
        -11    1    3    3    0    0  0.16962686491E+02 -0.97224111351E+01 -0.55136689196E+01  0.20313999027E+02  0.51100000000E-03 0.  1.
         12    1    3    3    0    0  0.20725041934E+02  0.11333543246E+02 -0.10520287795E+02  0.25858325950E+02  0.00000000000E+00 0. -1.
</event>
<event>
 7    1  0.2945316E-011  0.5052886E+02  0.7816164E-02  0.1300439E+00
        -11   -1    0    0    0    0  0.00000000000E+00  0.00000000000E+00  0.45593999997E+02  0.45594000000E+02  0.51100000000E-03 0. -1.
         11   -1    0    0    0    0 -0.00000000000E+00 -0.00000000000E+00 -0.45593999997E+02  0.45594000000E+02  0.51100000000E-03 0.  1.
    9900012    2    1    2    0    0 -0.28974186364E+02 -0.81888315748E+01  0.27324072210E+02  0.50528863755E+02  0.30000011871E+02 0.  0.
        -12    1    1    2    0    0  0.28974186364E+02  0.81888315748E+01 -0.27324072210E+02  0.40659136245E+02  0.00000000000E+00 0.  1.
         11    1    3    3    0    0 -0.13345770484E+02 -0.88475652284E+01  0.90411428320E+01  0.18388345881E+02  0.51100000000E-03 0.  1.
        -11    1    3    3    0    0  0.31723136761E+01  0.46716656923E+01  0.93942050308E+01  0.10960799370E+02  0.51100000000E-03 0. -1.
         12    1    3    3    0    0 -0.18800729557E+02 -0.40129320386E+01  0.88887243470E+01  0.21179718504E+02  0.00000000000E+00 0. -1.
</event>
<event>
 7    1  0.2945316E-011  0.5052885E+02  0.7816164E-02  0.1300439E+00
        -11   -1    0    0    0    0  0.00000000000E+00  0.00000000000E+00  0.45593999997E+02  0.45594000000E+02  0.51100000000E-03 0. -1.
         11   -1    0    0    0    0 -0.00000000000E+00 -0.00000000000E+00 -0.45593999997E+02  0.45594000000E+02  0.51100000000E-03 0.  1.
    9900012    2    1    2    0    0  0.27294053120E+01 -0.36803911521E+02  0.17064251235E+02  0.50528853098E+02  0.29999979476E+02 0.  0.
        -12    1    1    2    0    0 -0.27294053120E+01  0.36803911521E+02 -0.17064251235E+02  0.40659146902E+02  0.00000000000E+00 0.  1.
         11    1    3    3    0    0 -0.90637972677E+00 -0.30985855146E+01  0.37625898367E+01  0.49578058595E+01  0.51100000000E-03 0. -1.
        -11    1    3    3    0    0 -0.59393409606E+01 -0.15763861384E+01 -0.44962483473E+01  0.76142638360E+01  0.51100000000E-03 0.  1.
        -12    1    3    3    0    0  0.95751259993E+01 -0.32128939868E+02  0.17797909746E+02  0.37956783402E+02  0.00000000000E+00 0.  1.
</event>
<event>
 7    1  0.2945316E-011  0.5052886E+02  0.7816164E-02  0.1300439E+00
        -11   -1    0    0    0    0  0.00000000000E+00  0.00000000000E+00  0.45593999997E+02  0.45594000000E+02  0.51100000000E-03 0. -1.
         11   -1    0    0    0    0 -0.00000000000E+00 -0.00000000000E+00 -0.45593999997E+02  0.45594000000E+02  0.51100000000E-03 0.  1.
    9900012    2    1    2    0    0  0.36401780184E+02  0.24689384664E+01  0.17943817963E+02  0.50528857598E+02  0.29999993156E+02 0.  0.
        -12    1    1    2    0    0 -0.36401780184E+02 -0.24689384664E+01 -0.17943817963E+02  0.40659142402E+02  0.00000000000E+00 0.  1.
         11    1    3    3    0    0  0.28502592632E+02 -0.76329669618E+01  0.18817295053E+02  0.34996436458E+02  0.51100000000E-03 0. -1.
        -11    1    3    3    0    0 -0.85437443543E+00  0.45555101078E+01  0.15551027524E+01  0.48888621222E+01  0.51100000000E-03 0.  1.
        -12    1    3    3    0    0  0.87535619879E+01  0.55463953205E+01 -0.24285798423E+01  0.10643559018E+02  0.00000000000E+00 0.  1.
</event>
<event>
 7    1  0.2945316E-011  0.5052884E+02  0.7816164E-02  0.1300439E+00
        -11   -1    0    0    0    0  0.00000000000E+00  0.00000000000E+00  0.45593999997E+02  0.45594000000E+02  0.51100000000E-03 0. -1.
         11   -1    0    0    0    0 -0.00000000000E+00 -0.00000000000E+00 -0.45593999997E+02  0.45594000000E+02  0.51100000000E-03 0.  1.
    9900012    2    1    2    0    0 -0.35000959829E+02 -0.20348785930E+02 -0.37452118423E+01  0.50528844948E+02  0.29999954705E+02 0.  0.
        -12    1    1    2    0    0  0.35000959829E+02  0.20348785930E+02  0.37452118423E+01  0.40659155052E+02  0.00000000000E+00 0.  1.
         11    1    3    3    0    0 -0.19053528275E+02 -0.95775585415E+01  0.13267343228E+01  0.21366487581E+02  0.51100000000E-03 0. -1.
        -11    1    3    3    0    0  0.16832322535E+01 -0.16996432168E+01  0.59954698783E+01  0.64550536176E+01  0.51100000000E-03 0.  1.
         12    1    3    3    0    0 -0.17630663808E+02 -0.90715841713E+01 -0.11067416043E+02  0.22707303749E+02  0.00000000000E+00 0. -1.
</event>
<event>
 7    1  0.2945316E-011  0.5052886E+02  0.7816164E-02  0.1300439E+00
        -11   -1    0    0    0    0  0.00000000000E+00  0.00000000000E+00  0.45593999997E+02  0.45594000000E+02  0.51100000000E-03 0.  1.
         11   -1    0    0    0    0 -0.00000000000E+00 -0.00000000000E+00 -0.45593999997E+02  0.45594000000E+02  0.51100000000E-03 0. -1.
    9900012    2    1    2    0    0  0.93825846682E+01 -0.35944338996E+02 -0.16526857115E+02  0.50528863179E+02  0.30000010119E+02 0.  0.
        -12    1    1    2    0    0 -0.93825846682E+01  0.35944338996E+02  0.16526857115E+02  0.40659136821E+02  0.00000000000E+00 0.  1.
         11    1    3    3    0    0  0.37812935898E+01 -0.10393359829E+02 -0.57219017009E+01  0.12452319828E+02  0.51100000000E-03 0. -1.
        -11    1    3    3    0    0 -0.22946450446E+01 -0.18716066376E+02 -0.17455578439E+02  0.25695403390E+02  0.51100000000E-03 0.  1.
        -12    1    3    3    0    0  0.78959361230E+01 -0.68349127912E+01  0.66506230253E+01  0.12381139962E+02  0.00000000000E+00 0.  1.
</event>
<event>
 7    1  0.2945316E-011  0.5052886E+02  0.7816164E-02  0.1300439E+00
        -11   -1    0    0    0    0  0.00000000000E+00  0.00000000000E+00  0.45593999997E+02  0.45594000000E+02  0.51100000000E-03 0.  1.
         11   -1    0    0    0    0 -0.00000000000E+00 -0.00000000000E+00 -0.45593999997E+02  0.45594000000E+02  0.51100000000E-03 0. -1.
    9900012    2    1    2    0    0 -0.26063088792E+01  0.40332782830E+02  0.44316798470E+01  0.50528855850E+02  0.29999987842E+02 0.  0.
        -12    1    1    2    0    0  0.26063088792E+01 -0.40332782830E+02 -0.44316798470E+01  0.40659144150E+02  0.00000000000E+00 0.  1.
         11    1    3    3    0    0 -0.60207314673E+01  0.18867626412E+02 -0.55800989072E+01  0.20576054965E+02  0.51100000000E-03 0. -1.
        -11    1    3    3    0    0 -0.64346947925E+01  0.79562513818E+01  0.82460106624E+01  0.13141686544E+02  0.51100000000E-03 0.  1.
         12    1    3    3    0    0  0.98491173806E+01  0.13508905036E+02  0.17657680918E+01  0.16811114341E+02  0.00000000000E+00 0. -1.
</event>
<event>
 7    1  0.2945316E-011  0.5052885E+02  0.7816164E-02  0.1300439E+00
        -11   -1    0    0    0    0  0.00000000000E+00  0.00000000000E+00  0.45593999997E+02  0.45594000000E+02  0.51100000000E-03 0. -1.
         11   -1    0    0    0    0 -0.00000000000E+00 -0.00000000000E+00 -0.45593999997E+02  0.45594000000E+02  0.51100000000E-03 0.  1.
    9900012    2    1    2    0    0 -0.32410467540E+02  0.13265315123E+02  0.20658152392E+02  0.50528852791E+02  0.29999978545E+02 0.  0.
        -12    1    1    2    0    0  0.32410467540E+02 -0.13265315123E+02 -0.20658152392E+02  0.40659147209E+02  0.00000000000E+00 0.  1.
         11    1    3    3    0    0 -0.95833408382E+01  0.13890125316E+02  0.13241812086E+02  0.21450444996E+02  0.51100000000E-03 0. -1.
        -11    1    3    3    0    0 -0.20614103273E+01  0.53919535563E+01 -0.10365231602E+01  0.58648918331E+01  0.51100000000E-03 0.  1.
        -12    1    3    3    0    0 -0.20765716375E+02 -0.60167637498E+01  0.84528634655E+01  0.23213515963E+02  0.00000000000E+00 0.  1.
</event>
<event>
 7    1  0.2945316E-011  0.5052884E+02  0.7816164E-02  0.1300439E+00
        -11   -1    0    0    0    0  0.00000000000E+00  0.00000000000E+00  0.45593999997E+02  0.45594000000E+02  0.51100000000E-03 0. -1.
         11   -1    0    0    0    0 -0.00000000000E+00 -0.00000000000E+00 -0.45593999997E+02  0.45594000000E+02  0.51100000000E-03 0.  1.
    9900012    2    1    2    0    0  0.15150551997E+02 -0.99245279551E+01  0.36402359497E+02  0.50528840418E+02  0.29999940935E+02 0.  0.
        -12    1    1    2    0    0 -0.15150551997E+02  0.99245279551E+01 -0.36402359497E+02  0.40659159582E+02  0.00000000000E+00 0.  1.
         11    1    3    3    0    0  0.15060884917E+02 -0.58090605112E+01  0.29649071636E+02  0.33758597240E+02  0.51100000000E-03 0. -1.
        -11    1    3    3    0    0  0.35467708018E+01 -0.86677869150E+01  0.26477880866E+01  0.97324660358E+01  0.51100000000E-03 0.  1.
         12    1    3    3    0    0 -0.34571037214E+01  0.45523194711E+01  0.41054997747E+01  0.70377771425E+01  0.00000000000E+00 0. -1.
</event>
<event>
 7    1  0.2945316E-011  0.5052885E+02  0.7816164E-02  0.1300439E+00
        -11   -1    0    0    0    0  0.00000000000E+00  0.00000000000E+00  0.45593999997E+02  0.45594000000E+02  0.51100000000E-03 0.  1.
         11   -1    0    0    0    0 -0.00000000000E+00 -0.00000000000E+00 -0.45593999997E+02  0.45594000000E+02  0.51100000000E-03 0. -1.
    9900012    2    1    2    0    0  0.33541266493E+02  0.33284315492E+01  0.22739208201E+02  0.50528848457E+02  0.29999965371E+02 0.  0.
        -12    1    1    2    0    0 -0.33541266493E+02 -0.33284315492E+01 -0.22739208201E+02  0.40659151543E+02  0.00000000000E+00 0.  1.
         11    1    3    3    0    0  0.59782936509E+01  0.25078854159E+01 -0.34407382776E+01  0.73394934697E+01  0.51100000000E-03 0. -1.
        -11    1    3    3    0    0  0.11132072548E+02  0.74270210508E+01  0.24902086558E+01  0.13611936685E+02  0.51100000000E-03 0.  1.
        -12    1    3    3    0    0  0.16430900294E+02 -0.66064749175E+01  0.23689737823E+02  0.29577418302E+02  0.00000000000E+00 0.  1.
</event>
<event>
 7    1  0.2945316E-011  0.5052890E+02  0.7816164E-02  0.1300439E+00
        -11   -1    0    0    0    0  0.00000000000E+00  0.00000000000E+00  0.45593999997E+02  0.45594000000E+02  0.51100000000E-03 0.  1.
         11   -1    0    0    0    0 -0.00000000000E+00 -0.00000000000E+00 -0.45593999997E+02  0.45594000000E+02  0.51100000000E-03 0. -1.
    9900012    2    1    2    0    0  0.30510545437E+02  0.12936127263E+02  0.23556861626E+02  0.50528898914E+02  0.30000118738E+02 0.  0.
        -12    1    1    2    0    0 -0.30510545437E+02 -0.12936127263E+02 -0.23556861626E+02  0.40659101086E+02  0.00000000000E+00 0.  1.
         11    1    3    3    0    0  0.19218404774E+01  0.21721949892E+01  0.20717723560E+01  0.35642871444E+01  0.51100000000E-03 0. -1.
        -11    1    3    3    0    0  0.11405309884E+02  0.75435309366E+01  0.25582992277E+02  0.29008196198E+02  0.51100000000E-03 0.  1.
         12    1    3    3    0    0  0.17183395076E+02  0.32204013375E+01 -0.40979030069E+01  0.17956415571E+02  0.00000000000E+00 0. -1.
</event>
<event>
 7    1  0.2945316E-011  0.5052887E+02  0.7816164E-02  0.1300439E+00
        -11   -1    0    0    0    0  0.00000000000E+00  0.00000000000E+00  0.45593999997E+02  0.45594000000E+02  0.51100000000E-03 0.  1.
         11   -1    0    0    0    0 -0.00000000000E+00 -0.00000000000E+00 -0.45593999997E+02  0.45594000000E+02  0.51100000000E-03 0. -1.
    9900012    2    1    2    0    0  0.28076352744E+02 -0.34306920686E+01 -0.29208114590E+02  0.50528865855E+02  0.30000018253E+02 0.  0.
        -12    1    1    2    0    0 -0.28076352744E+02  0.34306920686E+01  0.29208114590E+02  0.40659134145E+02  0.00000000000E+00 0.  1.
         11    1    3    3    0    0  0.11737725852E+02  0.93424265047E+00  0.76651519934E+00  0.11799769630E+02  0.51100000000E-03 0. -1.
        -11    1    3    3    0    0  0.90237641303E+01  0.43356901848E+01 -0.47903280876E+01  0.11098367984E+02  0.51100000000E-03 0.  1.
        -12    1    3    3    0    0  0.73148627623E+01 -0.87006249039E+01 -0.25184301702E+02  0.27630728242E+02  0.00000000000E+00 0.  1.
</event>
<event>
 7    1  0.2945316E-011  0.5052886E+02  0.7816164E-02  0.1300439E+00
        -11   -1    0    0    0    0  0.00000000000E+00  0.00000000000E+00  0.45593999997E+02  0.45594000000E+02  0.51100000000E-03 0. -1.
         11   -1    0    0    0    0 -0.00000000000E+00 -0.00000000000E+00 -0.45593999997E+02  0.45594000000E+02  0.51100000000E-03 0.  1.
    9900012    2    1    2    0    0 -0.15526848035E+02  0.32034097348E+02  0.19644318833E+02  0.50528860004E+02  0.30000000468E+02 0.  0.
        -12    1    1    2    0    0  0.15526848035E+02 -0.32034097348E+02 -0.19644318833E+02  0.40659139996E+02  0.00000000000E+00 0.  1.
         11    1    3    3    0    0 -0.29862453435E+01  0.16462844159E+02 -0.66505007437E+00  0.16744706355E+02  0.51100000000E-03 0. -1.
        -11    1    3    3    0    0 -0.24866407982E+01  0.80242924540E+01 -0.15739343240E+01  0.85469246729E+01  0.51100000000E-03 0.  1.
         12    1    3    3    0    0 -0.10053961894E+02  0.75469607351E+01  0.21883303231E+02  0.25237228976E+02  0.00000000000E+00 0. -1.
</event>
<event>
 7    1  0.2945316E-011  0.5052886E+02  0.7816164E-02  0.1300439E+00
        -11   -1    0    0    0    0  0.00000000000E+00  0.00000000000E+00  0.45593999997E+02  0.45594000000E+02  0.51100000000E-03 0.  1.
         11   -1    0    0    0    0 -0.00000000000E+00 -0.00000000000E+00 -0.45593999997E+02  0.45594000000E+02  0.51100000000E-03 0. -1.
    9900012    2    1    2    0    0  0.39652030240E+02  0.89778872320E+01 -0.52864845323E+00  0.50528862890E+02  0.30000009241E+02 0.  0.
        -12    1    1    2    0    0 -0.39652030240E+02 -0.89778872320E+01  0.52864845323E+00  0.40659137110E+02  0.00000000000E+00 0.  1.
         11    1    3    3    0    0  0.23269183717E+02  0.40623923154E+00 -0.11683505549E+02  0.26040818792E+02  0.51100000000E-03 0. -1.
        -11    1    3    3    0    0  0.78104780014E+01  0.88003820069E+00 -0.78462139901E+00  0.78989660618E+01  0.51100000000E-03 0.  1.
        -12    1    3    3    0    0  0.85723685218E+01  0.76916097998E+01  0.11939478494E+02  0.16589078037E+02  0.00000000000E+00 0.  1.
</event>
<event>
 7    1  0.2945316E-011  0.5052886E+02  0.7816164E-02  0.1300439E+00
        -11   -1    0    0    0    0  0.00000000000E+00  0.00000000000E+00  0.45593999997E+02  0.45594000000E+02  0.51100000000E-03 0. -1.
         11   -1    0    0    0    0 -0.00000000000E+00 -0.00000000000E+00 -0.45593999997E+02  0.45594000000E+02  0.51100000000E-03 0.  1.
    9900012    2    1    2    0    0 -0.62988670615E+01  0.25998157453E+01  0.40084048740E+02  0.50528859188E+02  0.29999997987E+02 0.  0.
        -12    1    1    2    0    0  0.62988670615E+01 -0.25998157453E+01 -0.40084048740E+02  0.40659140812E+02  0.00000000000E+00 0.  1.
         11    1    3    3    0    0 -0.25955883000E+01  0.84316833861E+01  0.54138504252E+01  0.10350852140E+02  0.51100000000E-03 0. -1.
        -11    1    3    3    0    0 -0.53418054005E+01 -0.45775768407E+01  0.18245508852E+01  0.72676048918E+01  0.51100000000E-03 0.  1.
         12    1    3    3    0    0  0.16385266390E+01 -0.12542908001E+01  0.32845647430E+02  0.32910402156E+02  0.00000000000E+00 0. -1.
</event>
<event>
 7    1  0.2945316E-011  0.5052886E+02  0.7816164E-02  0.1300439E+00
        -11   -1    0    0    0    0  0.00000000000E+00  0.00000000000E+00  0.45593999997E+02  0.45594000000E+02  0.51100000000E-03 0. -1.
         11   -1    0    0    0    0 -0.00000000000E+00 -0.00000000000E+00 -0.45593999997E+02  0.45594000000E+02  0.51100000000E-03 0.  1.
    9900012    2    1    2    0    0  0.15779108314E+02  0.30040278416E+02  0.22400166726E+02  0.50528855200E+02  0.29999985867E+02 0.  0.
        -12    1    1    2    0    0 -0.15779108314E+02 -0.30040278416E+02 -0.22400166726E+02  0.40659144800E+02  0.00000000000E+00 0.  1.
         11    1    3    3    0    0  0.15404231318E+01 -0.16794442083E+01  0.23568681286E+01  0.32784545003E+01  0.51100000000E-03 0.  1.
        -11    1    3    3    0    0  0.82984527849E+01 -0.12160560527E+01  0.82541575259E+01  0.11767507284E+02  0.51100000000E-03 0. -1.
        -12    1    3    3    0    0  0.59402323975E+01  0.32935778677E+02  0.11789141071E+02  0.35482893416E+02  0.00000000000E+00 0.  1.
</event>
<event>
 7    1  0.2945316E-011  0.5052889E+02  0.7816164E-02  0.1300439E+00
        -11   -1    0    0    0    0  0.00000000000E+00  0.00000000000E+00  0.45593999997E+02  0.45594000000E+02  0.51100000000E-03 0.  1.
         11   -1    0    0    0    0 -0.00000000000E+00 -0.00000000000E+00 -0.45593999997E+02  0.45594000000E+02  0.51100000000E-03 0. -1.
    9900012    2    1    2    0    0 -0.55816779076E+00  0.79387664722E+01 -0.39872647408E+02  0.50528885699E+02  0.30000078571E+02 0.  0.
        -12    1    1    2    0    0  0.55816779076E+00 -0.79387664722E+01  0.39872647408E+02  0.40659114301E+02  0.00000000000E+00 0.  1.
         11    1    3    3    0    0  0.24298602536E+01 -0.27985195798E+01 -0.76909681903E+01  0.85373839469E+01  0.51100000000E-03 0. -1.
        -11    1    3    3    0    0  0.69489535283E+01  0.13730422278E+01 -0.54824896807E-01  0.70835165087E+01  0.51100000000E-03 0.  1.
         12    1    3    3    0    0 -0.99369815727E+01  0.93642438242E+01 -0.32126854321E+02  0.34907985243E+02  0.00000000000E+00 0. -1.
</event>
<event>
 7    1  0.2945316E-011  0.5052886E+02  0.7816164E-02  0.1300439E+00
        -11   -1    0    0    0    0  0.00000000000E+00  0.00000000000E+00  0.45593999997E+02  0.45594000000E+02  0.51100000000E-03 0. -1.
         11   -1    0    0    0    0 -0.00000000000E+00 -0.00000000000E+00 -0.45593999997E+02  0.45594000000E+02  0.51100000000E-03 0.  1.
    9900012    2    1    2    0    0 -0.41425358610E+01 -0.57787968712E+01  0.40032617162E+02  0.50528861624E+02  0.30000005394E+02 0.  0.
        -12    1    1    2    0    0  0.41425358610E+01  0.57787968712E+01 -0.40032617162E+02  0.40659138376E+02  0.00000000000E+00 0.  1.
         11    1    3    3    0    0 -0.80728818743E+01  0.35116429017E+01  0.70136021403E+01  0.11255828396E+02  0.51100000000E-03 0.  1.
        -11    1    3    3    0    0 -0.20189932425E+01  0.95865404108E+00  0.24683398147E+02  0.24784380073E+02  0.51100000000E-03 0. -1.
         12    1    3    3    0    0  0.59493392557E+01 -0.10249093814E+02  0.83356168746E+01  0.14488653156E+02  0.00000000000E+00 0. -1.
</event>
<event>
 7    1  0.2945316E-011  0.5052886E+02  0.7816164E-02  0.1300439E+00
        -11   -1    0    0    0    0  0.00000000000E+00  0.00000000000E+00  0.45593999997E+02  0.45594000000E+02  0.51100000000E-03 0.  1.
         11   -1    0    0    0    0 -0.00000000000E+00 -0.00000000000E+00 -0.45593999997E+02  0.45594000000E+02  0.51100000000E-03 0. -1.
    9900012    2    1    2    0    0 -0.42429706215E+01  0.32992250885E+01 -0.40302329250E+02  0.50528862911E+02  0.30000009304E+02 0.  0.
        -12    1    1    2    0    0  0.42429706215E+01 -0.32992250885E+01  0.40302329250E+02  0.40659137089E+02  0.00000000000E+00 0.  1.
         11    1    3    3    0    0 -0.49839110163E+01  0.11745955413E+02 -0.37158069491E+02  0.39287771203E+02  0.51100000000E-03 0. -1.
        -11    1    3    3    0    0 -0.27658551479E+01 -0.39492156826E+01 -0.20658577429E+00  0.48258612858E+01  0.51100000000E-03 0.  1.
        -12    1    3    3    0    0  0.35067955426E+01 -0.44975146415E+01 -0.29376739844E+01  0.64152304219E+01  0.00000000000E+00 0.  1.
</event>
<event>
 7    1  0.2945316E-011  0.5052886E+02  0.7816164E-02  0.1300439E+00
        -11   -1    0    0    0    0  0.00000000000E+00  0.00000000000E+00  0.45593999997E+02  0.45594000000E+02  0.51100000000E-03 0.  1.
         11   -1    0    0    0    0 -0.00000000000E+00 -0.00000000000E+00 -0.45593999997E+02  0.45594000000E+02  0.51100000000E-03 0. -1.
    9900012    2    1    2    0    0  0.24953018735E+02 -0.23843816655E+02 -0.21493828017E+02  0.50528863518E+02  0.30000011149E+02 0.  0.
        -12    1    1    2    0    0 -0.24953018735E+02  0.23843816655E+02  0.21493828017E+02  0.40659136482E+02  0.00000000000E+00 0.  1.
         11    1    3    3    0    0  0.17931174451E+02 -0.15547113817E+02 -0.13053250432E+02  0.27085551726E+02  0.51100000000E-03 0. -1.
        -11    1    3    3    0    0 -0.32398567706E+01  0.34889118563E+01 -0.59477634493E+01  0.76187314000E+01  0.51100000000E-03 0.  1.
         12    1    3    3    0    0  0.10261701054E+02 -0.11785614695E+02 -0.24928141364E+01  0.15824580392E+02  0.00000000000E+00 0. -1.
</event>
<event>
 7    1  0.2945316E-011  0.5052876E+02  0.7816164E-02  0.1300439E+00
        -11   -1    0    0    0    0  0.00000000000E+00  0.00000000000E+00  0.45593999997E+02  0.45594000000E+02  0.51100000000E-03 0.  1.
         11   -1    0    0    0    0 -0.00000000000E+00 -0.00000000000E+00 -0.45593999997E+02  0.45594000000E+02  0.51100000000E-03 0. -1.
    9900012    2    1    2    0    0  0.19917721588E+02  0.30879614477E+02 -0.17404245084E+02  0.50528757871E+02  0.29999690023E+02 0.  0.
        -12    1    1    2    0    0 -0.19917721588E+02 -0.30879614477E+02  0.17404245084E+02  0.40659242129E+02  0.00000000000E+00 0.  1.
         11    1    3    3    0    0  0.10412591973E+02  0.22271559228E+02 -0.47755301028E+01  0.25044961771E+02  0.51100000000E-03 0. -1.
        -11    1    3    3    0    0  0.30575242658E+01  0.91734422100E+01  0.16475119048E+01  0.98089139232E+01  0.51100000000E-03 0.  1.
        -12    1    3    3    0    0  0.64476053494E+01 -0.56538696114E+00 -0.14276226886E+02  0.15674882177E+02  0.00000000000E+00 0.  1.
</event>
<event>
 7    1  0.2945316E-011  0.5052886E+02  0.7816164E-02  0.1300439E+00
        -11   -1    0    0    0    0  0.00000000000E+00  0.00000000000E+00  0.45593999997E+02  0.45594000000E+02  0.51100000000E-03 0.  1.
         11   -1    0    0    0    0 -0.00000000000E+00 -0.00000000000E+00 -0.45593999997E+02  0.45594000000E+02  0.51100000000E-03 0. -1.
    9900012    2    1    2    0    0 -0.27235767369E+02  0.30090097821E+02 -0.24422375707E+01  0.50528861601E+02  0.30000005321E+02 0.  0.
        -12    1    1    2    0    0  0.27235767369E+02 -0.30090097821E+02  0.24422375707E+01  0.40659138399E+02  0.00000000000E+00 0.  1.
         11    1    3    3    0    0 -0.13547570025E+02  0.14510527956E+01  0.47544552123E+01  0.14430767561E+02  0.51100000000E-03 0. -1.
        -11    1    3    3    0    0 -0.57055565395E+01  0.15930230682E+02  0.39833183009E+01  0.17383683440E+02  0.51100000000E-03 0.  1.
         12    1    3    3    0    0 -0.79826408048E+01  0.12708814344E+02 -0.11180011084E+02  0.18714410599E+02  0.00000000000E+00 0. -1.
</event>
<event>
 7    1  0.2945316E-011  0.5052885E+02  0.7816164E-02  0.1300439E+00
        -11   -1    0    0    0    0  0.00000000000E+00  0.00000000000E+00  0.45593999997E+02  0.45594000000E+02  0.51100000000E-03 0.  1.
         11   -1    0    0    0    0 -0.00000000000E+00 -0.00000000000E+00 -0.45593999997E+02  0.45594000000E+02  0.51100000000E-03 0. -1.
    9900012    2    1    2    0    0 -0.78085614795E+01 -0.14802009581E+02 -0.37055278858E+02  0.50528845910E+02  0.29999957630E+02 0.  0.
        -12    1    1    2    0    0  0.78085614795E+01  0.14802009581E+02  0.37055278858E+02  0.40659154090E+02  0.00000000000E+00 0.  1.
         11    1    3    3    0    0 -0.26807464175E+01 -0.69527542588E+01 -0.14564693147E+02  0.16360240825E+02  0.51100000000E-03 0. -1.
        -11    1    3    3    0    0  0.79271631355E+01 -0.60088950245E+01 -0.25588602044E+01  0.10271051582E+02  0.51100000000E-03 0.  1.
         12    1    3    3    0    0 -0.13054978197E+02 -0.18403602979E+01 -0.19931725507E+02  0.23897553504E+02  0.00000000000E+00 0. -1.
</event>
<event>
 7    1  0.2945316E-011  0.5052886E+02  0.7816164E-02  0.1300439E+00
        -11   -1    0    0    0    0  0.00000000000E+00  0.00000000000E+00  0.45593999997E+02  0.45594000000E+02  0.51100000000E-03 0. -1.
         11   -1    0    0    0    0 -0.00000000000E+00 -0.00000000000E+00 -0.45593999997E+02  0.45594000000E+02  0.51100000000E-03 0.  1.
    9900012    2    1    2    0    0 -0.18415313013E+02  0.36021622713E+02 -0.40601424256E+01  0.50528858189E+02  0.29999994953E+02 0.  0.
        -12    1    1    2    0    0  0.18415313013E+02 -0.36021622713E+02  0.40601424256E+01  0.40659141811E+02  0.00000000000E+00 0.  1.
         11    1    3    3    0    0 -0.25592758422E+01  0.53745109763E+01  0.32319204749E+01  0.67735198596E+01  0.51100000000E-03 0. -1.
        -11    1    3    3    0    0 -0.19413693315E+02  0.32953652572E+02 -0.41365837998E+01  0.38470066698E+02  0.51100000000E-03 0.  1.
        -12    1    3    3    0    0  0.35576561440E+01 -0.23065408355E+01 -0.31554791006E+01  0.52852716315E+01  0.00000000000E+00 0.  1.
</event>
<event>
 7    1  0.2945316E-011  0.5052886E+02  0.7816164E-02  0.1300439E+00
        -11   -1    0    0    0    0  0.00000000000E+00  0.00000000000E+00  0.45593999997E+02  0.45594000000E+02  0.51100000000E-03 0.  1.
         11   -1    0    0    0    0 -0.00000000000E+00 -0.00000000000E+00 -0.45593999997E+02  0.45594000000E+02  0.51100000000E-03 0. -1.
    9900012    2    1    2    0    0 -0.12829865736E+02  0.17200166723E+02 -0.34535701607E+02  0.50528857417E+02  0.29999992605E+02 0.  0.
        -12    1    1    2    0    0  0.12829865736E+02 -0.17200166723E+02  0.34535701607E+02  0.40659142583E+02  0.00000000000E+00 0.  1.
         11    1    3    3    0    0 -0.25138948436E+01  0.66802046220E+01 -0.15897841395E+01  0.73124698255E+01  0.51100000000E-03 0. -1.
        -11    1    3    3    0    0  0.58917299434E+01  0.92183426543E+01 -0.84884911107E+01  0.13847194828E+02  0.51100000000E-03 0.  1.
        -12    1    3    3    0    0 -0.16207700835E+02  0.13016194464E+01 -0.24457426357E+02  0.29369192763E+02  0.00000000000E+00 0.  1.
</event>
<event>
 7    1  0.2945316E-011  0.5052886E+02  0.7816164E-02  0.1300439E+00
        -11   -1    0    0    0    0  0.00000000000E+00  0.00000000000E+00  0.45593999997E+02  0.45594000000E+02  0.51100000000E-03 0. -1.
         11   -1    0    0    0    0 -0.00000000000E+00 -0.00000000000E+00 -0.45593999997E+02  0.45594000000E+02  0.51100000000E-03 0.  1.
    9900012    2    1    2    0    0  0.30124210376E+01  0.39670445093E+02  0.83873149656E+01  0.50528856542E+02  0.29999989945E+02 0.  0.
        -12    1    1    2    0    0 -0.30124210376E+01 -0.39670445093E+02 -0.83873149656E+01  0.40659143458E+02  0.00000000000E+00 0.  1.
         11    1    3    3    0    0  0.33146162775E+01  0.11099911905E+02  0.45295247227E+01  0.12438300521E+02  0.51100000000E-03 0.  1.
        -11    1    3    3    0    0  0.18701527582E+01  0.32679197349E+02  0.12393994461E+01  0.32756121901E+02  0.51100000000E-03 0. -1.
        -12    1    3    3    0    0 -0.21723479981E+01 -0.41086641613E+01  0.26183907969E+01  0.53344341200E+01  0.00000000000E+00 0.  1.
</event>
<event>
 7    1  0.2945316E-011  0.5052886E+02  0.7816164E-02  0.1300439E+00
        -11   -1    0    0    0    0  0.00000000000E+00  0.00000000000E+00  0.45593999997E+02  0.45594000000E+02  0.51100000000E-03 0. -1.
         11   -1    0    0    0    0 -0.00000000000E+00 -0.00000000000E+00 -0.45593999997E+02  0.45594000000E+02  0.51100000000E-03 0.  1.
    9900012    2    1    2    0    0  0.21690547990E+01 -0.25513800999E+02  0.31583325312E+02  0.50528864767E+02  0.30000014947E+02 0.  0.
        -12    1    1    2    0    0 -0.21690547990E+01  0.25513800999E+02 -0.31583325312E+02  0.40659135233E+02  0.00000000000E+00 0.  1.
         11    1    3    3    0    0  0.39544083701E+01 -0.15458371728E+02  0.44273276593E+01  0.16558980418E+02  0.51100000000E-03 0. -1.
        -11    1    3    3    0    0 -0.16137644029E+00 -0.12023570657E+02  0.75497115874E+01  0.14198254788E+02  0.51100000000E-03 0.  1.
        -12    1    3    3    0    0 -0.16239771308E+01  0.19681413862E+01  0.19606286065E+02  0.19771629561E+02  0.00000000000E+00 0.  1.
</event>
<event>
 7    1  0.2945316E-011  0.5052883E+02  0.7816164E-02  0.1300439E+00
        -11   -1    0    0    0    0  0.00000000000E+00  0.00000000000E+00  0.45593999997E+02  0.45594000000E+02  0.51100000000E-03 0.  1.
         11   -1    0    0    0    0 -0.00000000000E+00 -0.00000000000E+00 -0.45593999997E+02  0.45594000000E+02  0.51100000000E-03 0. -1.
    9900012    2    1    2    0    0  0.21095954231E+02  0.23560704038E+02 -0.25554297892E+02  0.50528828827E+02  0.29999905703E+02 0.  0.
        -12    1    1    2    0    0 -0.21095954231E+02 -0.23560704038E+02  0.25554297892E+02  0.40659171173E+02  0.00000000000E+00 0.  1.
         11    1    3    3    0    0  0.48135185858E+01  0.11037954125E+02 -0.75369410377E+00  0.12065423635E+02  0.51100000000E-03 0. -1.
        -11    1    3    3    0    0 -0.24305356356E+01  0.10178691079E+02 -0.75445849069E+01  0.12900930867E+02  0.51100000000E-03 0.  1.
         12    1    3    3    0    0  0.18712971281E+02  0.23440588344E+01 -0.17256018882E+02  0.25562474325E+02  0.00000000000E+00 0. -1.
</event>
<event>
 7    1  0.2945316E-011  0.5052887E+02  0.7816164E-02  0.1300439E+00
        -11   -1    0    0    0    0  0.00000000000E+00  0.00000000000E+00  0.45593999997E+02  0.45594000000E+02  0.51100000000E-03 0. -1.
         11   -1    0    0    0    0 -0.00000000000E+00 -0.00000000000E+00 -0.45593999997E+02  0.45594000000E+02  0.51100000000E-03 0.  1.
    9900012    2    1    2    0    0  0.67192073291E+01 -0.39617651581E+02 -0.62015216631E+01  0.50528868986E+02  0.30000027769E+02 0.  0.
        -12    1    1    2    0    0 -0.67192073291E+01  0.39617651581E+02  0.62015216631E+01  0.40659131014E+02  0.00000000000E+00 0.  1.
         11    1    3    3    0    0  0.51219432684E+01 -0.22407467716E+02  0.76825869120E+01  0.24235326575E+02  0.51100000000E-03 0. -1.
        -11    1    3    3    0    0  0.93364743765E+00 -0.18892933547E+02 -0.87340018004E+01  0.20835004758E+02  0.51100000000E-03 0.  1.
        -12    1    3    3    0    0  0.66361662305E+00  0.16827496823E+01 -0.51501067748E+01  0.54585376528E+01  0.00000000000E+00 0.  1.
</event>
<event>
 7    1  0.2945316E-011  0.5052887E+02  0.7816164E-02  0.1300439E+00
        -11   -1    0    0    0    0  0.00000000000E+00  0.00000000000E+00  0.45593999997E+02  0.45594000000E+02  0.51100000000E-03 0. -1.
         11   -1    0    0    0    0 -0.00000000000E+00 -0.00000000000E+00 -0.45593999997E+02  0.45594000000E+02  0.51100000000E-03 0.  1.
    9900012    2    1    2    0    0  0.89347724475E+01 -0.37637642680E+02 -0.12519691515E+02  0.50528868420E+02  0.30000026051E+02 0.  0.
        -12    1    1    2    0    0 -0.89347724475E+01  0.37637642680E+02  0.12519691515E+02  0.40659131580E+02  0.00000000000E+00 0.  1.
         11    1    3    3    0    0  0.52812560631E+01 -0.68974444396E+01 -0.12534648472E+02  0.15250698934E+02  0.51100000000E-03 0. -1.
        -11    1    3    3    0    0 -0.53422078004E+01 -0.32211835591E+01 -0.94972744062E+00  0.63100863842E+01  0.51100000000E-03 0.  1.
         12    1    3    3    0    0  0.89957241848E+01 -0.27519014681E+02  0.96468439747E+00  0.28968083102E+02  0.00000000000E+00 0. -1.
</event>
<event>
 7    1  0.2945316E-011  0.5052885E+02  0.7816164E-02  0.1300439E+00
        -11   -1    0    0    0    0  0.00000000000E+00  0.00000000000E+00  0.45593999997E+02  0.45594000000E+02  0.51100000000E-03 0. -1.
         11   -1    0    0    0    0 -0.00000000000E+00 -0.00000000000E+00 -0.45593999997E+02  0.45594000000E+02  0.51100000000E-03 0.  1.
    9900012    2    1    2    0    0 -0.39165306067E+02 -0.90618954292E+01  0.60931944717E+01  0.50528853834E+02  0.29999981713E+02 0.  0.
        -12    1    1    2    0    0  0.39165306067E+02  0.90618954292E+01 -0.60931944717E+01  0.40659146166E+02  0.00000000000E+00 0.  1.
         11    1    3    3    0    0 -0.11210195761E+02 -0.39501787807E+01 -0.56411129391E+01  0.13156540459E+02  0.51100000000E-03 0.  1.
        -11    1    3    3    0    0 -0.20503974861E+02 -0.80202999139E+01 -0.13266500912E+01  0.22056704118E+02  0.51100000000E-03 0. -1.
        -12    1    3    3    0    0 -0.74511354450E+01  0.29085832654E+01  0.13060957502E+02  0.15315609257E+02  0.00000000000E+00 0.  1.
</event>
<event>
 7    1  0.2945316E-011  0.5052883E+02  0.7816164E-02  0.1300439E+00
        -11   -1    0    0    0    0  0.00000000000E+00  0.00000000000E+00  0.45593999997E+02  0.45594000000E+02  0.51100000000E-03 0. -1.
         11   -1    0    0    0    0 -0.00000000000E+00 -0.00000000000E+00 -0.45593999997E+02  0.45594000000E+02  0.51100000000E-03 0.  1.
    9900012    2    1    2    0    0  0.28298680822E+02  0.26376599451E+02 -0.12515092337E+02  0.50528832878E+02  0.29999918015E+02 0.  0.
        -12    1    1    2    0    0 -0.28298680822E+02 -0.26376599451E+02  0.12515092337E+02  0.40659167122E+02  0.00000000000E+00 0.  1.
         11    1    3    3    0    0  0.78299068924E+01  0.38745360663E+00 -0.63328045676E+01  0.10077796197E+02  0.51100000000E-03 0. -1.
        -11    1    3    3    0    0  0.19048497043E+02  0.65609348599E+01 -0.47581658988E+00  0.20152357368E+02  0.51100000000E-03 0.  1.
        -12    1    3    3    0    0  0.14202768875E+01  0.19428210984E+02 -0.57064711798E+01  0.20298679312E+02  0.00000000000E+00 0.  1.
</event>
<event>
 7    1  0.2945316E-011  0.5052887E+02  0.7816164E-02  0.1300439E+00
        -11   -1    0    0    0    0  0.00000000000E+00  0.00000000000E+00  0.45593999997E+02  0.45594000000E+02  0.51100000000E-03 0.  1.
         11   -1    0    0    0    0 -0.00000000000E+00 -0.00000000000E+00 -0.45593999997E+02  0.45594000000E+02  0.51100000000E-03 0. -1.
    9900012    2    1    2    0    0 -0.34105879577E+02  0.90937190300E+01 -0.20180646507E+02  0.50528865222E+02  0.30000016328E+02 0.  0.
        -12    1    1    2    0    0  0.34105879577E+02 -0.90937190300E+01  0.20180646507E+02  0.40659134778E+02  0.00000000000E+00 0.  1.
         11    1    3    3    0    0 -0.69488977866E+01 -0.30757038887E+01 -0.16829481901E+02  0.18465605763E+02  0.51100000000E-03 0.  1.
        -11    1    3    3    0    0 -0.41845851951E+01 -0.10837358885E+01 -0.34678061961E+01  0.55417431198E+01  0.51100000000E-03 0. -1.
        -12    1    3    3    0    0 -0.22972396595E+02  0.13253158807E+02  0.11664159040E+00  0.26521516339E+02  0.00000000000E+00 0.  1.
</event>
<event>
 7    1  0.2945316E-011  0.5052885E+02  0.7816164E-02  0.1300439E+00
        -11   -1    0    0    0    0  0.00000000000E+00  0.00000000000E+00  0.45593999997E+02  0.45594000000E+02  0.51100000000E-03 0.  1.
         11   -1    0    0    0    0 -0.00000000000E+00 -0.00000000000E+00 -0.45593999997E+02  0.45594000000E+02  0.51100000000E-03 0. -1.
    9900012    2    1    2    0    0  0.23511491968E+02  0.27238640364E+02 -0.18932320787E+02  0.50528849076E+02  0.29999967252E+02 0.  0.
        -12    1    1    2    0    0 -0.23511491968E+02 -0.27238640364E+02  0.18932320787E+02  0.40659150924E+02  0.00000000000E+00 0.  1.
         11    1    3    3    0    0 -0.76404443959E+00 -0.30942755500E+01 -0.40303365201E+01  0.51382796549E+01  0.51100000000E-03 0. -1.
        -11    1    3    3    0    0 -0.22845698035E+01  0.36252195019E+00  0.69398993555E+00  0.24150162822E+01  0.51100000000E-03 0.  1.
         12    1    3    3    0    0  0.26560106211E+02  0.29970393964E+02 -0.15595974203E+02  0.42975553139E+02  0.00000000000E+00 0. -1.
</event>
<event>
 7    1  0.2945316E-011  0.5052888E+02  0.7816164E-02  0.1300439E+00
        -11   -1    0    0    0    0  0.00000000000E+00  0.00000000000E+00  0.45593999997E+02  0.45594000000E+02  0.51100000000E-03 0. -1.
         11   -1    0    0    0    0 -0.00000000000E+00 -0.00000000000E+00 -0.45593999997E+02  0.45594000000E+02  0.51100000000E-03 0.  1.
    9900012    2    1    2    0    0  0.14563770130E+02 -0.36327066816E+02  0.11018389252E+02  0.50528879429E+02  0.30000059513E+02 0.  0.
        -12    1    1    2    0    0 -0.14563770130E+02  0.36327066816E+02 -0.11018389252E+02  0.40659120571E+02  0.00000000000E+00 0.  1.
         11    1    3    3    0    0 -0.51748249134E+00  0.24607877047E+01  0.32155199907E+01  0.40820133915E+01  0.51100000000E-03 0.  1.
        -11    1    3    3    0    0  0.15576925411E+02 -0.26792734457E+02 -0.18429307860E+01  0.31046539567E+02  0.51100000000E-03 0. -1.
         12    1    3    3    0    0 -0.49567278889E+00 -0.11995120064E+02  0.96458000468E+01  0.15400326471E+02  0.00000000000E+00 0. -1.
</event>
<event>
 7    1  0.2945316E-011  0.5052886E+02  0.7816164E-02  0.1300439E+00
        -11   -1    0    0    0    0  0.00000000000E+00  0.00000000000E+00  0.45593999997E+02  0.45594000000E+02  0.51100000000E-03 0. -1.
         11   -1    0    0    0    0 -0.00000000000E+00 -0.00000000000E+00 -0.45593999997E+02  0.45594000000E+02  0.51100000000E-03 0.  1.
    9900012    2    1    2    0    0 -0.29767004432E+01  0.36580711299E+02  0.17497337936E+02  0.50528855648E+02  0.29999987226E+02 0.  0.
        -12    1    1    2    0    0  0.29767004432E+01 -0.36580711299E+02 -0.17497337936E+02  0.40659144352E+02  0.00000000000E+00 0.  1.
         11    1    3    3    0    0 -0.60350176323E+01  0.20458280025E+01  0.64955965086E+01  0.90994298888E+01  0.51100000000E-03 0. -1.
        -11    1    3    3    0    0  0.55515768518E-01 -0.25928508449E+01  0.13326095871E-01  0.25934793907E+01  0.51100000000E-03 0.  1.
        -12    1    3    3    0    0  0.30028014206E+01  0.37127734141E+02  0.10988415331E+02  0.38835946368E+02  0.00000000000E+00 0.  1.
</event>
<event>
 7    1  0.2945316E-011  0.5052886E+02  0.7816164E-02  0.1300439E+00
        -11   -1    0    0    0    0  0.00000000000E+00  0.00000000000E+00  0.45593999997E+02  0.45594000000E+02  0.51100000000E-03 0. -1.
         11   -1    0    0    0    0 -0.00000000000E+00 -0.00000000000E+00 -0.45593999997E+02  0.45594000000E+02  0.51100000000E-03 0.  1.
    9900012    2    1    2    0    0  0.10649639697E+02  0.32187919573E+02  0.22443014507E+02  0.50528857212E+02  0.29999991981E+02 0.  0.
        -12    1    1    2    0    0 -0.10649639697E+02 -0.32187919573E+02 -0.22443014507E+02  0.40659142788E+02  0.00000000000E+00 0.  1.
         11    1    3    3    0    0 -0.23209231520E+01  0.82071614540E+01  0.12710335111E+02  0.15306756754E+02  0.51100000000E-03 0. -1.
        -11    1    3    3    0    0 -0.70443341593E+00  0.47140902202E+01  0.10555009547E+02  0.11581325478E+02  0.51100000000E-03 0.  1.
        -12    1    3    3    0    0  0.13674996265E+02  0.19266667899E+02 -0.82233015078E+00  0.23640774980E+02  0.00000000000E+00 0.  1.
</event>
<event>
 7    1  0.2945316E-011  0.5052886E+02  0.7816164E-02  0.1300439E+00
        -11   -1    0    0    0    0  0.00000000000E+00  0.00000000000E+00  0.45593999997E+02  0.45594000000E+02  0.51100000000E-03 0.  1.
         11   -1    0    0    0    0 -0.00000000000E+00 -0.00000000000E+00 -0.45593999997E+02  0.45594000000E+02  0.51100000000E-03 0. -1.
    9900012    2    1    2    0    0  0.60730925729E+01  0.30716164977E+02 -0.25938395758E+02  0.50528860575E+02  0.30000002202E+02 0.  0.
        -12    1    1    2    0    0 -0.60730925729E+01 -0.30716164977E+02  0.25938395758E+02  0.40659139425E+02  0.00000000000E+00 0.  1.
         11    1    3    3    0    0  0.58264431965E+01 -0.41129785527E+01 -0.32784037454E+01  0.78493289061E+01  0.51100000000E-03 0. -1.
        -11    1    3    3    0    0  0.22024879714E+01  0.48012032219E+01 -0.49407664868E+00  0.53053385978E+01  0.51100000000E-03 0.  1.
         12    1    3    3    0    0 -0.19558385950E+01  0.30027940308E+02 -0.22165915364E+02  0.37374193071E+02  0.00000000000E+00 0. -1.
</event>
<event>
 7    1  0.2945316E-011  0.5052887E+02  0.7816164E-02  0.1300439E+00
        -11   -1    0    0    0    0  0.00000000000E+00  0.00000000000E+00  0.45593999997E+02  0.45594000000E+02  0.51100000000E-03 0. -1.
         11   -1    0    0    0    0 -0.00000000000E+00 -0.00000000000E+00 -0.45593999997E+02  0.45594000000E+02  0.51100000000E-03 0.  1.
    9900012    2    1    2    0    0  0.22903930579E+02  0.32568374438E+02  0.82386905764E+01  0.50528867300E+02  0.30000022646E+02 0.  0.
        -12    1    1    2    0    0 -0.22903930579E+02 -0.32568374438E+02 -0.82386905764E+01  0.40659132700E+02  0.00000000000E+00 0.  1.
         11    1    3    3    0    0 -0.56272155194E+01  0.25967354298E+01  0.12009998976E+01  0.63127640863E+01  0.51100000000E-03 0.  1.
        -11    1    3    3    0    0  0.23028145908E+01  0.78777789389E+01 -0.25725920315E+01  0.86011967813E+01  0.51100000000E-03 0. -1.
         12    1    3    3    0    0  0.26228331508E+02  0.22093860069E+02  0.96102827103E+01  0.35614906433E+02  0.00000000000E+00 0. -1.
</event>
<event>
 7    1  0.2945316E-011  0.5052886E+02  0.7816164E-02  0.1300439E+00
        -11   -1    0    0    0    0  0.00000000000E+00  0.00000000000E+00  0.45593999997E+02  0.45594000000E+02  0.51100000000E-03 0.  1.
         11   -1    0    0    0    0 -0.00000000000E+00 -0.00000000000E+00 -0.45593999997E+02  0.45594000000E+02  0.51100000000E-03 0. -1.
    9900012    2    1    2    0    0  0.21224563731E+02 -0.27544381570E+02 -0.21071087629E+02  0.50528858401E+02  0.29999995597E+02 0.  0.
        -12    1    1    2    0    0 -0.21224563731E+02  0.27544381570E+02  0.21071087629E+02  0.40659141599E+02  0.00000000000E+00 0.  1.
         11    1    3    3    0    0  0.12511427410E+02 -0.91337563806E+01 -0.42432781034E+01  0.16061342745E+02  0.51100000000E-03 0. -1.
        -11    1    3    3    0    0  0.54741868298E+01 -0.13673886251E+02  0.19270298895E+01  0.14854471755E+02  0.51100000000E-03 0.  1.
         12    1    3    3    0    0  0.32389494912E+01 -0.47367389381E+01 -0.18754839416E+02  0.19613043901E+02  0.00000000000E+00 0. -1.
</event>
<event>
 7    1  0.2945316E-011  0.5052886E+02  0.7816164E-02  0.1300439E+00
        -11   -1    0    0    0    0  0.00000000000E+00  0.00000000000E+00  0.45593999997E+02  0.45594000000E+02  0.51100000000E-03 0. -1.
         11   -1    0    0    0    0 -0.00000000000E+00 -0.00000000000E+00 -0.45593999997E+02  0.45594000000E+02  0.51100000000E-03 0.  1.
    9900012    2    1    2    0    0 -0.12773662650E+02 -0.30503517715E+02  0.23654489424E+02  0.50528856866E+02  0.29999990930E+02 0.  0.
        -12    1    1    2    0    0  0.12773662650E+02  0.30503517715E+02 -0.23654489424E+02  0.40659143134E+02  0.00000000000E+00 0.  1.
         11    1    3    3    0    0  0.60024242956E+00 -0.14503153659E+02  0.12622357833E+02  0.19236051429E+02  0.51100000000E-03 0. -1.
        -11    1    3    3    0    0 -0.87267754020E+01 -0.20272579894E+02  0.11637647450E+02  0.24951331486E+02  0.51100000000E-03 0.  1.
         12    1    3    3    0    0 -0.46471296779E+01  0.42722158387E+01 -0.60551585965E+00  0.63414739510E+01  0.00000000000E+00 0. -1.
</event>
<event>
 7    1  0.3261552E-011  0.5052885E+02  0.7816164E-02  0.1300439E+00
        -11   -1    0    0    0    0  0.00000000000E+00  0.00000000000E+00  0.45593999997E+02  0.45594000000E+02  0.51100000000E-03 0. -1.
         11   -1    0    0    0    0 -0.00000000000E+00 -0.00000000000E+00 -0.45593999997E+02  0.45594000000E+02  0.51100000000E-03 0.  1.
    9900012    2    1    2    0    0 -0.62335295510E+01  0.36777854033E+02  0.16177121242E+02  0.50528847407E+02  0.29999962179E+02 0.  0.
        -12    1    1    2    0    0  0.62335295510E+01 -0.36777854033E+02 -0.16177121242E+02  0.40659152593E+02  0.00000000000E+00 0.  1.
         11    1    3    3    0    0 -0.40113996701E+01 -0.56358899585E+00  0.59858912354E+01  0.72277143007E+01  0.51100000000E-03 0. -1.
        -11    1    3    3    0    0  0.38873495002E+01  0.26381878069E+00 -0.11270317752E+01  0.40560186599E+01  0.51100000000E-03 0.  1.
         12    1    3    3    0    0 -0.61094793812E+01  0.37077624248E+02  0.11318261782E+02  0.39245114447E+02  0.00000000000E+00 0. -1.
</event>
<event>
 7    1  0.2945316E-011  0.5052888E+02  0.7816164E-02  0.1300439E+00
        -11   -1    0    0    0    0  0.00000000000E+00  0.00000000000E+00  0.45593999997E+02  0.45594000000E+02  0.51100000000E-03 0.  1.
         11   -1    0    0    0    0 -0.00000000000E+00 -0.00000000000E+00 -0.45593999997E+02  0.45594000000E+02  0.51100000000E-03 0. -1.
    9900012    2    1    2    0    0  0.25623905788E+02 -0.26177334821E+02 -0.17644448083E+02  0.50528881044E+02  0.30000064421E+02 0.  0.
        -12    1    1    2    0    0 -0.25623905788E+02  0.26177334821E+02  0.17644448083E+02  0.40659118956E+02  0.00000000000E+00 0.  1.
         11    1    3    3    0    0  0.13281323544E+02  0.31712909535E+01 -0.97332998226E+01  0.16768654302E+02  0.51100000000E-03 0. -1.
        -11    1    3    3    0    0  0.11837233324E+02 -0.19092661174E+02 -0.65644634688E+01  0.23403888231E+02  0.51100000000E-03 0.  1.
        -12    1    3    3    0    0  0.50534891997E+00 -0.10255964601E+02 -0.13466847914E+01  0.10356338511E+02  0.00000000000E+00 0.  1.
</event>
<event>
 7    1  0.2945316E-011  0.5052886E+02  0.7816164E-02  0.1300439E+00
        -11   -1    0    0    0    0  0.00000000000E+00  0.00000000000E+00  0.45593999997E+02  0.45594000000E+02  0.51100000000E-03 0. -1.
         11   -1    0    0    0    0 -0.00000000000E+00 -0.00000000000E+00 -0.45593999997E+02  0.45594000000E+02  0.51100000000E-03 0.  1.
    9900012    2    1    2    0    0 -0.32717652099E+02  0.22611829849E+02  0.84514032523E+01  0.50528858041E+02  0.29999994500E+02 0.  0.
        -12    1    1    2    0    0  0.32717652099E+02 -0.22611829849E+02 -0.84514032523E+01  0.40659141959E+02  0.00000000000E+00 0.  1.
         11    1    3    3    0    0  0.14683909324E+01  0.12426271137E+01  0.45303982246E+00  0.19762437643E+01  0.51100000000E-03 0. -1.
        -11    1    3    3    0    0 -0.11327398576E+02  0.17706088486E+02 -0.55361108226E+01  0.21736238204E+02  0.51100000000E-03 0.  1.
         12    1    3    3    0    0 -0.22858644456E+02  0.36631142487E+01  0.13534474252E+02  0.26816376072E+02  0.00000000000E+00 0. -1.
</event>
<event>
 7    1  0.2945316E-011  0.5052886E+02  0.7816164E-02  0.1300439E+00
        -11   -1    0    0    0    0  0.00000000000E+00  0.00000000000E+00  0.45593999997E+02  0.45594000000E+02  0.51100000000E-03 0.  1.
         11   -1    0    0    0    0 -0.00000000000E+00 -0.00000000000E+00 -0.45593999997E+02  0.45594000000E+02  0.51100000000E-03 0. -1.
    9900012    2    1    2    0    0  0.34847821298E+02 -0.20797751682E+02 -0.24997157315E+01  0.50528859540E+02  0.29999999058E+02 0.  0.
        -12    1    1    2    0    0 -0.34847821298E+02  0.20797751682E+02  0.24997157315E+01  0.40659140460E+02  0.00000000000E+00 0.  1.
         11    1    3    3    0    0 -0.14321695248E+01 -0.41736937295E+01  0.75750800962E+01  0.87665653264E+01  0.51100000000E-03 0.  1.
        -11    1    3    3    0    0  0.15508867284E+02 -0.62179932744E+01 -0.77359655339E+01  0.18412864193E+02  0.51100000000E-03 0. -1.
        -12    1    3    3    0    0  0.20771123539E+02 -0.10406064678E+02 -0.23388302938E+01  0.23349430020E+02  0.00000000000E+00 0.  1.
</event>
<event>
 7    1  0.2945316E-011  0.5052885E+02  0.7816164E-02  0.1300439E+00
        -11   -1    0    0    0    0  0.00000000000E+00  0.00000000000E+00  0.45593999997E+02  0.45594000000E+02  0.51100000000E-03 0.  1.
         11   -1    0    0    0    0 -0.00000000000E+00 -0.00000000000E+00 -0.45593999997E+02  0.45594000000E+02  0.51100000000E-03 0. -1.
    9900012    2    1    2    0    0  0.39149281800E+02 -0.70582318132E+01  0.84072381202E+01  0.50528849067E+02  0.29999967224E+02 0.  0.
        -12    1    1    2    0    0 -0.39149281800E+02  0.70582318132E+01 -0.84072381202E+01  0.40659150933E+02  0.00000000000E+00 0.  1.
         11    1    3    3    0    0  0.15567762577E+02  0.42143673889E+01  0.77528168933E+01  0.17894756053E+02  0.51100000000E-03 0. -1.
        -11    1    3    3    0    0  0.16785897355E+02  0.22444153872E+01  0.33588604498E+01  0.17265158390E+02  0.51100000000E-03 0.  1.
        -12    1    3    3    0    0  0.67956218683E+01 -0.13517014589E+02 -0.27044392229E+01  0.15368934625E+02  0.00000000000E+00 0.  1.
</event>
<event>
 7    1  0.2945316E-011  0.5052883E+02  0.7816164E-02  0.1300439E+00
        -11   -1    0    0    0    0  0.00000000000E+00  0.00000000000E+00  0.45593999997E+02  0.45594000000E+02  0.51100000000E-03 0.  1.
         11   -1    0    0    0    0 -0.00000000000E+00 -0.00000000000E+00 -0.45593999997E+02  0.45594000000E+02  0.51100000000E-03 0. -1.
    9900012    2    1    2    0    0  0.14529231678E+02 -0.15133320158E+02 -0.34828892860E+02  0.50528834613E+02  0.29999923289E+02 0.  0.
        -12    1    1    2    0    0 -0.14529231678E+02  0.15133320158E+02  0.34828892860E+02  0.40659165387E+02  0.00000000000E+00 0.  1.
         11    1    3    3    0    0  0.45691330844E+01 -0.93983294445E+01 -0.11168799759E+02  0.15295347718E+02  0.51100000000E-03 0. -1.
        -11    1    3    3    0    0  0.91379792254E+01 -0.12684614984E+02 -0.23510544880E+02  0.28233806729E+02  0.51100000000E-03 0.  1.
        -12    1    3    3    0    0  0.82211936791E+00  0.69496242703E+01 -0.14954822116E+00  0.69996801659E+01  0.00000000000E+00 0.  1.
</event>
<event>
 7    1  0.2945316E-011  0.5052892E+02  0.7816164E-02  0.1300439E+00
        -11   -1    0    0    0    0  0.00000000000E+00  0.00000000000E+00  0.45593999997E+02  0.45594000000E+02  0.51100000000E-03 0.  1.
         11   -1    0    0    0    0 -0.00000000000E+00 -0.00000000000E+00 -0.45593999997E+02  0.45594000000E+02  0.51100000000E-03 0. -1.
    9900012    2    1    2    0    0 -0.10876776294E+02  0.14703249353E+02 -0.36313510972E+02  0.50528918810E+02  0.30000179215E+02 0.  0.
        -12    1    1    2    0    0  0.10876776294E+02 -0.14703249353E+02  0.36313510972E+02  0.40659081190E+02  0.00000000000E+00 0.  1.
         11    1    3    3    0    0 -0.24279271345E+01  0.71006550438E+00 -0.15807143497E+02  0.16008273141E+02  0.51100000000E-03 0. -1.
        -11    1    3    3    0    0 -0.96078756460E+01 -0.26904651054E+01 -0.12457916853E+02  0.15960876213E+02  0.51100000000E-03 0.  1.
         12    1    3    3    0    0  0.11590264863E+01  0.16683648954E+02 -0.80484506223E+01  0.18559769456E+02  0.00000000000E+00 0. -1.
</event>
<event>
 7    1  0.2945316E-011  0.5052885E+02  0.7816164E-02  0.1300439E+00
        -11   -1    0    0    0    0  0.00000000000E+00  0.00000000000E+00  0.45593999997E+02  0.45594000000E+02  0.51100000000E-03 0.  1.
         11   -1    0    0    0    0 -0.00000000000E+00 -0.00000000000E+00 -0.45593999997E+02  0.45594000000E+02  0.51100000000E-03 0. -1.
    9900012    2    1    2    0    0 -0.28875603104E+02  0.27327368955E+02 -0.85194537059E+01  0.50528848015E+02  0.29999964028E+02 0.  0.
        -12    1    1    2    0    0  0.28875603104E+02 -0.27327368955E+02  0.85194537059E+01  0.40659151985E+02  0.00000000000E+00 0.  1.
         11    1    3    3    0    0 -0.19659615659E+02  0.12675657455E+02  0.39188016366E+01  0.23717710394E+02  0.51100000000E-03 0. -1.
        -11    1    3    3    0    0 -0.47845545234E+00 -0.23602369971E+01  0.17679067117E+01  0.29874960593E+01  0.51100000000E-03 0.  1.
         12    1    3    3    0    0 -0.87375319931E+01  0.17011948497E+02 -0.14206162054E+02  0.23823641563E+02  0.00000000000E+00 0. -1.
</event>
<event>
 7    1  0.2945316E-011  0.5052887E+02  0.7816164E-02  0.1300439E+00
        -11   -1    0    0    0    0  0.00000000000E+00  0.00000000000E+00  0.45593999997E+02  0.45594000000E+02  0.51100000000E-03 0.  1.
         11   -1    0    0    0    0 -0.00000000000E+00 -0.00000000000E+00 -0.45593999997E+02  0.45594000000E+02  0.51100000000E-03 0. -1.
    9900012    2    1    2    0    0 -0.21101779475E+02  0.43626495592E+01 -0.34479663973E+02  0.50528867743E+02  0.30000023993E+02 0.  0.
        -12    1    1    2    0    0  0.21101779475E+02 -0.43626495592E+01  0.34479663973E+02  0.40659132257E+02  0.00000000000E+00 0.  1.
         11    1    3    3    0    0 -0.10368721401E+02  0.63734029740E+01 -0.26063649226E+02  0.28765334349E+02  0.51100000000E-03 0.  1.
        -11    1    3    3    0    0 -0.56839541994E+01 -0.11781974239E+01 -0.13410500123E+02  0.14612905198E+02  0.51100000000E-03 0. -1.
        -12    1    3    3    0    0 -0.50491038746E+01 -0.83255599093E+00  0.49944853771E+01  0.71506281959E+01  0.00000000000E+00 0.  1.
</event>
<event>
 7    1  0.2945316E-011  0.5052886E+02  0.7816164E-02  0.1300439E+00
        -11   -1    0    0    0    0  0.00000000000E+00  0.00000000000E+00  0.45593999997E+02  0.45594000000E+02  0.51100000000E-03 0.  1.
         11   -1    0    0    0    0 -0.00000000000E+00 -0.00000000000E+00 -0.45593999997E+02  0.45594000000E+02  0.51100000000E-03 0. -1.
    9900012    2    1    2    0    0  0.39314246006E+02 -0.10142378827E+02 -0.21651757047E+01  0.50528858677E+02  0.29999996435E+02 0.  0.
        -12    1    1    2    0    0 -0.39314246006E+02  0.10142378827E+02  0.21651757047E+01  0.40659141323E+02  0.00000000000E+00 0.  1.
         11    1    3    3    0    0  0.10219781953E+02 -0.92859804792E+01  0.48047020311E+01  0.14620483525E+02  0.51100000000E-03 0. -1.
        -11    1    3    3    0    0  0.27686793185E+01 -0.74647090988E+01 -0.28424986254E+01  0.84538314270E+01  0.51100000000E-03 0.  1.
         12    1    3    3    0    0  0.26325784734E+02  0.66083107511E+01 -0.41273791104E+01  0.27454543726E+02  0.00000000000E+00 0. -1.
</event>
<event>
 7    1  0.2945316E-011  0.5052887E+02  0.7816164E-02  0.1300439E+00
        -11   -1    0    0    0    0  0.00000000000E+00  0.00000000000E+00  0.45593999997E+02  0.45594000000E+02  0.51100000000E-03 0.  1.
         11   -1    0    0    0    0 -0.00000000000E+00 -0.00000000000E+00 -0.45593999997E+02  0.45594000000E+02  0.51100000000E-03 0. -1.
    9900012    2    1    2    0    0 -0.11570234304E+02 -0.14300811809E+02 -0.36259918433E+02  0.50528865417E+02  0.30000016921E+02 0.  0.
        -12    1    1    2    0    0  0.11570234304E+02  0.14300811809E+02  0.36259918433E+02  0.40659134583E+02  0.00000000000E+00 0.  1.
         11    1    3    3    0    0 -0.10458644267E+01  0.25419701720E+01 -0.40926792769E+01  0.49300576750E+01  0.51100000000E-03 0. -1.
        -11    1    3    3    0    0 -0.13610465088E+02 -0.16749179537E+01 -0.55204911316E+01  0.14782622658E+02  0.51100000000E-03 0.  1.
         12    1    3    3    0    0  0.30860952109E+01 -0.15167864028E+02 -0.26646748025E+02  0.30816185084E+02  0.00000000000E+00 0. -1.
</event>
<event>
 7    1  0.2945316E-011  0.5052887E+02  0.7816164E-02  0.1300439E+00
        -11   -1    0    0    0    0  0.00000000000E+00  0.00000000000E+00  0.45593999997E+02  0.45594000000E+02  0.51100000000E-03 0.  1.
         11   -1    0    0    0    0 -0.00000000000E+00 -0.00000000000E+00 -0.45593999997E+02  0.45594000000E+02  0.51100000000E-03 0. -1.
    9900012    2    1    2    0    0 -0.36978530393E+01  0.34775140247E+02 -0.20740782539E+02  0.50528873637E+02  0.30000041908E+02 0.  0.
        -12    1    1    2    0    0  0.36978530393E+01 -0.34775140247E+02  0.20740782539E+02  0.40659126363E+02  0.00000000000E+00 0.  1.
         11    1    3    3    0    0 -0.28528416991E+01  0.34675827239E+01 -0.73449581244E+00  0.45499802271E+01  0.51100000000E-03 0. -1.
        -11    1    3    3    0    0 -0.75775954737E+01  0.18290326776E+01  0.26083394037E+01  0.82200211925E+01  0.51100000000E-03 0.  1.
         12    1    3    3    0    0  0.67325841335E+01  0.29478524845E+02 -0.22614626130E+02  0.37758872218E+02  0.00000000000E+00 0. -1.
</event>
<event>
 7    1  0.2945316E-011  0.5052886E+02  0.7816164E-02  0.1300439E+00
        -11   -1    0    0    0    0  0.00000000000E+00  0.00000000000E+00  0.45593999997E+02  0.45594000000E+02  0.51100000000E-03 0. -1.
         11   -1    0    0    0    0 -0.00000000000E+00 -0.00000000000E+00 -0.45593999997E+02  0.45594000000E+02  0.51100000000E-03 0.  1.
    9900012    2    1    2    0    0 -0.35154125073E+02  0.91347208796E+01  0.18273214499E+02  0.50528855846E+02  0.29999987829E+02 0.  0.
        -12    1    1    2    0    0  0.35154125073E+02 -0.91347208796E+01 -0.18273214499E+02  0.40659144154E+02  0.00000000000E+00 0.  1.
         11    1    3    3    0    0 -0.20247799183E+02  0.12172997829E+02  0.70979687535E+01  0.24668530734E+02  0.51100000000E-03 0. -1.
        -11    1    3    3    0    0 -0.79046161653E+01  0.33506899687E+01 -0.27501382390E+01  0.90151727982E+01  0.51100000000E-03 0.  1.
         12    1    3    3    0    0 -0.70017097251E+01 -0.63889669178E+01  0.13925383985E+02  0.16845152314E+02  0.00000000000E+00 0. -1.
</event>
<event>
 7    1  0.2945316E-011  0.5052886E+02  0.7816164E-02  0.1300439E+00
        -11   -1    0    0    0    0  0.00000000000E+00  0.00000000000E+00  0.45593999997E+02  0.45594000000E+02  0.51100000000E-03 0.  1.
         11   -1    0    0    0    0 -0.00000000000E+00 -0.00000000000E+00 -0.45593999997E+02  0.45594000000E+02  0.51100000000E-03 0. -1.
    9900012    2    1    2    0    0 -0.84085311482E+01  0.26141391478E+02 -0.29984833819E+02  0.50528855842E+02  0.29999987818E+02 0.  0.
        -12    1    1    2    0    0  0.84085311482E+01 -0.26141391478E+02  0.29984833819E+02  0.40659144158E+02  0.00000000000E+00 0.  1.
         11    1    3    3    0    0 -0.10626299473E+01 -0.11283476862E+01 -0.83744468278E+00  0.17617221017E+01  0.51100000000E-03 0. -1.
        -11    1    3    3    0    0  0.13872265531E+01 -0.40297956507E+01  0.10693017207E+01  0.43939796229E+01  0.51100000000E-03 0.  1.
         12    1    3    3    0    0 -0.87331277540E+01  0.31299534815E+02 -0.30216690857E+02  0.44373154118E+02  0.00000000000E+00 0. -1.
</event>
<event>
 7    1  0.2945316E-011  0.5052887E+02  0.7816164E-02  0.1300439E+00
        -11   -1    0    0    0    0  0.00000000000E+00  0.00000000000E+00  0.45593999997E+02  0.45594000000E+02  0.51100000000E-03 0.  1.
         11   -1    0    0    0    0 -0.00000000000E+00 -0.00000000000E+00 -0.45593999997E+02  0.45594000000E+02  0.51100000000E-03 0. -1.
    9900012    2    1    2    0    0  0.12624461283E+02  0.12417608383E+02 -0.36600420015E+02  0.50528871064E+02  0.30000034085E+02 0.  0.
        -12    1    1    2    0    0 -0.12624461283E+02 -0.12417608383E+02  0.36600420015E+02  0.40659128936E+02  0.00000000000E+00 0.  1.
         11    1    3    3    0    0  0.12520375370E+01 -0.33322779829E+01 -0.12951457830E+02  0.13431750993E+02  0.51100000000E-03 0. -1.
        -11    1    3    3    0    0  0.69979773582E+01  0.12524789055E+02 -0.27096956977E+02  0.30660839937E+02  0.51100000000E-03 0.  1.
        -12    1    3    3    0    0  0.43744463875E+01  0.32250973110E+01  0.34479947930E+01  0.64362801334E+01  0.00000000000E+00 0.  1.
</event>
<event>
 7    1  0.2945316E-011  0.5052886E+02  0.7816164E-02  0.1300439E+00
        -11   -1    0    0    0    0  0.00000000000E+00  0.00000000000E+00  0.45593999997E+02  0.45594000000E+02  0.51100000000E-03 0.  1.
         11   -1    0    0    0    0 -0.00000000000E+00 -0.00000000000E+00 -0.45593999997E+02  0.45594000000E+02  0.51100000000E-03 0. -1.
    9900012    2    1    2    0    0  0.32453247528E+02 -0.37912883778E+01 -0.24198728991E+02  0.50528860469E+02  0.30000001880E+02 0.  0.
        -12    1    1    2    0    0 -0.32453247528E+02  0.37912883778E+01  0.24198728991E+02  0.40659139531E+02  0.00000000000E+00 0.  1.
         11    1    3    3    0    0  0.28051655115E+02 -0.70448745455E+01 -0.20761101438E+02  0.35602653626E+02  0.51100000000E-03 0. -1.
        -11    1    3    3    0    0  0.63078938790E+01 -0.36668820142E+01 -0.11111748238E+01  0.73803969165E+01  0.51100000000E-03 0.  1.
        -12    1    3    3    0    0 -0.19063014661E+01  0.69204681819E+01 -0.23264527285E+01  0.75458099257E+01  0.00000000000E+00 0.  1.
</event>
<event>
 7    1  0.2945316E-011  0.5052885E+02  0.7816164E-02  0.1300439E+00
        -11   -1    0    0    0    0  0.00000000000E+00  0.00000000000E+00  0.45593999997E+02  0.45594000000E+02  0.51100000000E-03 0. -1.
         11   -1    0    0    0    0 -0.00000000000E+00 -0.00000000000E+00 -0.45593999997E+02  0.45594000000E+02  0.51100000000E-03 0.  1.
    9900012    2    1    2    0    0 -0.21691292303E+02 -0.32168635745E+02  0.12158652712E+02  0.50528854371E+02  0.29999983347E+02 0.  0.
        -12    1    1    2    0    0  0.21691292303E+02  0.32168635745E+02 -0.12158652712E+02  0.40659145629E+02  0.00000000000E+00 0.  1.
         11    1    3    3    0    0  0.46665984176E+01 -0.18438384005E+01 -0.19046909046E+01  0.53670036838E+01  0.51100000000E-03 0. -1.
        -11    1    3    3    0    0  0.91448394871E+00 -0.68817869254E+01  0.19044254510E+01  0.71987574441E+01  0.51100000000E-03 0.  1.
         12    1    3    3    0    0 -0.27272374670E+02 -0.23443010419E+02  0.12158918166E+02  0.37963093243E+02  0.00000000000E+00 0. -1.
</event>
<event>
 7    1  0.2945316E-011  0.5052886E+02  0.7816164E-02  0.1300439E+00
        -11   -1    0    0    0    0  0.00000000000E+00  0.00000000000E+00  0.45593999997E+02  0.45594000000E+02  0.51100000000E-03 0.  1.
         11   -1    0    0    0    0 -0.00000000000E+00 -0.00000000000E+00 -0.45593999997E+02  0.45594000000E+02  0.51100000000E-03 0. -1.
    9900012    2    1    2    0    0  0.21010208755E+02  0.10460113624E+02 -0.33201251600E+02  0.50528856419E+02  0.29999989570E+02 0.  0.
        -12    1    1    2    0    0 -0.21010208755E+02 -0.10460113624E+02  0.33201251600E+02  0.40659143581E+02  0.00000000000E+00 0.  1.
         11    1    3    3    0    0  0.69954824781E+01  0.89839409381E+01 -0.39249924611E+01  0.12043817333E+02  0.51100000000E-03 0. -1.
        -11    1    3    3    0    0 -0.30180312685E+01  0.21078090607E+01  0.93434788854E+00  0.37979439191E+01  0.51100000000E-03 0.  1.
         12    1    3    3    0    0  0.17032757545E+02 -0.63163637455E+00 -0.30210607027E+02  0.34687095166E+02  0.00000000000E+00 0. -1.
</event>
<event>
 7    1  0.2945316E-011  0.5052886E+02  0.7816164E-02  0.1300439E+00
        -11   -1    0    0    0    0  0.00000000000E+00  0.00000000000E+00  0.45593999997E+02  0.45594000000E+02  0.51100000000E-03 0.  1.
         11   -1    0    0    0    0 -0.00000000000E+00 -0.00000000000E+00 -0.45593999997E+02  0.45594000000E+02  0.51100000000E-03 0. -1.
    9900012    2    1    2    0    0  0.51169591205E+01 -0.70700931854E+01 -0.39711408632E+02  0.50528862481E+02  0.30000007996E+02 0.  0.
        -12    1    1    2    0    0 -0.51169591205E+01  0.70700931854E+01  0.39711408632E+02  0.40659137519E+02  0.00000000000E+00 0.  1.
         11    1    3    3    0    0  0.62175028352E+01 -0.71705907050E+01 -0.21129048153E+02  0.23162715486E+02  0.51100000000E-03 0. -1.
        -11    1    3    3    0    0  0.15952727911E+01 -0.96024018761E+01 -0.68399323320E+01  0.11896877390E+02  0.51100000000E-03 0.  1.
         12    1    3    3    0    0 -0.26958165058E+01  0.97028993957E+01 -0.11742428147E+02  0.15469269605E+02  0.00000000000E+00 0. -1.
</event>
<event>
 7    1  0.2945316E-011  0.5052886E+02  0.7816164E-02  0.1300439E+00
        -11   -1    0    0    0    0  0.00000000000E+00  0.00000000000E+00  0.45593999997E+02  0.45594000000E+02  0.51100000000E-03 0.  1.
         11   -1    0    0    0    0 -0.00000000000E+00 -0.00000000000E+00 -0.45593999997E+02  0.45594000000E+02  0.51100000000E-03 0. -1.
    9900012    2    1    2    0    0  0.19334801733E+02 -0.81982856938E+01 -0.34815504032E+02  0.50528858748E+02  0.29999996650E+02 0.  0.
        -12    1    1    2    0    0 -0.19334801733E+02  0.81982856938E+01  0.34815504032E+02  0.40659141252E+02  0.00000000000E+00 0.  1.
         11    1    3    3    0    0  0.50110269612E+00  0.18510625230E+01  0.19697848269E+01  0.27491069280E+01  0.51100000000E-03 0. -1.
        -11    1    3    3    0    0  0.13551183437E+02 -0.14318302987E+02 -0.14472354502E+02  0.24456030301E+02  0.51100000000E-03 0.  1.
         12    1    3    3    0    0  0.52825156000E+01  0.42689547703E+01 -0.22312934356E+02  0.23323721519E+02  0.00000000000E+00 0. -1.
</event>
<event>
 7    1  0.2945316E-011  0.5052887E+02  0.7816164E-02  0.1300439E+00
        -11   -1    0    0    0    0  0.00000000000E+00  0.00000000000E+00  0.45593999997E+02  0.45594000000E+02  0.51100000000E-03 0. -1.
         11   -1    0    0    0    0 -0.00000000000E+00 -0.00000000000E+00 -0.45593999997E+02  0.45594000000E+02  0.51100000000E-03 0.  1.
    9900012    2    1    2    0    0 -0.39223190694E+02 -0.65107285586E+01  0.85039289227E+01  0.50528867180E+02  0.30000022279E+02 0.  0.
        -12    1    1    2    0    0  0.39223190694E+02  0.65107285586E+01 -0.85039289227E+01  0.40659132820E+02  0.00000000000E+00 0.  1.
         11    1    3    3    0    0 -0.28101929845E+01 -0.36391372687E+01  0.13939058655E+01  0.48045268751E+01  0.51100000000E-03 0. -1.
        -11    1    3    3    0    0 -0.23147486862E+02 -0.14482116602E+02  0.65862699663E+01  0.28087662801E+02  0.51100000000E-03 0.  1.
         12    1    3    3    0    0 -0.13265510847E+02  0.11610525312E+02  0.52375309093E+00  0.17636677503E+02  0.00000000000E+00 0. -1.
</event>
<event>
 7    1  0.2945316E-011  0.5052886E+02  0.7816164E-02  0.1300439E+00
        -11   -1    0    0    0    0  0.00000000000E+00  0.00000000000E+00  0.45593999997E+02  0.45594000000E+02  0.51100000000E-03 0. -1.
         11   -1    0    0    0    0 -0.00000000000E+00 -0.00000000000E+00 -0.45593999997E+02  0.45594000000E+02  0.51100000000E-03 0.  1.
    9900012    2    1    2    0    0 -0.25994638291E+02 -0.18278808076E+02  0.25363942260E+02  0.50528860664E+02  0.30000002475E+02 0.  0.
        -12    1    1    2    0    0  0.25994638291E+02  0.18278808076E+02 -0.25363942260E+02  0.40659139336E+02  0.00000000000E+00 0.  1.
         11    1    3    3    0    0 -0.12216763018E+02  0.16245614300E+01  0.80068096568E+01  0.14696853392E+02  0.51100000000E-03 0.  1.
        -11    1    3    3    0    0 -0.54521018528E+01 -0.10439526542E+02  0.19756677478E+02  0.23000770297E+02  0.51100000000E-03 0. -1.
         12    1    3    3    0    0 -0.83257734197E+01 -0.94638429643E+01 -0.23995448750E+01  0.12831236975E+02  0.00000000000E+00 0. -1.
</event>
<event>
 7    1  0.2945316E-011  0.5052885E+02  0.7816164E-02  0.1300439E+00
        -11   -1    0    0    0    0  0.00000000000E+00  0.00000000000E+00  0.45593999997E+02  0.45594000000E+02  0.51100000000E-03 0.  1.
         11   -1    0    0    0    0 -0.00000000000E+00 -0.00000000000E+00 -0.45593999997E+02  0.45594000000E+02  0.51100000000E-03 0. -1.
    9900012    2    1    2    0    0  0.17854720041E+02  0.25060199580E+02 -0.26577469615E+02  0.50528849469E+02  0.29999968447E+02 0.  0.
        -12    1    1    2    0    0 -0.17854720041E+02 -0.25060199580E+02  0.26577469615E+02  0.40659150531E+02  0.00000000000E+00 0.  1.
         11    1    3    3    0    0  0.37581641548E+01 -0.91690982274E-01 -0.24856948290E+01  0.45067598222E+01  0.51100000000E-03 0. -1.
        -11    1    3    3    0    0  0.30841134069E+01 -0.37209994559E+00  0.49349628958E+01  0.58313011344E+01  0.51100000000E-03 0.  1.
         12    1    3    3    0    0  0.11012442480E+02  0.25523990508E+02 -0.29026737682E+02  0.40190788513E+02  0.00000000000E+00 0. -1.
</event>
<event>
 7    1  0.2945316E-011  0.5052885E+02  0.7816164E-02  0.1300439E+00
        -11   -1    0    0    0    0  0.00000000000E+00  0.00000000000E+00  0.45593999997E+02  0.45594000000E+02  0.51100000000E-03 0.  1.
         11   -1    0    0    0    0 -0.00000000000E+00 -0.00000000000E+00 -0.45593999997E+02  0.45594000000E+02  0.51100000000E-03 0. -1.
    9900012    2    1    2    0    0 -0.21994140411E+02 -0.31714503861E+02 -0.12791177603E+02  0.50528853525E+02  0.29999980775E+02 0.  0.
        -12    1    1    2    0    0  0.21994140411E+02  0.31714503861E+02  0.12791177603E+02  0.40659146475E+02  0.00000000000E+00 0.  1.
         11    1    3    3    0    0 -0.27760822951E+01 -0.21400961235E+02 -0.85934354309E+01  0.23228321236E+02  0.51100000000E-03 0. -1.
        -11    1    3    3    0    0 -0.17100476646E+01 -0.66658564575E+01 -0.62537465289E+01  0.92987768677E+01  0.51100000000E-03 0.  1.
        -12    1    3    3    0    0 -0.17508010451E+02 -0.36476861693E+01  0.20560043566E+01  0.18001755422E+02  0.00000000000E+00 0.  1.
</event>
<event>
 7    1  0.2945316E-011  0.5052886E+02  0.7816164E-02  0.1300439E+00
        -11   -1    0    0    0    0  0.00000000000E+00  0.00000000000E+00  0.45593999997E+02  0.45594000000E+02  0.51100000000E-03 0.  1.
         11   -1    0    0    0    0 -0.00000000000E+00 -0.00000000000E+00 -0.45593999997E+02  0.45594000000E+02  0.51100000000E-03 0. -1.
    9900012    2    1    2    0    0  0.17039431905E+02  0.92241036120E+01 -0.35745481598E+02  0.50528858571E+02  0.29999996111E+02 0.  0.
        -12    1    1    2    0    0 -0.17039431905E+02 -0.92241036120E+01  0.35745481598E+02  0.40659141429E+02  0.00000000000E+00 0.  1.
         11    1    3    3    0    0 -0.36382664603E+01  0.90845672388E-01 -0.22046886125E+01  0.42551013985E+01  0.51100000000E-03 0. -1.
        -11    1    3    3    0    0  0.11193264841E+02 -0.54662796214E+01 -0.22321574022E+02  0.25562121543E+02  0.51100000000E-03 0.  1.
         12    1    3    3    0    0  0.94844335241E+01  0.14599537561E+02 -0.11219218964E+02  0.20711635629E+02  0.00000000000E+00 0. -1.
</event>
<event>
 7    1  0.2945316E-011  0.5052884E+02  0.7816164E-02  0.1300439E+00
        -11   -1    0    0    0    0  0.00000000000E+00  0.00000000000E+00  0.45593999997E+02  0.45594000000E+02  0.51100000000E-03 0.  1.
         11   -1    0    0    0    0 -0.00000000000E+00 -0.00000000000E+00 -0.45593999997E+02  0.45594000000E+02  0.51100000000E-03 0. -1.
    9900012    2    1    2    0    0  0.63904673312E+01 -0.32112582262E+02 -0.24106242872E+02  0.50528844110E+02  0.29999952158E+02 0.  0.
        -12    1    1    2    0    0 -0.63904673312E+01  0.32112582262E+02  0.24106242872E+02  0.40659155890E+02  0.00000000000E+00 0.  1.
         11    1    3    3    0    0  0.68340055293E+01 -0.40764552322E+01 -0.91001500369E+01  0.12088583448E+02  0.51100000000E-03 0. -1.
        -11    1    3    3    0    0  0.61891863643E+01 -0.16055018322E+02 -0.17475654077E+02  0.24524847132E+02  0.51100000000E-03 0.  1.
        -12    1    3    3    0    0 -0.66327245624E+01 -0.11981108708E+02  0.24695612416E+01  0.13915413531E+02  0.00000000000E+00 0.  1.
</event>
<event>
 7    1  0.2945316E-011  0.5052886E+02  0.7816164E-02  0.1300439E+00
        -11   -1    0    0    0    0  0.00000000000E+00  0.00000000000E+00  0.45593999997E+02  0.45594000000E+02  0.51100000000E-03 0. -1.
         11   -1    0    0    0    0 -0.00000000000E+00 -0.00000000000E+00 -0.45593999997E+02  0.45594000000E+02  0.51100000000E-03 0.  1.
    9900012    2    1    2    0    0 -0.10046672172E+02  0.17353763564E+02  0.35370568543E+02  0.50528857724E+02  0.29999993536E+02 0.  0.
        -12    1    1    2    0    0  0.10046672172E+02 -0.17353763564E+02 -0.35370568543E+02  0.40659142276E+02  0.00000000000E+00 0.  1.
         11    1    3    3    0    0 -0.30745698575E+01  0.97360872763E+01  0.38667220939E+01  0.10917688184E+02  0.51100000000E-03 0. -1.
        -11    1    3    3    0    0 -0.82733262931E+01  0.56015435017E+00  0.10917700929E+01  0.83638306442E+01  0.51100000000E-03 0.  1.
         12    1    3    3    0    0  0.13012239784E+01  0.70575219375E+01  0.30412076357E+02  0.31247338896E+02  0.00000000000E+00 0. -1.
</event>
<event>
 7    1  0.2945316E-011  0.5052886E+02  0.7816164E-02  0.1300439E+00
        -11   -1    0    0    0    0  0.00000000000E+00  0.00000000000E+00  0.45593999997E+02  0.45594000000E+02  0.51100000000E-03 0. -1.
         11   -1    0    0    0    0 -0.00000000000E+00 -0.00000000000E+00 -0.45593999997E+02  0.45594000000E+02  0.51100000000E-03 0.  1.
    9900012    2    1    2    0    0 -0.19514032685E+01 -0.13218682902E+02  0.38400831195E+02  0.50528863403E+02  0.30000010799E+02 0.  0.
        -12    1    1    2    0    0  0.19514032685E+01  0.13218682902E+02 -0.38400831195E+02  0.40659136597E+02  0.00000000000E+00 0.  1.
         11    1    3    3    0    0 -0.53365545114E+01 -0.25305743989E+01 -0.57634094538E+00  0.59342050848E+01  0.51100000000E-03 0.  1.
        -11    1    3    3    0    0  0.10949276273E+02 -0.43520577731E+01  0.20319366195E+02  0.23488373733E+02  0.51100000000E-03 0. -1.
         12    1    3    3    0    0 -0.75641250297E+01 -0.63360507299E+01  0.18657805945E+02  0.21106284585E+02  0.00000000000E+00 0. -1.
</event>
<event>
 7    1  0.2945316E-011  0.5052886E+02  0.7816164E-02  0.1300439E+00
        -11   -1    0    0    0    0  0.00000000000E+00  0.00000000000E+00  0.45593999997E+02  0.45594000000E+02  0.51100000000E-03 0. -1.
         11   -1    0    0    0    0 -0.00000000000E+00 -0.00000000000E+00 -0.45593999997E+02  0.45594000000E+02  0.51100000000E-03 0.  1.
    9900012    2    1    2    0    0  0.42109805867E+01  0.11704112957E+02  0.38709781112E+02  0.50528858699E+02  0.29999996501E+02 0.  0.
        -12    1    1    2    0    0 -0.42109805867E+01 -0.11704112957E+02 -0.38709781112E+02  0.40659141301E+02  0.00000000000E+00 0.  1.
         11    1    3    3    0    0  0.19399261139E+01  0.52553487369E+01 -0.48103576427E+00  0.56225794206E+01  0.51100000000E-03 0. -1.
        -11    1    3    3    0    0  0.44846198010E+01  0.11547742465E+02  0.12337262637E+02  0.17483427022E+02  0.51100000000E-03 0.  1.
        -12    1    3    3    0    0 -0.22135653282E+01 -0.50989782445E+01  0.26853554239E+02  0.27422852256E+02  0.00000000000E+00 0.  1.
</event>
<event>
 7    1  0.2945316E-011  0.5052885E+02  0.7816164E-02  0.1300439E+00
        -11   -1    0    0    0    0  0.00000000000E+00  0.00000000000E+00  0.45593999997E+02  0.45594000000E+02  0.51100000000E-03 0. -1.
         11   -1    0    0    0    0 -0.00000000000E+00 -0.00000000000E+00 -0.45593999997E+02  0.45594000000E+02  0.51100000000E-03 0.  1.
    9900012    2    1    2    0    0 -0.38144324074E+02 -0.11841352240E+02  0.76130990321E+01  0.50528851475E+02  0.29999974542E+02 0.  0.
        -12    1    1    2    0    0  0.38144324074E+02  0.11841352240E+02 -0.76130990321E+01  0.40659148525E+02  0.00000000000E+00 0.  1.
         11    1    3    3    0    0 -0.55846600875E+01  0.25426664016E+01 -0.76087972902E+01  0.97748338701E+01  0.51100000000E-03 0. -1.
        -11    1    3    3    0    0  0.42891683867E+00  0.71127038561E+00 -0.74660399173E+00  0.11168227243E+01  0.51100000000E-03 0.  1.
         12    1    3    3    0    0 -0.32988580825E+02 -0.15095289028E+02  0.15968500314E+02  0.39637194880E+02  0.00000000000E+00 0. -1.
</event>
<event>
 7    1  0.2945316E-011  0.5052883E+02  0.7816164E-02  0.1300439E+00
        -11   -1    0    0    0    0  0.00000000000E+00  0.00000000000E+00  0.45593999997E+02  0.45594000000E+02  0.51100000000E-03 0.  1.
         11   -1    0    0    0    0 -0.00000000000E+00 -0.00000000000E+00 -0.45593999997E+02  0.45594000000E+02  0.51100000000E-03 0. -1.
    9900012    2    1    2    0    0 -0.66399857837E+01  0.24919825103E+02 -0.31433762132E+02  0.50528825191E+02  0.29999894650E+02 0.  0.
        -12    1    1    2    0    0  0.66399857837E+01 -0.24919825103E+02  0.31433762132E+02  0.40659174809E+02  0.00000000000E+00 0.  1.
         11    1    3    3    0    0  0.23346782497E+01  0.89675451543E+01 -0.24785884855E+02  0.26461437545E+02  0.51100000000E-03 0. -1.
        -11    1    3    3    0    0  0.15960644538E+01 -0.17046731756E+01 -0.17365192415E+01  0.29101257213E+01  0.51100000000E-03 0.  1.
        -12    1    3    3    0    0 -0.10570728487E+02  0.17656953125E+02 -0.49113580354E+01  0.21157261925E+02  0.00000000000E+00 0.  1.
</event>
<event>
 7    1  0.2945316E-011  0.5052887E+02  0.7816164E-02  0.1300439E+00
        -11   -1    0    0    0    0  0.00000000000E+00  0.00000000000E+00  0.45593999997E+02  0.45594000000E+02  0.51100000000E-03 0.  1.
         11   -1    0    0    0    0 -0.00000000000E+00 -0.00000000000E+00 -0.45593999997E+02  0.45594000000E+02  0.51100000000E-03 0. -1.
    9900012    2    1    2    0    0 -0.10585518795E+02 -0.21088424917E+02 -0.33111783503E+02  0.50528867196E+02  0.30000022328E+02 0.  0.
        -12    1    1    2    0    0  0.10585518795E+02  0.21088424917E+02  0.33111783503E+02  0.40659132804E+02  0.00000000000E+00 0.  1.
         11    1    3    3    0    0  0.27313235450E+01 -0.17571865617E+02 -0.72914034938E+01  0.19219655427E+02  0.51100000000E-03 0. -1.
        -11    1    3    3    0    0 -0.82702248227E+01 -0.75506714734E+01 -0.17471343504E+02  0.20752279451E+02  0.51100000000E-03 0.  1.
        -12    1    3    3    0    0 -0.50466175171E+01  0.40341121731E+01 -0.83490365054E+01  0.10556932318E+02  0.00000000000E+00 0.  1.
</event>
<event>
 7    1  0.2945316E-011  0.5052886E+02  0.7816164E-02  0.1300439E+00
        -11   -1    0    0    0    0  0.00000000000E+00  0.00000000000E+00  0.45593999997E+02  0.45594000000E+02  0.51100000000E-03 0.  1.
         11   -1    0    0    0    0 -0.00000000000E+00 -0.00000000000E+00 -0.45593999997E+02  0.45594000000E+02  0.51100000000E-03 0. -1.
    9900012    2    1    2    0    0  0.28181327836E+02  0.25275494769E+02 -0.14836708590E+02  0.50528858393E+02  0.29999995572E+02 0.  0.
        -12    1    1    2    0    0 -0.28181327836E+02 -0.25275494769E+02  0.14836708590E+02  0.40659141607E+02  0.00000000000E+00 0.  1.
         11    1    3    3    0    0  0.20655805389E+02  0.16279512316E+02 -0.11112848880E+02  0.28551361228E+02  0.51100000000E-03 0. -1.
        -11    1    3    3    0    0  0.73028262092E+01  0.14438140845E+02 -0.33101714214E+01  0.16515096633E+02  0.51100000000E-03 0.  1.
        -12    1    3    3    0    0  0.22269623842E+00 -0.54421583916E+01 -0.41368828809E+00  0.54624005322E+01  0.00000000000E+00 0.  1.
</event>
<event>
 7    1  0.2945316E-011  0.5052886E+02  0.7816164E-02  0.1300439E+00
        -11   -1    0    0    0    0  0.00000000000E+00  0.00000000000E+00  0.45593999997E+02  0.45594000000E+02  0.51100000000E-03 0.  1.
         11   -1    0    0    0    0 -0.00000000000E+00 -0.00000000000E+00 -0.45593999997E+02  0.45594000000E+02  0.51100000000E-03 0. -1.
    9900012    2    1    2    0    0 -0.26464050115E+02 -0.15490522493E+02 -0.26699508593E+02  0.50528855952E+02  0.29999988153E+02 0.  0.
        -12    1    1    2    0    0  0.26464050115E+02  0.15490522493E+02  0.26699508593E+02  0.40659144048E+02  0.00000000000E+00 0.  1.
         11    1    3    3    0    0  0.17257622440E+01 -0.79685948732E+01 -0.95970448614E+01  0.12592856305E+02  0.51100000000E-03 0. -1.
        -11    1    3    3    0    0 -0.23000407143E+01 -0.73182703438E+01 -0.18661885371E+01  0.78949305272E+01  0.51100000000E-03 0.  1.
         12    1    3    3    0    0 -0.25889771645E+02 -0.20365727594E+00 -0.15236275194E+02  0.30041069121E+02  0.00000000000E+00 0. -1.
</event>
<event>
 7    1  0.2945316E-011  0.5052886E+02  0.7816164E-02  0.1300439E+00
        -11   -1    0    0    0    0  0.00000000000E+00  0.00000000000E+00  0.45593999997E+02  0.45594000000E+02  0.51100000000E-03 0. -1.
         11   -1    0    0    0    0 -0.00000000000E+00 -0.00000000000E+00 -0.45593999997E+02  0.45594000000E+02  0.51100000000E-03 0.  1.
    9900012    2    1    2    0    0  0.14713312113E+02  0.25658426957E+02  0.27898555998E+02  0.50528857682E+02  0.29999993411E+02 0.  0.
        -12    1    1    2    0    0 -0.14713312113E+02 -0.25658426957E+02 -0.27898555998E+02  0.40659142318E+02  0.00000000000E+00 0.  1.
         11    1    3    3    0    0  0.12308570613E+02  0.12070706100E+02  0.19295840811E+02  0.25875322784E+02  0.51100000000E-03 0. -1.
        -11    1    3    3    0    0  0.27144635374E+01  0.14761220772E+00  0.10706510788E+02  0.11046242582E+02  0.51100000000E-03 0.  1.
        -12    1    3    3    0    0 -0.30972203827E+00  0.13440108650E+02 -0.21037956013E+01  0.13607292317E+02  0.00000000000E+00 0.  1.
</event>
<event>
 7    1  0.2945316E-011  0.5052888E+02  0.7816164E-02  0.1300439E+00
        -11   -1    0    0    0    0  0.00000000000E+00  0.00000000000E+00  0.45593999997E+02  0.45594000000E+02  0.51100000000E-03 0.  1.
         11   -1    0    0    0    0 -0.00000000000E+00 -0.00000000000E+00 -0.45593999997E+02  0.45594000000E+02  0.51100000000E-03 0. -1.
    9900012    2    1    2    0    0  0.19132502529E+02 -0.16481682619E+02 -0.31866369970E+02  0.50528879866E+02  0.30000060841E+02 0.  0.
        -12    1    1    2    0    0 -0.19132502529E+02  0.16481682619E+02  0.31866369970E+02  0.40659120134E+02  0.00000000000E+00 0.  1.
         11    1    3    3    0    0  0.99473969653E+01  0.51810104516E+01 -0.13537031728E+02  0.17579670189E+02  0.51100000000E-03 0. -1.
        -11    1    3    3    0    0  0.95927203767E+01 -0.65409275961E+01 -0.11534120484E+02  0.16365816620E+02  0.51100000000E-03 0.  1.
         12    1    3    3    0    0 -0.40761481265E+00 -0.15121765475E+02 -0.67952177576E+01  0.16583393057E+02  0.00000000000E+00 0. -1.
</event>
<event>
 7    1  0.2945316E-011  0.5052886E+02  0.7816164E-02  0.1300439E+00
        -11   -1    0    0    0    0  0.00000000000E+00  0.00000000000E+00  0.45593999997E+02  0.45594000000E+02  0.51100000000E-03 0.  1.
         11   -1    0    0    0    0 -0.00000000000E+00 -0.00000000000E+00 -0.45593999997E+02  0.45594000000E+02  0.51100000000E-03 0. -1.
    9900012    2    1    2    0    0  0.39700174321E+00  0.49365536530E+01 -0.40356389921E+02  0.50528863514E+02  0.30000011137E+02 0.  0.
        -12    1    1    2    0    0 -0.39700174321E+00 -0.49365536530E+01  0.40356389921E+02  0.40659136486E+02  0.00000000000E+00 0.  1.
         11    1    3    3    0    0 -0.44869913220E+01 -0.52683907297E+01 -0.33629748446E+02  0.34334370721E+02  0.51100000000E-03 0. -1.
        -11    1    3    3    0    0  0.61580367976E+00  0.13710921500E+01  0.23758103490E+01  0.28113311671E+01  0.51100000000E-03 0.  1.
        -12    1    3    3    0    0  0.42681893854E+01  0.88338522327E+01 -0.91024518240E+01  0.13383161626E+02  0.00000000000E+00 0.  1.
</event>
<event>
 7    1  0.2945316E-011  0.5052886E+02  0.7816164E-02  0.1300439E+00
        -11   -1    0    0    0    0  0.00000000000E+00  0.00000000000E+00  0.45593999997E+02  0.45594000000E+02  0.51100000000E-03 0. -1.
         11   -1    0    0    0    0 -0.00000000000E+00 -0.00000000000E+00 -0.45593999997E+02  0.45594000000E+02  0.51100000000E-03 0.  1.
    9900012    2    1    2    0    0  0.35533551155E+02  0.19651916702E+02  0.20820034432E+01  0.50528858026E+02  0.29999994456E+02 0.  0.
        -12    1    1    2    0    0 -0.35533551155E+02 -0.19651916702E+02 -0.20820034432E+01  0.40659141974E+02  0.00000000000E+00 0.  1.
         11    1    3    3    0    0  0.18872794624E+02  0.23356104367E+01 -0.31655026747E+01  0.19278429928E+02  0.51100000000E-03 0. -1.
        -11    1    3    3    0    0  0.93902025574E+01  0.10944796478E+02 -0.66834989719E+01  0.15894452893E+02  0.51100000000E-03 0.  1.
        -12    1    3    3    0    0  0.72705539733E+01  0.63715097876E+01  0.11931005090E+02  0.15355975205E+02  0.00000000000E+00 0.  1.
</event>
<event>
 7    1  0.2945316E-011  0.5052886E+02  0.7816164E-02  0.1300439E+00
        -11   -1    0    0    0    0  0.00000000000E+00  0.00000000000E+00  0.45593999997E+02  0.45594000000E+02  0.51100000000E-03 0.  1.
         11   -1    0    0    0    0 -0.00000000000E+00 -0.00000000000E+00 -0.45593999997E+02  0.45594000000E+02  0.51100000000E-03 0. -1.
    9900012    2    1    2    0    0 -0.34157901272E+02 -0.20490510305E+02 -0.81573578260E+01  0.50528859348E+02  0.29999998475E+02 0.  0.
        -12    1    1    2    0    0  0.34157901272E+02  0.20490510305E+02  0.81573578260E+01  0.40659140652E+02  0.00000000000E+00 0.  1.
         11    1    3    3    0    0  0.63905991733E+00 -0.59392008507E+01  0.28785477859E+00  0.59804151159E+01  0.51100000000E-03 0. -1.
        -11    1    3    3    0    0 -0.41475917924E+01 -0.11981978977E+02 -0.10154224228E+00  0.12679930953E+02  0.51100000000E-03 0.  1.
        -12    1    3    3    0    0 -0.30649369397E+02 -0.25693304768E+01 -0.83436703623E+01  0.31868513279E+02  0.00000000000E+00 0.  1.
</event>
<event>
 7    1  0.2945316E-011  0.5052885E+02  0.7816164E-02  0.1300439E+00
        -11   -1    0    0    0    0  0.00000000000E+00  0.00000000000E+00  0.45593999997E+02  0.45594000000E+02  0.51100000000E-03 0.  1.
         11   -1    0    0    0    0 -0.00000000000E+00 -0.00000000000E+00 -0.45593999997E+02  0.45594000000E+02  0.51100000000E-03 0. -1.
    9900012    2    1    2    0    0 -0.33547420747E+02  0.12382753176E+02 -0.19349528821E+02  0.50528852437E+02  0.29999977466E+02 0.  0.
        -12    1    1    2    0    0  0.33547420747E+02 -0.12382753176E+02  0.19349528821E+02  0.40659147563E+02  0.00000000000E+00 0.  1.
         11    1    3    3    0    0 -0.18576784201E+02  0.73440895125E+01 -0.43075550755E+01  0.20434960069E+02  0.51100000000E-03 0. -1.
        -11    1    3    3    0    0 -0.40068182949E+01 -0.92371078153E-01  0.51655641876E+01  0.65380562021E+01  0.51100000000E-03 0.  1.
         12    1    3    3    0    0 -0.10963818251E+02  0.51310347419E+01 -0.20207537933E+02  0.23555836166E+02  0.00000000000E+00 0. -1.
</event>
<event>
 7    1  0.2945316E-011  0.5052887E+02  0.7816164E-02  0.1300439E+00
        -11   -1    0    0    0    0  0.00000000000E+00  0.00000000000E+00  0.45593999997E+02  0.45594000000E+02  0.51100000000E-03 0.  1.
         11   -1    0    0    0    0 -0.00000000000E+00 -0.00000000000E+00 -0.45593999997E+02  0.45594000000E+02  0.51100000000E-03 0. -1.
    9900012    2    1    2    0    0  0.13909287744E+02  0.93225652614E+00 -0.38194604251E+02  0.50528865951E+02  0.30000018543E+02 0.  0.
        -12    1    1    2    0    0 -0.13909287744E+02 -0.93225652614E+00  0.38194604251E+02  0.40659134049E+02  0.00000000000E+00 0.  1.
         11    1    3    3    0    0  0.28532935424E+01  0.12876699295E+01 -0.13519227286E+02  0.13876919131E+02  0.51100000000E-03 0. -1.
        -11    1    3    3    0    0 -0.69278952156E+01 -0.23774373087E+01 -0.13565689102E+02  0.15416739647E+02  0.51100000000E-03 0.  1.
        -12    1    3    3    0    0  0.17983889417E+02  0.20220239053E+01 -0.11109687862E+02  0.21235207172E+02  0.00000000000E+00 0.  1.
</event>
<event>
 7    1  0.2945316E-011  0.5052886E+02  0.7816164E-02  0.1300439E+00
        -11   -1    0    0    0    0  0.00000000000E+00  0.00000000000E+00  0.45593999997E+02  0.45594000000E+02  0.51100000000E-03 0.  1.
         11   -1    0    0    0    0 -0.00000000000E+00 -0.00000000000E+00 -0.45593999997E+02  0.45594000000E+02  0.51100000000E-03 0. -1.
    9900012    2    1    2    0    0  0.32581771691E+02  0.22871141885E+02 -0.82767578802E+01  0.50528859593E+02  0.29999999219E+02 0.  0.
        -12    1    1    2    0    0 -0.32581771691E+02 -0.22871141885E+02  0.82767578802E+01  0.40659140407E+02  0.00000000000E+00 0.  1.
         11    1    3    3    0    0  0.67491009351E+01  0.24985591300E+01 -0.32181063707E+01  0.78834871747E+01  0.51100000000E-03 0. -1.
        -11    1    3    3    0    0  0.21513251430E+02  0.54140495053E-01 -0.36934424088E+01  0.21828065314E+02  0.51100000000E-03 0.  1.
        -12    1    3    3    0    0  0.43194193255E+01  0.20318442260E+02 -0.13652091007E+01  0.20817307104E+02  0.00000000000E+00 0.  1.
</event>
<event>
 7    1  0.2945316E-011  0.5052886E+02  0.7816164E-02  0.1300439E+00
        -11   -1    0    0    0    0  0.00000000000E+00  0.00000000000E+00  0.45593999997E+02  0.45594000000E+02  0.51100000000E-03 0.  1.
         11   -1    0    0    0    0 -0.00000000000E+00 -0.00000000000E+00 -0.45593999997E+02  0.45594000000E+02  0.51100000000E-03 0. -1.
    9900012    2    1    2    0    0  0.12167967904E+02 -0.47636386699E+01 -0.38502127037E+02  0.50528862249E+02  0.30000007292E+02 0.  0.
        -12    1    1    2    0    0 -0.12167967904E+02  0.47636386699E+01  0.38502127037E+02  0.40659137751E+02  0.00000000000E+00 0.  1.
         11    1    3    3    0    0  0.91742294744E+01 -0.76503991163E+01 -0.21443238031E+02  0.24546029223E+02  0.51100000000E-03 0. -1.
        -11    1    3    3    0    0  0.82384160249E+01  0.17701511204E+00 -0.18192421010E+02  0.19971655300E+02  0.51100000000E-03 0.  1.
        -12    1    3    3    0    0 -0.52446775949E+01  0.27097453344E+01  0.11335320046E+01  0.60111777263E+01  0.00000000000E+00 0.  1.
</event>
<event>
 7    1  0.2945316E-011  0.5052885E+02  0.7816164E-02  0.1300439E+00
        -11   -1    0    0    0    0  0.00000000000E+00  0.00000000000E+00  0.45593999997E+02  0.45594000000E+02  0.51100000000E-03 0.  1.
         11   -1    0    0    0    0 -0.00000000000E+00 -0.00000000000E+00 -0.45593999997E+02  0.45594000000E+02  0.51100000000E-03 0. -1.
    9900012    2    1    2    0    0  0.60391594937E+01 -0.17306594904E+02 -0.36292931867E+02  0.50528848779E+02  0.29999966348E+02 0.  0.
        -12    1    1    2    0    0 -0.60391594937E+01  0.17306594904E+02  0.36292931867E+02  0.40659151221E+02  0.00000000000E+00 0.  1.
         11    1    3    3    0    0 -0.36161913703E+01 -0.26661397958E+01 -0.24256546950E+02  0.24669114529E+02  0.51100000000E-03 0. -1.
        -11    1    3    3    0    0  0.92566196479E+01 -0.98098091046E+01 -0.15004933510E+02  0.20175861614E+02  0.51100000000E-03 0.  1.
        -12    1    3    3    0    0  0.39873121614E+00 -0.48306460031E+01  0.29685485933E+01  0.56838726358E+01  0.00000000000E+00 0.  1.
</event>
<event>
 7    1  0.2945316E-011  0.5052885E+02  0.7816164E-02  0.1300439E+00
        -11   -1    0    0    0    0  0.00000000000E+00  0.00000000000E+00  0.45593999997E+02  0.45594000000E+02  0.51100000000E-03 0.  1.
         11   -1    0    0    0    0 -0.00000000000E+00 -0.00000000000E+00 -0.45593999997E+02  0.45594000000E+02  0.51100000000E-03 0. -1.
    9900012    2    1    2    0    0  0.87360254154E+01  0.65859540495E+01 -0.39159587233E+02  0.50528853390E+02  0.29999980364E+02 0.  0.
        -12    1    1    2    0    0 -0.87360254154E+01 -0.65859540495E+01  0.39159587233E+02  0.40659146610E+02  0.00000000000E+00 0.  1.
         11    1    3    3    0    0  0.13912657622E+02  0.23398496946E+01 -0.14204321456E+02  0.20019982192E+02  0.51100000000E-03 0. -1.
        -11    1    3    3    0    0  0.51536965605E+01  0.40328733822E+01 -0.57993083765E+01  0.87439484137E+01  0.51100000000E-03 0.  1.
        -12    1    3    3    0    0 -0.10330328767E+02  0.21323097266E+00 -0.19155957400E+02  0.21764922784E+02  0.00000000000E+00 0.  1.
</event>
<event>
 7    1  0.2945316E-011  0.5052886E+02  0.7816164E-02  0.1300439E+00
        -11   -1    0    0    0    0  0.00000000000E+00  0.00000000000E+00  0.45593999997E+02  0.45594000000E+02  0.51100000000E-03 0.  1.
         11   -1    0    0    0    0 -0.00000000000E+00 -0.00000000000E+00 -0.45593999997E+02  0.45594000000E+02  0.51100000000E-03 0. -1.
    9900012    2    1    2    0    0  0.15450747592E+02 -0.92591642174E-01 -0.37608933502E+02  0.50528855229E+02  0.29999985953E+02 0.  0.
        -12    1    1    2    0    0 -0.15450747592E+02  0.92591642174E-01  0.37608933502E+02  0.40659144771E+02  0.00000000000E+00 0.  1.
         11    1    3    3    0    0 -0.21474096712E+01 -0.40416162564E+01 -0.52452392021E+01  0.69612186296E+01  0.51100000000E-03 0. -1.
        -11    1    3    3    0    0 -0.39914809600E+01  0.40317882094E+01 -0.14415451130E+02  0.15491690287E+02  0.51100000000E-03 0.  1.
        -12    1    3    3    0    0  0.21589638223E+02 -0.82763595168E-01 -0.17948243171E+02  0.28075946312E+02  0.00000000000E+00 0.  1.
</event>
<event>
 7    1  0.3009433E-011  0.5052886E+02  0.7816164E-02  0.1300439E+00
        -11   -1    0    0    0    0  0.00000000000E+00  0.00000000000E+00  0.45593999997E+02  0.45594000000E+02  0.51100000000E-03 0. -1.
         11   -1    0    0    0    0 -0.00000000000E+00 -0.00000000000E+00 -0.45593999997E+02  0.45594000000E+02  0.51100000000E-03 0.  1.
    9900012    2    1    2    0    0  0.18715594191E+02 -0.13495263900E+02  0.33477897863E+02  0.50528865000E+02  0.30000015654E+02 0.  0.
        -12    1    1    2    0    0 -0.18715594191E+02  0.13495263900E+02 -0.33477897863E+02  0.40659135000E+02  0.00000000000E+00 0.  1.
         11    1    3    3    0    0  0.79186805077E+01  0.43076934294E+01  0.36400744159E+01  0.97217213331E+01  0.51100000000E-03 0. -1.
        -11    1    3    3    0    0 -0.14472323024E+01 -0.47922880231E+01 -0.10588419636E+01  0.51168009927E+01  0.51100000000E-03 0.  1.
         12    1    3    3    0    0  0.12244145986E+02 -0.13010669307E+02  0.30896665410E+02  0.35690342674E+02  0.00000000000E+00 0. -1.
</event>
<event>
 7    1  0.2945316E-011  0.5052886E+02  0.7816164E-02  0.1300439E+00
        -11   -1    0    0    0    0  0.00000000000E+00  0.00000000000E+00  0.45593999997E+02  0.45594000000E+02  0.51100000000E-03 0.  1.
         11   -1    0    0    0    0 -0.00000000000E+00 -0.00000000000E+00 -0.45593999997E+02  0.45594000000E+02  0.51100000000E-03 0. -1.
    9900012    2    1    2    0    0 -0.11448730830E+01  0.39307070219E+02  0.10334856323E+02  0.50528858853E+02  0.29999996970E+02 0.  0.
        -12    1    1    2    0    0  0.11448730830E+01 -0.39307070219E+02 -0.10334856323E+02  0.40659141147E+02  0.00000000000E+00 0.  1.
         11    1    3    3    0    0  0.50331765564E-01  0.13090218511E+02  0.11832385477E+02  0.17645444179E+02  0.51100000000E-03 0. -1.
        -11    1    3    3    0    0 -0.26922438905E+01 -0.83309340104E+00  0.43357666128E+01  0.51711791849E+01  0.51100000000E-03 0.  1.
         12    1    3    3    0    0  0.14970390419E+01  0.27049945109E+02 -0.58332957667E+01  0.27712235489E+02  0.00000000000E+00 0. -1.
</event>
<event>
 7    1  0.2945316E-011  0.5052886E+02  0.7816164E-02  0.1300439E+00
        -11   -1    0    0    0    0  0.00000000000E+00  0.00000000000E+00  0.45593999997E+02  0.45594000000E+02  0.51100000000E-03 0. -1.
         11   -1    0    0    0    0 -0.00000000000E+00 -0.00000000000E+00 -0.45593999997E+02  0.45594000000E+02  0.51100000000E-03 0.  1.
    9900012    2    1    2    0    0  0.32685173309E+02 -0.22973208852E+02  0.75549190856E+01  0.50528859803E+02  0.29999999858E+02 0.  0.
        -12    1    1    2    0    0 -0.32685173309E+02  0.22973208852E+02 -0.75549190856E+01  0.40659140197E+02  0.00000000000E+00 0.  1.
         11    1    3    3    0    0  0.54641698015E+00 -0.52274229854E+01 -0.27877907819E+01  0.59494789930E+01  0.51100000000E-03 0. -1.
        -11    1    3    3    0    0  0.22693177401E+02 -0.92692107097E+01 -0.46351204551E+01  0.24947603284E+02  0.51100000000E-03 0.  1.
         12    1    3    3    0    0  0.94455789276E+01 -0.84765751566E+01  0.14977830323E+02  0.19631777526E+02  0.00000000000E+00 0. -1.
</event>
<event>
 7    1  0.2945316E-011  0.5052885E+02  0.7816164E-02  0.1300439E+00
        -11   -1    0    0    0    0  0.00000000000E+00  0.00000000000E+00  0.45593999997E+02  0.45594000000E+02  0.51100000000E-03 0.  1.
         11   -1    0    0    0    0 -0.00000000000E+00 -0.00000000000E+00 -0.45593999997E+02  0.45594000000E+02  0.51100000000E-03 0. -1.
    9900012    2    1    2    0    0 -0.15500390227E+00 -0.35676120228E+02 -0.19502734189E+02  0.50528853163E+02  0.29999979673E+02 0.  0.
        -12    1    1    2    0    0  0.15500390227E+00  0.35676120228E+02  0.19502734189E+02  0.40659146837E+02  0.00000000000E+00 0.  1.
         11    1    3    3    0    0  0.50819891719E+01 -0.17336294877E+01 -0.64737528954E+01  0.84108003160E+01  0.51100000000E-03 0. -1.
        -11    1    3    3    0    0 -0.33345062916E+01 -0.27495028452E+01  0.45390936092E+01  0.62675409180E+01  0.51100000000E-03 0.  1.
         12    1    3    3    0    0 -0.19024867825E+01 -0.31192987895E+02 -0.17568074903E+02  0.35850511929E+02  0.00000000000E+00 0. -1.
</event>
<event>
 7    1  0.2945316E-011  0.5052886E+02  0.7816164E-02  0.1300439E+00
        -11   -1    0    0    0    0  0.00000000000E+00  0.00000000000E+00  0.45593999997E+02  0.45594000000E+02  0.51100000000E-03 0. -1.
         11   -1    0    0    0    0 -0.00000000000E+00 -0.00000000000E+00 -0.45593999997E+02  0.45594000000E+02  0.51100000000E-03 0.  1.
    9900012    2    1    2    0    0 -0.25329498540E+02  0.96492635127E+01  0.30306336202E+02  0.50528858388E+02  0.29999995558E+02 0.  0.
        -12    1    1    2    0    0  0.25329498540E+02 -0.96492635127E+01 -0.30306336202E+02  0.40659141612E+02  0.00000000000E+00 0.  1.
         11    1    3    3    0    0 -0.86610501583E+01 -0.32646354607E+00  0.36090070149E+01  0.93885728514E+01  0.51100000000E-03 0. -1.
        -11    1    3    3    0    0 -0.17516336555E+02 -0.33027072135E+01  0.13141349073E+02  0.22145540792E+02  0.51100000000E-03 0.  1.
        -12    1    3    3    0    0  0.84788817393E+00  0.13278434272E+02  0.13555980114E+02  0.18994744745E+02  0.00000000000E+00 0.  1.
</event>
<event>
 7    1  0.2945316E-011  0.5052886E+02  0.7816164E-02  0.1300439E+00
        -11   -1    0    0    0    0  0.00000000000E+00  0.00000000000E+00  0.45593999997E+02  0.45594000000E+02  0.51100000000E-03 0.  1.
         11   -1    0    0    0    0 -0.00000000000E+00 -0.00000000000E+00 -0.45593999997E+02  0.45594000000E+02  0.51100000000E-03 0. -1.
    9900012    2    1    2    0    0  0.39850527832E+02 -0.54336843866E+01 -0.59645930688E+01  0.50528857548E+02  0.29999993002E+02 0.  0.
        -12    1    1    2    0    0 -0.39850527832E+02  0.54336843866E+01  0.59645930688E+01  0.40659142452E+02  0.00000000000E+00 0.  1.
         11    1    3    3    0    0  0.59896512452E+01 -0.38575493381E+01  0.15317436722E+01  0.72871700868E+01  0.51100000000E-03 0. -1.
        -11    1    3    3    0    0  0.51026774829E+01  0.34849953877E+01  0.80600988174E+01  0.10156165790E+02  0.51100000000E-03 0.  1.
         12    1    3    3    0    0  0.28758199103E+02 -0.50611304361E+01 -0.15556435558E+02  0.33085521671E+02  0.00000000000E+00 0. -1.
</event>
<event>
 7    1  0.2945316E-011  0.5052886E+02  0.7816164E-02  0.1300439E+00
        -11   -1    0    0    0    0  0.00000000000E+00  0.00000000000E+00  0.45593999997E+02  0.45594000000E+02  0.51100000000E-03 0. -1.
         11   -1    0    0    0    0 -0.00000000000E+00 -0.00000000000E+00 -0.45593999997E+02  0.45594000000E+02  0.51100000000E-03 0.  1.
    9900012    2    1    2    0    0  0.16343191907E+02 -0.37191198753E+02 -0.16971678100E+01  0.50528861236E+02  0.30000004214E+02 0.  0.
        -12    1    1    2    0    0 -0.16343191907E+02  0.37191198753E+02  0.16971678100E+01  0.40659138764E+02  0.00000000000E+00 0.  1.
         11    1    3    3    0    0  0.14187140977E+02 -0.21096303336E+02  0.94872225090E+01  0.27135518693E+02  0.51100000000E-03 0.  1.
        -11    1    3    3    0    0  0.39767300267E+01 -0.37503214753E+01  0.14298440852E+01  0.56501103744E+01  0.51100000000E-03 0. -1.
         12    1    3    3    0    0 -0.18206790969E+01 -0.12344573942E+02 -0.12614234404E+02  0.17743232169E+02  0.00000000000E+00 0. -1.
</event>
<event>
 7    1  0.2945316E-011  0.5052882E+02  0.7816164E-02  0.1300439E+00
        -11   -1    0    0    0    0  0.00000000000E+00  0.00000000000E+00  0.45593999997E+02  0.45594000000E+02  0.51100000000E-03 0.  1.
         11   -1    0    0    0    0 -0.00000000000E+00 -0.00000000000E+00 -0.45593999997E+02  0.45594000000E+02  0.51100000000E-03 0. -1.
    9900012    2    1    2    0    0  0.32102917145E+01  0.18102847552E+01 -0.40491800187E+02  0.50528819165E+02  0.29999876335E+02 0.  0.
        -12    1    1    2    0    0 -0.32102917145E+01 -0.18102847552E+01  0.40491800187E+02  0.40659180835E+02  0.00000000000E+00 0.  1.
         11    1    3    3    0    0  0.16640446767E+01 -0.51745080198E+01 -0.40770667236E+02  0.41131397801E+02  0.51100000000E-03 0. -1.
        -11    1    3    3    0    0 -0.87640662655E-01 -0.26937989311E+00 -0.16833176577E+01  0.17069871149E+01  0.51100000000E-03 0.  1.
        -12    1    3    3    0    0  0.16338877004E+01  0.72541726681E+01  0.19621847073E+01  0.76904342492E+01  0.00000000000E+00 0.  1.
</event>
<event>
 7    1  0.2945316E-011  0.5052886E+02  0.7816164E-02  0.1300439E+00
        -11   -1    0    0    0    0  0.00000000000E+00  0.00000000000E+00  0.45593999997E+02  0.45594000000E+02  0.51100000000E-03 0. -1.
         11   -1    0    0    0    0 -0.00000000000E+00 -0.00000000000E+00 -0.45593999997E+02  0.45594000000E+02  0.51100000000E-03 0.  1.
    9900012    2    1    2    0    0 -0.30597151656E+02  0.26732111977E+02 -0.15407759380E+01  0.50528862150E+02  0.30000006992E+02 0.  0.
        -12    1    1    2    0    0  0.30597151656E+02 -0.26732111977E+02  0.15407759380E+01  0.40659137850E+02  0.00000000000E+00 0.  1.
         11    1    3    3    0    0 -0.17766639179E+02  0.44963986167E+01 -0.70334932621E+01  0.19630106876E+02  0.51100000000E-03 0. -1.
        -11    1    3    3    0    0 -0.68996318175E+01 -0.44585422418E+00  0.19873812050E+01  0.71939828691E+01  0.51100000000E-03 0.  1.
         12    1    3    3    0    0 -0.59308806597E+01  0.22681567584E+02  0.35053361191E+01  0.23704772405E+02  0.00000000000E+00 0. -1.
</event>
<event>
 7    1  0.2945316E-011  0.5052884E+02  0.7816164E-02  0.1300439E+00
        -11   -1    0    0    0    0  0.00000000000E+00  0.00000000000E+00  0.45593999997E+02  0.45594000000E+02  0.51100000000E-03 0.  1.
         11   -1    0    0    0    0 -0.00000000000E+00 -0.00000000000E+00 -0.45593999997E+02  0.45594000000E+02  0.51100000000E-03 0. -1.
    9900012    2    1    2    0    0  0.13333443761E+02 -0.16301953069E+02 -0.34779773114E+02  0.50528843414E+02  0.29999950041E+02 0.  0.
        -12    1    1    2    0    0 -0.13333443761E+02  0.16301953069E+02  0.34779773114E+02  0.40659156586E+02  0.00000000000E+00 0.  1.
         11    1    3    3    0    0  0.10385608778E+02  0.69172764227E+01 -0.10954725433E+02  0.16604685856E+02  0.51100000000E-03 0. -1.
        -11    1    3    3    0    0 -0.16056768170E+00 -0.78185197943E+01 -0.11724350512E+02  0.14093098628E+02  0.51100000000E-03 0.  1.
        -12    1    3    3    0    0  0.31084026651E+01 -0.15400709697E+02 -0.12100697169E+02  0.19831058930E+02  0.00000000000E+00 0.  1.
</event>
<event>
 7    1  0.2945316E-011  0.5052887E+02  0.7816164E-02  0.1300439E+00
        -11   -1    0    0    0    0  0.00000000000E+00  0.00000000000E+00  0.45593999997E+02  0.45594000000E+02  0.51100000000E-03 0.  1.
         11   -1    0    0    0    0 -0.00000000000E+00 -0.00000000000E+00 -0.45593999997E+02  0.45594000000E+02  0.51100000000E-03 0. -1.
    9900012    2    1    2    0    0  0.16252283737E+02 -0.17373692253E+02 -0.32972461075E+02  0.50528866974E+02  0.30000021653E+02 0.  0.
        -12    1    1    2    0    0 -0.16252283737E+02  0.17373692253E+02  0.32972461075E+02  0.40659133026E+02  0.00000000000E+00 0.  1.
         11    1    3    3    0    0 -0.45827917257E+01 -0.72750241824E+01 -0.13163180127E+02  0.15722508330E+02  0.51100000000E-03 0. -1.
        -11    1    3    3    0    0  0.10606537504E+02 -0.11175836209E+02 -0.39534070526E+01  0.15906834392E+02  0.51100000000E-03 0.  1.
        -12    1    3    3    0    0  0.10228537959E+02  0.10771681391E+01 -0.15855873895E+02  0.18899524252E+02  0.00000000000E+00 0.  1.
</event>
<event>
 7    1  0.2945316E-011  0.5052900E+02  0.7816164E-02  0.1300438E+00
        -11   -1    0    0    0    0  0.00000000000E+00  0.00000000000E+00  0.45593999997E+02  0.45594000000E+02  0.51100000000E-03 0.  1.
         11   -1    0    0    0    0 -0.00000000000E+00 -0.00000000000E+00 -0.45593999997E+02  0.45594000000E+02  0.51100000000E-03 0. -1.
    9900012    2    1    2    0    0  0.25704453551E+02  0.29080423672E+02 -0.12114644154E+02  0.50528996369E+02  0.30000414961E+02 0.  0.
        -12    1    1    2    0    0 -0.25704453551E+02 -0.29080423672E+02  0.12114644154E+02  0.40659003631E+02  0.00000000000E+00 0.  1.
         11    1    3    3    0    0  0.75432873536E+01  0.53569976002E+01 -0.99979831644E+01  0.13621977647E+02  0.51100000000E-03 0. -1.
        -11    1    3    3    0    0  0.12354750553E+02  0.39059879965E+01 -0.82547847278E+01  0.15363530669E+02  0.51100000000E-03 0.  1.
         12    1    3    3    0    0  0.58064156445E+01  0.19817438075E+02  0.61381237387E+01  0.21543488054E+02  0.00000000000E+00 0. -1.
</event>
<event>
 7    1  0.2945316E-011  0.5052885E+02  0.7816164E-02  0.1300439E+00
        -11   -1    0    0    0    0  0.00000000000E+00  0.00000000000E+00  0.45593999997E+02  0.45594000000E+02  0.51100000000E-03 0.  1.
         11   -1    0    0    0    0 -0.00000000000E+00 -0.00000000000E+00 -0.45593999997E+02  0.45594000000E+02  0.51100000000E-03 0. -1.
    9900012    2    1    2    0    0  0.20920113349E+02  0.27794542525E+02 -0.21047058578E+02  0.50528850826E+02  0.29999972571E+02 0.  0.
        -12    1    1    2    0    0 -0.20920113349E+02 -0.27794542525E+02  0.21047058578E+02  0.40659149174E+02  0.00000000000E+00 0.  1.
         11    1    3    3    0    0  0.42340364123E+01  0.27192007077E+01 -0.80323240855E+01  0.94783620581E+01  0.51100000000E-03 0. -1.
        -11    1    3    3    0    0  0.59568260041E+01  0.10398836151E+02 -0.18516340613E+02  0.22056165561E+02  0.51100000000E-03 0.  1.
        -12    1    3    3    0    0  0.10729250933E+02  0.14676505667E+02  0.55016061196E+01  0.18994323207E+02  0.00000000000E+00 0.  1.
</event>
<event>
 7    1  0.2945316E-011  0.5052885E+02  0.7816164E-02  0.1300439E+00
        -11   -1    0    0    0    0  0.00000000000E+00  0.00000000000E+00  0.45593999997E+02  0.45594000000E+02  0.51100000000E-03 0.  1.
         11   -1    0    0    0    0 -0.00000000000E+00 -0.00000000000E+00 -0.45593999997E+02  0.45594000000E+02  0.51100000000E-03 0. -1.
    9900012    2    1    2    0    0  0.34714047922E+02 -0.52253942965E+00 -0.21161957216E+02  0.50528848462E+02  0.29999965384E+02 0.  0.
        -12    1    1    2    0    0 -0.34714047922E+02  0.52253942965E+00  0.21161957216E+02  0.40659151538E+02  0.00000000000E+00 0.  1.
         11    1    3    3    0    0  0.97110516513E+01  0.62657369456E+01 -0.89310521117E+01  0.14605741191E+02  0.51100000000E-03 0. -1.
        -11    1    3    3    0    0  0.17912524243E+02  0.35604504975E+01 -0.14317287381E+02  0.23206034791E+02  0.51100000000E-03 0.  1.
        -12    1    3    3    0    0  0.70904720277E+01 -0.10348726873E+02  0.20863822760E+01  0.12717072480E+02  0.00000000000E+00 0.  1.
</event>
<event>
 7    1  0.2945316E-011  0.5052886E+02  0.7816164E-02  0.1300439E+00
        -11   -1    0    0    0    0  0.00000000000E+00  0.00000000000E+00  0.45593999997E+02  0.45594000000E+02  0.51100000000E-03 0. -1.
         11   -1    0    0    0    0 -0.00000000000E+00 -0.00000000000E+00 -0.45593999997E+02  0.45594000000E+02  0.51100000000E-03 0.  1.
    9900012    2    1    2    0    0 -0.22677409909E+02  0.15939121343E+02  0.29746346398E+02  0.50528860395E+02  0.30000001656E+02 0.  0.
        -12    1    1    2    0    0  0.22677409909E+02 -0.15939121343E+02 -0.29746346398E+02  0.40659139605E+02  0.00000000000E+00 0.  1.
         11    1    3    3    0    0 -0.69929627552E+01  0.10107168907E+01  0.36084599262E+01  0.79337292637E+01  0.51100000000E-03 0. -1.
        -11    1    3    3    0    0 -0.72497604975E+01 -0.57924337199E+01  0.16475192797E+01  0.94247353124E+01  0.51100000000E-03 0.  1.
         12    1    3    3    0    0 -0.84346866566E+01  0.20720838172E+02  0.24490367192E+02  0.33170395819E+02  0.00000000000E+00 0. -1.
</event>
<event>
 7    1  0.2945316E-011  0.5052886E+02  0.7816164E-02  0.1300439E+00
        -11   -1    0    0    0    0  0.00000000000E+00  0.00000000000E+00  0.45593999997E+02  0.45594000000E+02  0.51100000000E-03 0.  1.
         11   -1    0    0    0    0 -0.00000000000E+00 -0.00000000000E+00 -0.45593999997E+02  0.45594000000E+02  0.51100000000E-03 0. -1.
    9900012    2    1    2    0    0 -0.36115166525E+02  0.15959767675E+02 -0.97028844250E+01  0.50528863221E+02  0.30000010248E+02 0.  0.
        -12    1    1    2    0    0  0.36115166525E+02 -0.15959767675E+02  0.97028844250E+01  0.40659136779E+02  0.00000000000E+00 0.  1.
         11    1    3    3    0    0 -0.30462604261E+02  0.73648662844E+01 -0.51275364587E+01  0.31756938520E+02  0.51100000000E-03 0. -1.
        -11    1    3    3    0    0 -0.10716875183E+02  0.66230387544E+01 -0.43656328656E+01  0.13333221914E+02  0.51100000000E-03 0.  1.
        -12    1    3    3    0    0  0.50643129183E+01  0.19718626364E+01 -0.20971510078E+00  0.54387027879E+01  0.00000000000E+00 0.  1.
</event>
<event>
 7    1  0.2945316E-011  0.5052887E+02  0.7816164E-02  0.1300439E+00
        -11   -1    0    0    0    0  0.00000000000E+00  0.00000000000E+00  0.45593999997E+02  0.45594000000E+02  0.51100000000E-03 0.  1.
         11   -1    0    0    0    0 -0.00000000000E+00 -0.00000000000E+00 -0.45593999997E+02  0.45594000000E+02  0.51100000000E-03 0. -1.
    9900012    2    1    2    0    0  0.22712387834E+02  0.23252243193E+02 -0.24426327971E+02  0.50528869748E+02  0.30000030087E+02 0.  0.
        -12    1    1    2    0    0 -0.22712387834E+02 -0.23252243193E+02  0.24426327971E+02  0.40659130252E+02  0.00000000000E+00 0.  1.
         11    1    3    3    0    0  0.22091261957E+01  0.74635156160E+01  0.17935013284E+01  0.79875497604E+01  0.51100000000E-03 0. -1.
        -11    1    3    3    0    0  0.76919576834E+01  0.11726126825E+02 -0.11185576847E+01  0.14068384231E+02  0.51100000000E-03 0.  1.
        -12    1    3    3    0    0  0.12811303955E+02  0.40626007514E+01 -0.25101271615E+02  0.28472935757E+02  0.00000000000E+00 0.  1.
</event>
<event>
 7    1  0.2945316E-011  0.5052886E+02  0.7816164E-02  0.1300439E+00
        -11   -1    0    0    0    0  0.00000000000E+00  0.00000000000E+00  0.45593999997E+02  0.45594000000E+02  0.51100000000E-03 0. -1.
         11   -1    0    0    0    0 -0.00000000000E+00 -0.00000000000E+00 -0.45593999997E+02  0.45594000000E+02  0.51100000000E-03 0.  1.
    9900012    2    1    2    0    0  0.74966746132E+01  0.23740324900E+01  0.39891470082E+02  0.50528861472E+02  0.30000004929E+02 0.  0.
        -12    1    1    2    0    0 -0.74966746132E+01 -0.23740324900E+01 -0.39891470082E+02  0.40659138528E+02  0.00000000000E+00 0.  1.
         11    1    3    3    0    0 -0.27229597702E+00 -0.52895308019E+01  0.78854095193E+01  0.94991033657E+01  0.51100000000E-03 0. -1.
        -11    1    3    3    0    0  0.11682747827E+02 -0.47563477216E+01  0.16837851632E+02  0.21038599960E+02  0.51100000000E-03 0.  1.
         12    1    3    3    0    0 -0.39137772367E+01  0.12419911013E+02  0.15168208931E+02  0.19991158146E+02  0.00000000000E+00 0. -1.
</event>
<event>
 7    1  0.2945316E-011  0.5052889E+02  0.7816164E-02  0.1300439E+00
        -11   -1    0    0    0    0  0.00000000000E+00  0.00000000000E+00  0.45593999997E+02  0.45594000000E+02  0.51100000000E-03 0.  1.
         11   -1    0    0    0    0 -0.00000000000E+00 -0.00000000000E+00 -0.45593999997E+02  0.45594000000E+02  0.51100000000E-03 0. -1.
    9900012    2    1    2    0    0 -0.22212475092E+02  0.33777507352E+02  0.43415733970E+01  0.50528888940E+02  0.30000088422E+02 0.  0.
        -12    1    1    2    0    0  0.22212475092E+02 -0.33777507352E+02 -0.43415733970E+01  0.40659111060E+02  0.00000000000E+00 0.  1.
         11    1    3    3    0    0  0.47025403141E+01  0.11328783587E+02 -0.33777470313E+01  0.12722594006E+02  0.51100000000E-03 0. -1.
        -11    1    3    3    0    0 -0.14585750519E+02  0.83443131819E+01 -0.16052299111E+01  0.16880415990E+02  0.51100000000E-03 0.  1.
        -12    1    3    3    0    0 -0.12329264888E+02  0.14104410583E+02  0.93245503394E+01  0.20925878944E+02  0.00000000000E+00 0.  1.
</event>
<event>
 7    1  0.2945316E-011  0.5052886E+02  0.7816164E-02  0.1300439E+00
        -11   -1    0    0    0    0  0.00000000000E+00  0.00000000000E+00  0.45593999997E+02  0.45594000000E+02  0.51100000000E-03 0.  1.
         11   -1    0    0    0    0 -0.00000000000E+00 -0.00000000000E+00 -0.45593999997E+02  0.45594000000E+02  0.51100000000E-03 0. -1.
    9900012    2    1    2    0    0  0.38840297768E+02  0.90189427279E+01 -0.79533474085E+01  0.50528858424E+02  0.29999995667E+02 0.  0.
        -12    1    1    2    0    0 -0.38840297768E+02 -0.90189427279E+01  0.79533474085E+01  0.40659141576E+02  0.00000000000E+00 0.  1.
         11    1    3    3    0    0  0.13775882970E+02 -0.78747443127E+01 -0.75748255040E+01  0.17583075137E+02  0.51100000000E-03 0. -1.
        -11    1    3    3    0    0 -0.15142779787E+01  0.18143854107E+01  0.28392790832E+00  0.23802620725E+01  0.51100000000E-03 0.  1.
         12    1    3    3    0    0  0.26578692777E+02  0.15079301630E+02 -0.66244981277E+00  0.30565521215E+02  0.00000000000E+00 0. -1.
</event>
<event>
 7    1  0.2945316E-011  0.5052885E+02  0.7816164E-02  0.1300439E+00
        -11   -1    0    0    0    0  0.00000000000E+00  0.00000000000E+00  0.45593999997E+02  0.45594000000E+02  0.51100000000E-03 0.  1.
         11   -1    0    0    0    0 -0.00000000000E+00 -0.00000000000E+00 -0.45593999997E+02  0.45594000000E+02  0.51100000000E-03 0. -1.
    9900012    2    1    2    0    0 -0.32410269946E+02 -0.11890616073E+02 -0.21479153436E+02  0.50528851203E+02  0.29999973718E+02 0.  0.
        -12    1    1    2    0    0  0.32410269946E+02  0.11890616073E+02  0.21479153436E+02  0.40659148797E+02  0.00000000000E+00 0.  1.
         11    1    3    3    0    0 -0.97335194106E+01 -0.15935477405E+02 -0.74871897137E+01  0.20118122435E+02  0.51100000000E-03 0. -1.
        -11    1    3    3    0    0  0.78480923625E+00 -0.12661060452E+01  0.12403292538E+01  0.19383928843E+01  0.51100000000E-03 0.  1.
        -12    1    3    3    0    0 -0.23461559771E+02  0.53109673777E+01 -0.15232292976E+02  0.28472335884E+02  0.00000000000E+00 0.  1.
</event>
<event>
 7    1  0.2945316E-011  0.5052886E+02  0.7816164E-02  0.1300439E+00
        -11   -1    0    0    0    0  0.00000000000E+00  0.00000000000E+00  0.45593999997E+02  0.45594000000E+02  0.51100000000E-03 0.  1.
         11   -1    0    0    0    0 -0.00000000000E+00 -0.00000000000E+00 -0.45593999997E+02  0.45594000000E+02  0.51100000000E-03 0. -1.
    9900012    2    1    2    0    0  0.66860996019E+01 -0.39915872901E+02  0.38967287904E+01  0.50528864094E+02  0.30000012901E+02 0.  0.
        -12    1    1    2    0    0 -0.66860996019E+01  0.39915872901E+02 -0.38967287904E+01  0.40659135906E+02  0.00000000000E+00 0.  1.
         11    1    3    3    0    0  0.88186020075E+01 -0.48940676864E+01 -0.19176409034E+01  0.10266303462E+02  0.51100000000E-03 0. -1.
        -11    1    3    3    0    0 -0.82368001108E-02  0.19582185147E+01  0.23514325282E+01  0.30600527433E+01  0.51100000000E-03 0.  1.
         12    1    3    3    0    0 -0.21242656055E+01 -0.36980023729E+02  0.34629371656E+01  0.37202507889E+02  0.00000000000E+00 0. -1.
</event>
<event>
 7    1  0.2945316E-011  0.5052886E+02  0.7816164E-02  0.1300439E+00
        -11   -1    0    0    0    0  0.00000000000E+00  0.00000000000E+00  0.45593999997E+02  0.45594000000E+02  0.51100000000E-03 0.  1.
         11   -1    0    0    0    0 -0.00000000000E+00 -0.00000000000E+00 -0.45593999997E+02  0.45594000000E+02  0.51100000000E-03 0. -1.
    9900012    2    1    2    0    0  0.28256479292E+01 -0.38323954972E+02 -0.13283672970E+02  0.50528858611E+02  0.29999996234E+02 0.  0.
        -12    1    1    2    0    0 -0.28256479292E+01  0.38323954972E+02  0.13283672970E+02  0.40659141389E+02  0.00000000000E+00 0.  1.
         11    1    3    3    0    0  0.87157758290E+01 -0.21801139972E+02 -0.27730224530E+01  0.23641998777E+02  0.51100000000E-03 0. -1.
        -11    1    3    3    0    0 -0.13782692274E+01 -0.15755033937E+02 -0.43581702554E+00  0.15821209093E+02  0.51100000000E-03 0.  1.
        -12    1    3    3    0    0 -0.45118586724E+01 -0.76778106293E+00 -0.10074833492E+02  0.11065650741E+02  0.00000000000E+00 0.  1.
</event>
<event>
 7    1  0.2945316E-011  0.5052886E+02  0.7816164E-02  0.1300439E+00
        -11   -1    0    0    0    0  0.00000000000E+00  0.00000000000E+00  0.45593999997E+02  0.45594000000E+02  0.51100000000E-03 0.  1.
         11   -1    0    0    0    0 -0.00000000000E+00 -0.00000000000E+00 -0.45593999997E+02  0.45594000000E+02  0.51100000000E-03 0. -1.
    9900012    2    1    2    0    0 -0.23738001483E+02  0.23304423033E+01 -0.32927826240E+02  0.50528863061E+02  0.30000009761E+02 0.  0.
        -12    1    1    2    0    0  0.23738001483E+02 -0.23304423033E+01  0.32927826240E+02  0.40659136939E+02  0.00000000000E+00 0.  1.
         11    1    3    3    0    0 -0.90338914142E+01 -0.28137800528E+01 -0.20810948984E+02  0.22860974391E+02  0.51100000000E-03 0. -1.
        -11    1    3    3    0    0 -0.15820042001E+02 -0.34615637806E+01 -0.80282960975E+01  0.18075112481E+02  0.51100000000E-03 0.  1.
         12    1    3    3    0    0  0.11159319327E+01  0.86057861367E+01 -0.40885811589E+01  0.95927761884E+01  0.00000000000E+00 0. -1.
</event>
<event>
 7    1  0.2945316E-011  0.5052885E+02  0.7816164E-02  0.1300439E+00
        -11   -1    0    0    0    0  0.00000000000E+00  0.00000000000E+00  0.45593999997E+02  0.45594000000E+02  0.51100000000E-03 0.  1.
         11   -1    0    0    0    0 -0.00000000000E+00 -0.00000000000E+00 -0.45593999997E+02  0.45594000000E+02  0.51100000000E-03 0. -1.
    9900012    2    1    2    0    0 -0.25078413258E+02 -0.30969926232E+02 -0.80686481902E+01  0.50528853108E+02  0.29999979508E+02 0.  0.
        -12    1    1    2    0    0  0.25078413258E+02  0.30969926232E+02  0.80686481902E+01  0.40659146892E+02  0.00000000000E+00 0.  1.
         11    1    3    3    0    0 -0.19076119574E+02 -0.12276256634E+02 -0.21659424149E+01  0.22788069724E+02  0.51100000000E-03 0. -1.
        -11    1    3    3    0    0 -0.11394709979E+02 -0.13455774394E+02  0.82614667131E+00  0.17651623116E+02  0.51100000000E-03 0.  1.
        -12    1    3    3    0    0  0.53924162952E+01 -0.52378952030E+01 -0.67288524466E+01  0.10089160268E+02  0.00000000000E+00 0.  1.
</event>
<event>
 7    1  0.2945316E-011  0.5052883E+02  0.7816164E-02  0.1300439E+00
        -11   -1    0    0    0    0  0.00000000000E+00  0.00000000000E+00  0.45593999997E+02  0.45594000000E+02  0.51100000000E-03 0. -1.
         11   -1    0    0    0    0 -0.00000000000E+00 -0.00000000000E+00 -0.45593999997E+02  0.45594000000E+02  0.51100000000E-03 0.  1.
    9900012    2    1    2    0    0  0.34074906253E+02  0.13026267696E+01  0.22144343279E+02  0.50528831146E+02  0.29999912750E+02 0.  0.
        -12    1    1    2    0    0 -0.34074906253E+02 -0.13026267696E+01 -0.22144343279E+02  0.40659168854E+02  0.00000000000E+00 0.  1.
         11    1    3    3    0    0  0.15688700988E+02  0.29258669710E+01  0.19440566041E+02  0.25152169777E+02  0.51100000000E-03 0. -1.
        -11    1    3    3    0    0 -0.15126235939E+01  0.10816324294E+01  0.48367262189E+01  0.51818799318E+01  0.51100000000E-03 0.  1.
         12    1    3    3    0    0  0.19898828859E+02 -0.27048726308E+01 -0.21329489818E+01  0.20194781437E+02  0.00000000000E+00 0. -1.
</event>
<event>
 7    1  0.2945316E-011  0.5052888E+02  0.7816164E-02  0.1300439E+00
        -11   -1    0    0    0    0  0.00000000000E+00  0.00000000000E+00  0.45593999997E+02  0.45594000000E+02  0.51100000000E-03 0.  1.
         11   -1    0    0    0    0 -0.00000000000E+00 -0.00000000000E+00 -0.45593999997E+02  0.45594000000E+02  0.51100000000E-03 0. -1.
    9900012    2    1    2    0    0 -0.37562569952E+02 -0.63822246545E+01 -0.14194526952E+02  0.50528879888E+02  0.30000060906E+02 0.  0.
        -12    1    1    2    0    0  0.37562569952E+02  0.63822246545E+01  0.14194526952E+02  0.40659120112E+02  0.00000000000E+00 0.  1.
         11    1    3    3    0    0 -0.11291991047E+02 -0.72017942651E+01 -0.43202993037E+01  0.14072664594E+02  0.51100000000E-03 0. -1.
        -11    1    3    3    0    0 -0.43589172283E+00 -0.74089649182E+01  0.46969915673E+00  0.74366242552E+01  0.51100000000E-03 0.  1.
        -12    1    3    3    0    0 -0.25834687182E+02  0.82285345289E+01 -0.10343926805E+02  0.29019591038E+02  0.00000000000E+00 0.  1.
</event>
<event>
 7    1  0.2945316E-011  0.5052886E+02  0.7816164E-02  0.1300439E+00
        -11   -1    0    0    0    0  0.00000000000E+00  0.00000000000E+00  0.45593999997E+02  0.45594000000E+02  0.51100000000E-03 0. -1.
         11   -1    0    0    0    0 -0.00000000000E+00 -0.00000000000E+00 -0.45593999997E+02  0.45594000000E+02  0.51100000000E-03 0.  1.
    9900012    2    1    2    0    0 -0.83404706799E+00  0.38735212684E+02  0.12330987480E+02  0.50528860949E+02  0.30000003339E+02 0.  0.
        -12    1    1    2    0    0  0.83404706799E+00 -0.38735212684E+02 -0.12330987480E+02  0.40659139051E+02  0.00000000000E+00 0.  1.
         11    1    3    3    0    0 -0.29950342560E+00  0.10351007140E+02 -0.70695240892E+01  0.12538389937E+02  0.51100000000E-03 0. -1.
        -11    1    3    3    0    0 -0.49145770853E+01  0.13139292786E+02  0.15543593680E+01  0.14114181385E+02  0.51100000000E-03 0.  1.
         12    1    3    3    0    0  0.43800334429E+01  0.15244912758E+02  0.17846152201E+02  0.23876289627E+02  0.00000000000E+00 0. -1.
</event>
<event>
 7    1  0.2945316E-011  0.5052886E+02  0.7816164E-02  0.1300439E+00
        -11   -1    0    0    0    0  0.00000000000E+00  0.00000000000E+00  0.45593999997E+02  0.45594000000E+02  0.51100000000E-03 0.  1.
         11   -1    0    0    0    0 -0.00000000000E+00 -0.00000000000E+00 -0.45593999997E+02  0.45594000000E+02  0.51100000000E-03 0. -1.
    9900012    2    1    2    0    0 -0.33060878600E+02  0.22713036193E+02 -0.66529509491E+01  0.50528862488E+02  0.30000008018E+02 0.  0.
        -12    1    1    2    0    0  0.33060878600E+02 -0.22713036193E+02  0.66529509491E+01  0.40659137512E+02  0.00000000000E+00 0.  1.
         11    1    3    3    0    0 -0.27189138441E+00  0.54535014640E+01 -0.13169506830E+01  0.56168463131E+01  0.51100000000E-03 0. -1.
        -11    1    3    3    0    0 -0.54063341668E+01  0.90533744471E+00 -0.11212308695E+02  0.12480542918E+02  0.51100000000E-03 0.  1.
         12    1    3    3    0    0 -0.27382653049E+02  0.16354197284E+02  0.58763084287E+01  0.32431473256E+02  0.00000000000E+00 0. -1.
</event>
<event>
 7    1  0.2945316E-011  0.5052874E+02  0.7816164E-02  0.1300439E+00
        -11   -1    0    0    0    0  0.00000000000E+00  0.00000000000E+00  0.45593999997E+02  0.45594000000E+02  0.51100000000E-03 0. -1.
         11   -1    0    0    0    0 -0.00000000000E+00 -0.00000000000E+00 -0.45593999997E+02  0.45594000000E+02  0.51100000000E-03 0.  1.
    9900012    2    1    2    0    0 -0.28699287624E+02 -0.24467551594E+02  0.15194239579E+02  0.50528743889E+02  0.29999647524E+02 0.  0.
        -12    1    1    2    0    0  0.28699287624E+02  0.24467551594E+02 -0.15194239579E+02  0.40659256111E+02  0.00000000000E+00 0.  1.
         11    1    3    3    0    0 -0.78636917992E+01 -0.19390050553E+02  0.11415738109E+02  0.23835494247E+02  0.51100000000E-03 0.  1.
        -11    1    3    3    0    0 -0.13771075928E+02  0.66581195783E+00  0.87405465038E+01  0.16324306761E+02  0.51100000000E-03 0. -1.
        -12    1    3    3    0    0 -0.70645198961E+01 -0.57433129986E+01 -0.49620450333E+01  0.10368942881E+02  0.00000000000E+00 0.  1.
</event>
<event>
 7    1  0.2945316E-011  0.5052886E+02  0.7816164E-02  0.1300439E+00
        -11   -1    0    0    0    0  0.00000000000E+00  0.00000000000E+00  0.45593999997E+02  0.45594000000E+02  0.51100000000E-03 0. -1.
         11   -1    0    0    0    0 -0.00000000000E+00 -0.00000000000E+00 -0.45593999997E+02  0.45594000000E+02  0.51100000000E-03 0.  1.
    9900012    2    1    2    0    0  0.20346955490E+02  0.12667626605E+02  0.32843542325E+02  0.50528860388E+02  0.30000001635E+02 0.  0.
        -12    1    1    2    0    0 -0.20346955490E+02 -0.12667626605E+02 -0.32843542325E+02  0.40659139612E+02  0.00000000000E+00 0.  1.
         11    1    3    3    0    0  0.98296199511E+01 -0.22139001435E+01  0.21315255806E+01  0.10298843808E+02  0.51100000000E-03 0.  1.
        -11    1    3    3    0    0  0.95395624397E+01  0.33145124133E+01  0.35726694392E+01  0.10712292531E+02  0.51100000000E-03 0. -1.
         12    1    3    3    0    0  0.97777309927E+00  0.11567014335E+02  0.27139347306E+02  0.29517724049E+02  0.00000000000E+00 0. -1.
</event>
<event>
 7    1  0.2945316E-011  0.5052886E+02  0.7816164E-02  0.1300439E+00
        -11   -1    0    0    0    0  0.00000000000E+00  0.00000000000E+00  0.45593999997E+02  0.45594000000E+02  0.51100000000E-03 0.  1.
         11   -1    0    0    0    0 -0.00000000000E+00 -0.00000000000E+00 -0.45593999997E+02  0.45594000000E+02  0.51100000000E-03 0. -1.
    9900012    2    1    2    0    0  0.21389121235E+02 -0.50629675958E+01 -0.34205812368E+02  0.50528858988E+02  0.29999997380E+02 0.  0.
        -12    1    1    2    0    0 -0.21389121235E+02  0.50629675958E+01  0.34205812368E+02  0.40659141012E+02  0.00000000000E+00 0.  1.
         11    1    3    3    0    0  0.22288317342E+02 -0.73092489112E+01 -0.15011868056E+02  0.27848705398E+02  0.51100000000E-03 0. -1.
        -11    1    3    3    0    0  0.50057317378E+01  0.78196475114E+00 -0.44991764728E+01  0.67757957686E+01  0.51100000000E-03 0.  1.
         12    1    3    3    0    0 -0.59049278446E+01  0.14643165643E+01 -0.14694767839E+02  0.15904357821E+02  0.00000000000E+00 0. -1.
</event>
<event>
 7    1  0.2945316E-011  0.5052886E+02  0.7816164E-02  0.1300439E+00
        -11   -1    0    0    0    0  0.00000000000E+00  0.00000000000E+00  0.45593999997E+02  0.45594000000E+02  0.51100000000E-03 0.  1.
         11   -1    0    0    0    0 -0.00000000000E+00 -0.00000000000E+00 -0.45593999997E+02  0.45594000000E+02  0.51100000000E-03 0. -1.
    9900012    2    1    2    0    0  0.13995723093E+02 -0.38166508458E+02  0.77659371688E+00  0.50528859200E+02  0.29999998024E+02 0.  0.
        -12    1    1    2    0    0 -0.13995723093E+02  0.38166508458E+02 -0.77659371688E+00  0.40659140800E+02  0.00000000000E+00 0.  1.
         11    1    3    3    0    0  0.10701245745E+02 -0.14000870133E+02  0.11587779027E+02  0.21090700511E+02  0.51100000000E-03 0. -1.
        -11    1    3    3    0    0 -0.40383327993E+01 -0.60974573694E+01 -0.37861745789E+00  0.73232827072E+01  0.51100000000E-03 0.  1.
         12    1    3    3    0    0  0.73328101474E+01 -0.18068180956E+02 -0.10432567852E+02  0.22114875982E+02  0.00000000000E+00 0. -1.
</event>
<event>
 7    1  0.2945316E-011  0.5052886E+02  0.7816164E-02  0.1300439E+00
        -11   -1    0    0    0    0  0.00000000000E+00  0.00000000000E+00  0.45593999997E+02  0.45594000000E+02  0.51100000000E-03 0.  1.
         11   -1    0    0    0    0 -0.00000000000E+00 -0.00000000000E+00 -0.45593999997E+02  0.45594000000E+02  0.51100000000E-03 0. -1.
    9900012    2    1    2    0    0  0.15413897274E+02  0.11349343340E+02 -0.35871578277E+02  0.50528856483E+02  0.29999989767E+02 0.  0.
        -12    1    1    2    0    0 -0.15413897274E+02 -0.11349343340E+02  0.35871578277E+02  0.40659143517E+02  0.00000000000E+00 0.  1.
         11    1    3    3    0    0  0.23378773327E+00 -0.17157790669E+00  0.13583853250E+00  0.32023124508E+00  0.51100000000E-03 0.  1.
        -11    1    3    3    0    0  0.14926414142E+02  0.16299354128E+02 -0.10888350874E+02  0.24637836130E+02  0.51100000000E-03 0. -1.
         12    1    3    3    0    0  0.25369539800E+00 -0.47784328809E+01 -0.25119065936E+02  0.25570789109E+02  0.00000000000E+00 0. -1.
</event>
<event>
 7    1  0.2945316E-011  0.5052887E+02  0.7816164E-02  0.1300439E+00
        -11   -1    0    0    0    0  0.00000000000E+00  0.00000000000E+00  0.45593999997E+02  0.45594000000E+02  0.51100000000E-03 0.  1.
         11   -1    0    0    0    0 -0.00000000000E+00 -0.00000000000E+00 -0.45593999997E+02  0.45594000000E+02  0.51100000000E-03 0. -1.
    9900012    2    1    2    0    0 -0.13326720219E+02 -0.36068011270E+01 -0.38243352273E+02  0.50528874588E+02  0.30000044799E+02 0.  0.
        -12    1    1    2    0    0  0.13326720219E+02  0.36068011270E+01  0.38243352273E+02  0.40659125412E+02  0.00000000000E+00 0.  1.
         11    1    3    3    0    0 -0.11532942806E+02  0.13672774827E+01 -0.27804242731E+02  0.30132277239E+02  0.51100000000E-03 0.  1.
        -11    1    3    3    0    0 -0.42109753973E+01  0.20153170915E+01 -0.11966559366E+02  0.12844935193E+02  0.51100000000E-03 0. -1.
        -12    1    3    3    0    0  0.24171979841E+01 -0.69893957013E+01  0.15274498248E+01  0.75516621568E+01  0.00000000000E+00 0.  1.
</event>
<event>
 7    1  0.2945316E-011  0.5052886E+02  0.7816164E-02  0.1300439E+00
        -11   -1    0    0    0    0  0.00000000000E+00  0.00000000000E+00  0.45593999997E+02  0.45594000000E+02  0.51100000000E-03 0.  1.
         11   -1    0    0    0    0 -0.00000000000E+00 -0.00000000000E+00 -0.45593999997E+02  0.45594000000E+02  0.51100000000E-03 0. -1.
    9900012    2    1    2    0    0  0.19374045808E+01 -0.31332955109E+02 -0.25839077601E+02  0.50528861499E+02  0.30000005014E+02 0.  0.
        -12    1    1    2    0    0 -0.19374045808E+01  0.31332955109E+02  0.25839077601E+02  0.40659138501E+02  0.00000000000E+00 0.  1.
         11    1    3    3    0    0 -0.51537959402E+01 -0.10024574191E+02 -0.12043284218E+02  0.16495284033E+02  0.51100000000E-03 0. -1.
        -11    1    3    3    0    0 -0.34652344751E+01  0.13322059534E+01 -0.73504674313E+01  0.82348038465E+01  0.51100000000E-03 0.  1.
         12    1    3    3    0    0  0.10556434996E+02 -0.22640586871E+02 -0.64453259516E+01  0.25798773620E+02  0.00000000000E+00 0. -1.
</event>
<event>
 7    1  0.2945316E-011  0.5052886E+02  0.7816164E-02  0.1300439E+00
        -11   -1    0    0    0    0  0.00000000000E+00  0.00000000000E+00  0.45593999997E+02  0.45594000000E+02  0.51100000000E-03 0.  1.
         11   -1    0    0    0    0 -0.00000000000E+00 -0.00000000000E+00 -0.45593999997E+02  0.45594000000E+02  0.51100000000E-03 0. -1.
    9900012    2    1    2    0    0  0.88510217515E+01  0.14592978464E+02 -0.36903522992E+02  0.50528860612E+02  0.30000002318E+02 0.  0.
        -12    1    1    2    0    0 -0.88510217515E+01 -0.14592978464E+02  0.36903522992E+02  0.40659139388E+02  0.00000000000E+00 0.  1.
         11    1    3    3    0    0  0.48169098252E+01 -0.77282971163E+01 -0.79050890342E+01  0.12059006156E+02  0.51100000000E-03 0. -1.
        -11    1    3    3    0    0  0.16342167119E+01  0.15620697425E+01 -0.99168012765E+01  0.10171217919E+02  0.51100000000E-03 0.  1.
         12    1    3    3    0    0  0.23998952144E+01  0.20759205837E+02 -0.19081632682E+02  0.28298636537E+02  0.00000000000E+00 0. -1.
</event>
<event>
 7    1  0.2945316E-011  0.5052887E+02  0.7816164E-02  0.1300439E+00
        -11   -1    0    0    0    0  0.00000000000E+00  0.00000000000E+00  0.45593999997E+02  0.45594000000E+02  0.51100000000E-03 0. -1.
         11   -1    0    0    0    0 -0.00000000000E+00 -0.00000000000E+00 -0.45593999997E+02  0.45594000000E+02  0.51100000000E-03 0.  1.
    9900012    2    1    2    0    0  0.33324547305E+02 -0.17821094339E+01 -0.23226353620E+02  0.50528869788E+02  0.30000030207E+02 0.  0.
        -12    1    1    2    0    0 -0.33324547305E+02  0.17821094339E+01  0.23226353620E+02  0.40659130212E+02  0.00000000000E+00 0.  1.
         11    1    3    3    0    0  0.18261650888E+02  0.63460087714E+00 -0.11237801610E+01  0.18307197861E+02  0.51100000000E-03 0. -1.
        -11    1    3    3    0    0  0.74545402226E+01  0.77462005064E+01 -0.10094342086E+02  0.14746848295E+02  0.51100000000E-03 0.  1.
         12    1    3    3    0    0  0.76083561951E+01 -0.10162910817E+02 -0.12008231372E+02  0.17474823632E+02  0.00000000000E+00 0. -1.
</event>
<event>
 7    1  0.2945316E-011  0.5052886E+02  0.7816164E-02  0.1300439E+00
        -11   -1    0    0    0    0  0.00000000000E+00  0.00000000000E+00  0.45593999997E+02  0.45594000000E+02  0.51100000000E-03 0.  1.
         11   -1    0    0    0    0 -0.00000000000E+00 -0.00000000000E+00 -0.45593999997E+02  0.45594000000E+02  0.51100000000E-03 0. -1.
    9900012    2    1    2    0    0  0.11805026414E+01 -0.36986389215E+02 -0.16845750406E+02  0.50528857358E+02  0.29999992426E+02 0.  0.
        -12    1    1    2    0    0 -0.11805026414E+01  0.36986389215E+02  0.16845750406E+02  0.40659142642E+02  0.00000000000E+00 0.  1.
         11    1    3    3    0    0 -0.45825094732E+01 -0.74326252957E+01 -0.28689317660E+00  0.87364535033E+01  0.51100000000E-03 0. -1.
        -11    1    3    3    0    0  0.55676513403E+01  0.12313993425E+01  0.17611938947E+01  0.59679887721E+01  0.51100000000E-03 0.  1.
        -12    1    3    3    0    0  0.19536077433E+00 -0.30785163261E+02 -0.18320051124E+02  0.35824415083E+02  0.00000000000E+00 0.  1.
</event>
<event>
 7    1  0.2945316E-011  0.5052883E+02  0.7816164E-02  0.1300439E+00
        -11   -1    0    0    0    0  0.00000000000E+00  0.00000000000E+00  0.45593999997E+02  0.45594000000E+02  0.51100000000E-03 0.  1.
         11   -1    0    0    0    0 -0.00000000000E+00 -0.00000000000E+00 -0.45593999997E+02  0.45594000000E+02  0.51100000000E-03 0. -1.
    9900012    2    1    2    0    0  0.37047577194E+02  0.16400036722E+02  0.34181687774E+01  0.50528830576E+02  0.29999911020E+02 0.  0.
        -12    1    1    2    0    0 -0.37047577194E+02 -0.16400036722E+02 -0.34181687774E+01  0.40659169424E+02  0.00000000000E+00 0.  1.
         11    1    3    3    0    0  0.21650868511E+02  0.32564575393E+01  0.38915855149E+01  0.22237559692E+02  0.51100000000E-03 0. -1.
        -11    1    3    3    0    0  0.17763218982E+02  0.12784059722E+02  0.48838558820E+01  0.22423563056E+02  0.51100000000E-03 0.  1.
        -12    1    3    3    0    0 -0.23665102990E+01  0.35951946058E+00 -0.53572726196E+01  0.58677078283E+01  0.00000000000E+00 0.  1.
</event>
<event>
 7    1  0.2945316E-011  0.5052886E+02  0.7816164E-02  0.1300439E+00
        -11   -1    0    0    0    0  0.00000000000E+00  0.00000000000E+00  0.45593999997E+02  0.45594000000E+02  0.51100000000E-03 0.  1.
         11   -1    0    0    0    0 -0.00000000000E+00 -0.00000000000E+00 -0.45593999997E+02  0.45594000000E+02  0.51100000000E-03 0. -1.
    9900012    2    1    2    0    0 -0.24680396767E+02 -0.31447518608E+02  0.74227633961E+01  0.50528858007E+02  0.29999994399E+02 0.  0.
        -12    1    1    2    0    0  0.24680396767E+02  0.31447518608E+02 -0.74227633961E+01  0.40659141993E+02  0.00000000000E+00 0.  1.
         11    1    3    3    0    0 -0.84516149489E+01 -0.17061140019E+02  0.12567859983E+01  0.19081189829E+02  0.51100000000E-03 0. -1.
        -11    1    3    3    0    0 -0.19533366694E+02 -0.15916109980E+02  0.11156401440E+01  0.25221412024E+02  0.51100000000E-03 0.  1.
         12    1    3    3    0    0  0.33045848757E+01  0.15297313905E+01  0.50503372538E+01  0.62262561548E+01  0.00000000000E+00 0. -1.
</event>
<event>
 7    1  0.2945316E-011  0.5052885E+02  0.7816164E-02  0.1300439E+00
        -11   -1    0    0    0    0  0.00000000000E+00  0.00000000000E+00  0.45593999997E+02  0.45594000000E+02  0.51100000000E-03 0.  1.
         11   -1    0    0    0    0 -0.00000000000E+00 -0.00000000000E+00 -0.45593999997E+02  0.45594000000E+02  0.51100000000E-03 0. -1.
    9900012    2    1    2    0    0  0.52758345610E+01  0.16889872857E+02 -0.36606885046E+02  0.50528852589E+02  0.29999977929E+02 0.  0.
        -12    1    1    2    0    0 -0.52758345610E+01 -0.16889872857E+02  0.36606885046E+02  0.40659147411E+02  0.00000000000E+00 0.  1.
         11    1    3    3    0    0  0.15431344404E+01  0.55678049033E+01 -0.17064607598E+02  0.18016174624E+02  0.51100000000E-03 0. -1.
        -11    1    3    3    0    0 -0.47887361212E+01  0.64281266456E+01 -0.21092594837E+02  0.22564360461E+02  0.51100000000E-03 0.  1.
        -12    1    3    3    0    0  0.85214362418E+01  0.48939413078E+01  0.15503173892E+01  0.99483175037E+01  0.00000000000E+00 0.  1.
</event>
<event>
 7    1  0.2945316E-011  0.5052886E+02  0.7816164E-02  0.1300439E+00
        -11   -1    0    0    0    0  0.00000000000E+00  0.00000000000E+00  0.45593999997E+02  0.45594000000E+02  0.51100000000E-03 0.  1.
         11   -1    0    0    0    0 -0.00000000000E+00 -0.00000000000E+00 -0.45593999997E+02  0.45594000000E+02  0.51100000000E-03 0. -1.
    9900012    2    1    2    0    0  0.16661343900E+02 -0.72446580488E+01 -0.36374173632E+02  0.50528856401E+02  0.29999989517E+02 0.  0.
        -12    1    1    2    0    0 -0.16661343900E+02  0.72446580488E+01  0.36374173632E+02  0.40659143599E+02  0.00000000000E+00 0.  1.
         11    1    3    3    0    0 -0.21028291313E+01  0.65430466688E+00 -0.12693775597E+01  0.25419135710E+01  0.51100000000E-03 0. -1.
        -11    1    3    3    0    0 -0.59629138236E+01 -0.50427288518E+01 -0.77496364635E+01  0.11001923519E+02  0.51100000000E-03 0.  1.
        -12    1    3    3    0    0  0.24727086855E+02 -0.28562338639E+01 -0.27355159608E+02  0.36985019311E+02  0.00000000000E+00 0.  1.
</event>
<event>
 7    1  0.2945316E-011  0.5052886E+02  0.7816164E-02  0.1300439E+00
        -11   -1    0    0    0    0  0.00000000000E+00  0.00000000000E+00  0.45593999997E+02  0.45594000000E+02  0.51100000000E-03 0. -1.
         11   -1    0    0    0    0 -0.00000000000E+00 -0.00000000000E+00 -0.45593999997E+02  0.45594000000E+02  0.51100000000E-03 0.  1.
    9900012    2    1    2    0    0 -0.11300053237E+02 -0.37659491760E+02  0.10355553881E+02  0.50528855654E+02  0.29999987245E+02 0.  0.
        -12    1    1    2    0    0  0.11300053237E+02  0.37659491760E+02 -0.10355553881E+02  0.40659144346E+02  0.00000000000E+00 0.  1.
         11    1    3    3    0    0 -0.12566568737E+01 -0.41896445835E+01 -0.43619359753E+01  0.61772804654E+01  0.51100000000E-03 0. -1.
        -11    1    3    3    0    0  0.22811750490E+01 -0.63011295160E+01 -0.51984515585E+01  0.84812671016E+01  0.51100000000E-03 0.  1.
         12    1    3    3    0    0 -0.12324571412E+02 -0.27168717661E+02  0.19915941415E+02  0.35870308087E+02  0.00000000000E+00 0. -1.
</event>
<event>
 7    1  0.2945316E-011  0.5052886E+02  0.7816164E-02  0.1300439E+00
        -11   -1    0    0    0    0  0.00000000000E+00  0.00000000000E+00  0.45593999997E+02  0.45594000000E+02  0.51100000000E-03 0. -1.
         11   -1    0    0    0    0 -0.00000000000E+00 -0.00000000000E+00 -0.45593999997E+02  0.45594000000E+02  0.51100000000E-03 0.  1.
    9900012    2    1    2    0    0  0.10826211275E+02 -0.12935662574E+02  0.36994960080E+02  0.50528864641E+02  0.30000014564E+02 0.  0.
        -12    1    1    2    0    0 -0.10826211275E+02  0.12935662574E+02 -0.36994960080E+02  0.40659135359E+02  0.00000000000E+00 0.  1.
         11    1    3    3    0    0 -0.66137568740E+00  0.43676033764E+01  0.90670931763E+01  0.10085908783E+02  0.51100000000E-03 0. -1.
        -11    1    3    3    0    0  0.78770483791E+01  0.30881134509E+01  0.67556722925E+01  0.10826977613E+02  0.51100000000E-03 0.  1.
         12    1    3    3    0    0  0.36105385833E+01 -0.20391379401E+02  0.21172194611E+02  0.29615978245E+02  0.00000000000E+00 0. -1.
</event>
<event>
 7    1  0.2945316E-011  0.5052887E+02  0.7816164E-02  0.1300439E+00
        -11   -1    0    0    0    0  0.00000000000E+00  0.00000000000E+00  0.45593999997E+02  0.45594000000E+02  0.51100000000E-03 0. -1.
         11   -1    0    0    0    0 -0.00000000000E+00 -0.00000000000E+00 -0.45593999997E+02  0.45594000000E+02  0.51100000000E-03 0.  1.
    9900012    2    1    2    0    0 -0.20522528467E+01 -0.99669075025E+01  0.39365138114E+02  0.50528867131E+02  0.30000022132E+02 0.  0.
        -12    1    1    2    0    0  0.20522528467E+01  0.99669075025E+01 -0.39365138114E+02  0.40659132869E+02  0.00000000000E+00 0.  1.
         11    1    3    3    0    0  0.68809630867E+01 -0.34325248148E+01  0.70259566468E+01  0.10416042755E+02  0.51100000000E-03 0. -1.
        -11    1    3    3    0    0  0.34109532901E+01 -0.31638916067E+01  0.24859448079E+02  0.25291045283E+02  0.51100000000E-03 0.  1.
        -12    1    3    3    0    0 -0.12344169224E+02 -0.33704910810E+01  0.74797333883E+01  0.14821779094E+02  0.00000000000E+00 0.  1.
</event>
<event>
 7    1  0.2945316E-011  0.5052886E+02  0.7816164E-02  0.1300439E+00
        -11   -1    0    0    0    0  0.00000000000E+00  0.00000000000E+00  0.45593999997E+02  0.45594000000E+02  0.51100000000E-03 0. -1.
         11   -1    0    0    0    0 -0.00000000000E+00 -0.00000000000E+00 -0.45593999997E+02  0.45594000000E+02  0.51100000000E-03 0.  1.
    9900012    2    1    2    0    0 -0.15278176033E+02  0.37446945664E+02 -0.41796370177E+01  0.50528858739E+02  0.29999996623E+02 0.  0.
        -12    1    1    2    0    0  0.15278176033E+02 -0.37446945664E+02  0.41796370177E+01  0.40659141261E+02  0.00000000000E+00 0.  1.
         11    1    3    3    0    0 -0.19605949076E+01  0.14019023373E+02  0.25553452661E+01  0.14384253141E+02  0.51100000000E-03 0. -1.
        -11    1    3    3    0    0  0.33654400083E+01  0.17455587648E+02 -0.38930038638E+01  0.18198329756E+02  0.51100000000E-03 0.  1.
        -12    1    3    3    0    0 -0.16683021134E+02  0.59723346430E+01 -0.28419784200E+01  0.17946275842E+02  0.00000000000E+00 0.  1.
</event>
<event>
 7    1  0.2945316E-011  0.5052886E+02  0.7816164E-02  0.1300439E+00
        -11   -1    0    0    0    0  0.00000000000E+00  0.00000000000E+00  0.45593999997E+02  0.45594000000E+02  0.51100000000E-03 0. -1.
         11   -1    0    0    0    0 -0.00000000000E+00 -0.00000000000E+00 -0.45593999997E+02  0.45594000000E+02  0.51100000000E-03 0.  1.
    9900012    2    1    2    0    0  0.51348085914E+01 -0.40251255465E+02  0.25760501316E+01  0.50528857608E+02  0.29999993185E+02 0.  0.
        -12    1    1    2    0    0 -0.51348085914E+01  0.40251255465E+02 -0.25760501316E+01  0.40659142392E+02  0.00000000000E+00 0.  1.
         11    1    3    3    0    0 -0.54583333713E+01 -0.25691574670E+02 -0.58564728249E+01  0.26910010896E+02  0.51100000000E-03 0. -1.
        -11    1    3    3    0    0  0.29179180897E+01 -0.12107789197E+02  0.73584179234E+00  0.12476147988E+02  0.51100000000E-03 0.  1.
         12    1    3    3    0    0  0.76752238731E+01 -0.24518915981E+01  0.76966811642E+01  0.11142698724E+02  0.00000000000E+00 0. -1.
</event>
<event>
 7    1  0.2945316E-011  0.5052884E+02  0.7816164E-02  0.1300439E+00
        -11   -1    0    0    0    0  0.00000000000E+00  0.00000000000E+00  0.45593999997E+02  0.45594000000E+02  0.51100000000E-03 0.  1.
         11   -1    0    0    0    0 -0.00000000000E+00 -0.00000000000E+00 -0.45593999997E+02  0.45594000000E+02  0.51100000000E-03 0. -1.
    9900012    2    1    2    0    0 -0.10438098093E+02  0.10852122607E+01 -0.39281497033E+02  0.50528836376E+02  0.29999928649E+02 0.  0.
        -12    1    1    2    0    0  0.10438098093E+02 -0.10852122607E+01  0.39281497033E+02  0.40659163624E+02  0.00000000000E+00 0.  1.
         11    1    3    3    0    0  0.31357461248E+01  0.16916893004E+01 -0.28480301964E+02  0.28702305076E+02  0.51100000000E-03 0. -1.
        -11    1    3    3    0    0 -0.71349630338E+01 -0.64526057495E+01 -0.84829922073E+01  0.12825949302E+02  0.51100000000E-03 0.  1.
        -12    1    3    3    0    0 -0.64388811844E+01  0.58461287098E+01 -0.23182028615E+01  0.90005819981E+01  0.00000000000E+00 0.  1.
</event>
<event>
 7    1  0.2945316E-011  0.5052886E+02  0.7816164E-02  0.1300439E+00
        -11   -1    0    0    0    0  0.00000000000E+00  0.00000000000E+00  0.45593999997E+02  0.45594000000E+02  0.51100000000E-03 0. -1.
         11   -1    0    0    0    0 -0.00000000000E+00 -0.00000000000E+00 -0.45593999997E+02  0.45594000000E+02  0.51100000000E-03 0.  1.
    9900012    2    1    2    0    0  0.36933926832E+02 -0.75066602988E+01 -0.15254535830E+02  0.50528858796E+02  0.29999996796E+02 0.  0.
        -12    1    1    2    0    0 -0.36933926832E+02  0.75066602988E+01  0.15254535830E+02  0.40659141204E+02  0.00000000000E+00 0.  1.
         11    1    3    3    0    0  0.31476743024E+01 -0.47259344459E+01  0.51881905122E+01  0.76915298188E+01  0.51100000000E-03 0.  1.
        -11    1    3    3    0    0  0.16166552136E+02  0.62268554340E+01 -0.59816593177E+01  0.18327885449E+02  0.51100000000E-03 0. -1.
         12    1    3    3    0    0  0.17619700393E+02 -0.90075812869E+01 -0.14461067024E+02  0.24509443529E+02  0.00000000000E+00 0. -1.
</event>
<event>
 7    1  0.2945316E-011  0.5052885E+02  0.7816164E-02  0.1300439E+00
        -11   -1    0    0    0    0  0.00000000000E+00  0.00000000000E+00  0.45593999997E+02  0.45594000000E+02  0.51100000000E-03 0.  1.
         11   -1    0    0    0    0 -0.00000000000E+00 -0.00000000000E+00 -0.45593999997E+02  0.45594000000E+02  0.51100000000E-03 0. -1.
    9900012    2    1    2    0    0 -0.15608878127E+02  0.14167933222E+01 -0.37516953693E+02  0.50528853500E+02  0.29999980699E+02 0.  0.
        -12    1    1    2    0    0  0.15608878127E+02 -0.14167933222E+01  0.37516953693E+02  0.40659146500E+02  0.00000000000E+00 0.  1.
         11    1    3    3    0    0 -0.18476444457E+01 -0.45907160968E+01  0.32232485222E+01  0.59057425931E+01  0.51100000000E-03 0.  1.
        -11    1    3    3    0    0 -0.11408501241E+02 -0.30875781480E+00 -0.23937140926E+02  0.26518596266E+02  0.51100000000E-03 0. -1.
        -12    1    3    3    0    0 -0.23527324402E+01  0.63162672338E+01 -0.16803061289E+02  0.18104514641E+02  0.00000000000E+00 0.  1.
</event>
<event>
 7    1  0.2945316E-011  0.5052886E+02  0.7816164E-02  0.1300439E+00
        -11   -1    0    0    0    0  0.00000000000E+00  0.00000000000E+00  0.45593999997E+02  0.45594000000E+02  0.51100000000E-03 0.  1.
         11   -1    0    0    0    0 -0.00000000000E+00 -0.00000000000E+00 -0.45593999997E+02  0.45594000000E+02  0.51100000000E-03 0. -1.
    9900012    2    1    2    0    0 -0.29359293507E+02  0.27139730386E+02 -0.73913681699E+01  0.50528863216E+02  0.30000010230E+02 0.  0.
        -12    1    1    2    0    0  0.29359293507E+02 -0.27139730386E+02  0.73913681699E+01  0.40659136784E+02  0.00000000000E+00 0.  1.
         11    1    3    3    0    0 -0.11082959427E+02  0.15000297265E+02 -0.83206056507E-01  0.18650679108E+02  0.51100000000E-03 0. -1.
        -11    1    3    3    0    0 -0.10659917003E+02  0.11211534804E+02  0.59375642897E+01  0.16570667250E+02  0.51100000000E-03 0.  1.
         12    1    3    3    0    0 -0.76164170770E+01  0.92789831697E+00 -0.13245726403E+02  0.15307516857E+02  0.00000000000E+00 0. -1.
</event>
<event>
 7    1  0.2945316E-011  0.5052887E+02  0.7816164E-02  0.1300439E+00
        -11   -1    0    0    0    0  0.00000000000E+00  0.00000000000E+00  0.45593999997E+02  0.45594000000E+02  0.51100000000E-03 0.  1.
         11   -1    0    0    0    0 -0.00000000000E+00 -0.00000000000E+00 -0.45593999997E+02  0.45594000000E+02  0.51100000000E-03 0. -1.
    9900012    2    1    2    0    0  0.40533011306E+02 -0.16839675951E+01  0.27210855932E+01  0.50528867457E+02  0.30000023121E+02 0.  0.
        -12    1    1    2    0    0 -0.40533011306E+02  0.16839675951E+01 -0.27210855932E+01  0.40659132543E+02  0.00000000000E+00 0.  1.
         11    1    3    3    0    0 -0.13185095863E+01 -0.60939151326E+01  0.45250432894E+01  0.77039136940E+01  0.51100000000E-03 0.  1.
        -11    1    3    3    0    0  0.31786930746E+01 -0.10617054158E+01 -0.17198908898E+01  0.37668731047E+01  0.51100000000E-03 0. -1.
        -12    1    3    3    0    0  0.38672827818E+02  0.54716529533E+01 -0.84066806353E-01  0.39058080658E+02  0.00000000000E+00 0.  1.
</event>
<event>
 7    1  0.2945316E-011  0.5052886E+02  0.7816164E-02  0.1300439E+00
        -11   -1    0    0    0    0  0.00000000000E+00  0.00000000000E+00  0.45593999997E+02  0.45594000000E+02  0.51100000000E-03 0.  1.
         11   -1    0    0    0    0 -0.00000000000E+00 -0.00000000000E+00 -0.45593999997E+02  0.45594000000E+02  0.51100000000E-03 0. -1.
    9900012    2    1    2    0    0  0.28309781853E+02 -0.21605664541E+02 -0.19619296503E+02  0.50528864691E+02  0.30000014715E+02 0.  0.
        -12    1    1    2    0    0 -0.28309781853E+02  0.21605664541E+02  0.19619296503E+02  0.40659135309E+02  0.00000000000E+00 0.  1.
         11    1    3    3    0    0  0.10978675403E+02 -0.11502838999E+02 -0.12144605192E+02  0.20008449569E+02  0.51100000000E-03 0. -1.
        -11    1    3    3    0    0  0.61962500727E+01  0.26473943822E+01 -0.11308566889E+02  0.13163810137E+02  0.51100000000E-03 0.  1.
        -12    1    3    3    0    0  0.11134856376E+02 -0.12750219925E+02  0.38338755779E+01  0.17356604985E+02  0.00000000000E+00 0.  1.
</event>
<event>
 7    1  0.2945316E-011  0.5052889E+02  0.7816164E-02  0.1300439E+00
        -11   -1    0    0    0    0  0.00000000000E+00  0.00000000000E+00  0.45593999997E+02  0.45594000000E+02  0.51100000000E-03 0. -1.
         11   -1    0    0    0    0 -0.00000000000E+00 -0.00000000000E+00 -0.45593999997E+02  0.45594000000E+02  0.51100000000E-03 0.  1.
    9900012    2    1    2    0    0  0.21560794322E+02 -0.20356682217E+01  0.34411506751E+02  0.50528885477E+02  0.30000077896E+02 0.  0.
        -12    1    1    2    0    0 -0.21560794322E+02  0.20356682217E+01 -0.34411506751E+02  0.40659114523E+02  0.00000000000E+00 0.  1.
         11    1    3    3    0    0  0.45796168972E+01 -0.17400381001E+01  0.86343346069E+01  0.99273540221E+01  0.51100000000E-03 0. -1.
        -11    1    3    3    0    0  0.20721349165E+02  0.37675510902E+01  0.27661161760E+02  0.34766487061E+02  0.51100000000E-03 0.  1.
        -12    1    3    3    0    0 -0.37401717398E+01 -0.40631812118E+01 -0.18839896157E+01  0.58350443937E+01  0.00000000000E+00 0.  1.
</event>
<event>
 7    1  0.2945316E-011  0.5052885E+02  0.7816164E-02  0.1300439E+00
        -11   -1    0    0    0    0  0.00000000000E+00  0.00000000000E+00  0.45593999997E+02  0.45594000000E+02  0.51100000000E-03 0.  1.
         11   -1    0    0    0    0 -0.00000000000E+00 -0.00000000000E+00 -0.45593999997E+02  0.45594000000E+02  0.51100000000E-03 0. -1.
    9900012    2    1    2    0    0 -0.55131969809E+01 -0.40046147421E+02  0.43677046285E+01  0.50528854560E+02  0.29999983921E+02 0.  0.
        -12    1    1    2    0    0  0.55131969809E+01  0.40046147421E+02 -0.43677046285E+01  0.40659145440E+02  0.00000000000E+00 0.  1.
         11    1    3    3    0    0 -0.35279268172E+01  0.14597367272E+00 -0.39838465010E+01  0.53234020274E+01  0.51100000000E-03 0.  1.
        -11    1    3    3    0    0 -0.66097657062E+01 -0.12982475286E+02  0.98162214740E+01  0.17566783186E+02  0.51100000000E-03 0. -1.
         12    1    3    3    0    0  0.46244955425E+01 -0.27209645808E+02 -0.14646703445E+01  0.27638669346E+02  0.00000000000E+00 0. -1.
</event>
<event>
 7    1  0.2945316E-011  0.5052882E+02  0.7816164E-02  0.1300439E+00
        -11   -1    0    0    0    0  0.00000000000E+00  0.00000000000E+00  0.45593999997E+02  0.45594000000E+02  0.51100000000E-03 0.  1.
         11   -1    0    0    0    0 -0.00000000000E+00 -0.00000000000E+00 -0.45593999997E+02  0.45594000000E+02  0.51100000000E-03 0. -1.
    9900012    2    1    2    0    0  0.54847831848E+01  0.40274869117E+02 -0.10103081460E+01  0.50528823280E+02  0.29999888841E+02 0.  0.
        -12    1    1    2    0    0 -0.54847831848E+01 -0.40274869117E+02  0.10103081460E+01  0.40659176720E+02  0.00000000000E+00 0.  1.
         11    1    3    3    0    0  0.48073616864E+00  0.49199832141E+01  0.65055890375E+01  0.81706811881E+01  0.51100000000E-03 0. -1.
        -11    1    3    3    0    0  0.52217625772E+01 -0.16537777958E+00  0.19846221359E+01  0.55886384304E+01  0.51100000000E-03 0.  1.
         12    1    3    3    0    0 -0.21771556101E+00  0.35520263683E+02 -0.95005193194E+01  0.36769503661E+02  0.00000000000E+00 0. -1.
</event>
<event>
 7    1  0.2945316E-011  0.5052887E+02  0.7816164E-02  0.1300439E+00
        -11   -1    0    0    0    0  0.00000000000E+00  0.00000000000E+00  0.45593999997E+02  0.45594000000E+02  0.51100000000E-03 0. -1.
         11   -1    0    0    0    0 -0.00000000000E+00 -0.00000000000E+00 -0.45593999997E+02  0.45594000000E+02  0.51100000000E-03 0.  1.
    9900012    2    1    2    0    0 -0.81626651647E+01  0.51184610717E+01  0.39501102430E+02  0.50528870158E+02  0.30000031331E+02 0.  0.
        -12    1    1    2    0    0  0.81626651647E+01 -0.51184610717E+01 -0.39501102430E+02  0.40659129842E+02  0.00000000000E+00 0.  1.
         11    1    3    3    0    0 -0.95842973154E+01  0.53949564507E+01  0.78041440086E+01  0.13485880546E+02  0.51100000000E-03 0. -1.
        -11    1    3    3    0    0 -0.29901616377E+01 -0.76589172937E+01  0.66942595939E+01  0.10602508783E+02  0.51100000000E-03 0.  1.
        -12    1    3    3    0    0  0.44117937884E+01  0.73824219146E+01  0.25002698828E+02  0.26440480828E+02  0.00000000000E+00 0.  1.
</event>
<event>
 7    1  0.2945316E-011  0.5052887E+02  0.7816164E-02  0.1300439E+00
        -11   -1    0    0    0    0  0.00000000000E+00  0.00000000000E+00  0.45593999997E+02  0.45594000000E+02  0.51100000000E-03 0. -1.
         11   -1    0    0    0    0 -0.00000000000E+00 -0.00000000000E+00 -0.45593999997E+02  0.45594000000E+02  0.51100000000E-03 0.  1.
    9900012    2    1    2    0    0 -0.39021036005E+02 -0.94717906434E+01  0.63882005271E+01  0.50528866034E+02  0.30000018798E+02 0.  0.
        -12    1    1    2    0    0  0.39021036005E+02  0.94717906434E+01 -0.63882005271E+01  0.40659133966E+02  0.00000000000E+00 0.  1.
         11    1    3    3    0    0 -0.15470613198E+02  0.54820318663E+01  0.62345764640E+00  0.16425018898E+02  0.51100000000E-03 0. -1.
        -11    1    3    3    0    0 -0.11909231978E+02  0.27217999350E+01  0.40484921885E+01  0.12869665514E+02  0.51100000000E-03 0.  1.
        -12    1    3    3    0    0 -0.11641190829E+02 -0.17675622445E+02  0.17162506921E+01  0.21234181622E+02  0.00000000000E+00 0.  1.
</event>
<event>
 7    1  0.2945316E-011  0.5052887E+02  0.7816164E-02  0.1300439E+00
        -11   -1    0    0    0    0  0.00000000000E+00  0.00000000000E+00  0.45593999997E+02  0.45594000000E+02  0.51100000000E-03 0.  1.
         11   -1    0    0    0    0 -0.00000000000E+00 -0.00000000000E+00 -0.45593999997E+02  0.45594000000E+02  0.51100000000E-03 0. -1.
    9900012    2    1    2    0    0  0.21042532735E+02  0.32207911260E+02 -0.13153981614E+02  0.50528868628E+02  0.30000026681E+02 0.  0.
        -12    1    1    2    0    0 -0.21042532735E+02 -0.32207911260E+02  0.13153981614E+02  0.40659131372E+02  0.00000000000E+00 0.  1.
         11    1    3    3    0    0  0.34658125491E+01  0.22835255281E+00  0.39568905713E+01  0.52650721522E+01  0.51100000000E-03 0. -1.
        -11    1    3    3    0    0  0.90190222364E+01  0.24499928744E+00 -0.31993882131E+01  0.95728194358E+01  0.51100000000E-03 0.  1.
         12    1    3    3    0    0  0.85576979498E+01  0.31734559420E+02 -0.13911483972E+02  0.35690977040E+02  0.00000000000E+00 0. -1.
</event>
<event>
 7    1  0.2945316E-011  0.5052886E+02  0.7816164E-02  0.1300439E+00
        -11   -1    0    0    0    0  0.00000000000E+00  0.00000000000E+00  0.45593999997E+02  0.45594000000E+02  0.51100000000E-03 0. -1.
         11   -1    0    0    0    0 -0.00000000000E+00 -0.00000000000E+00 -0.45593999997E+02  0.45594000000E+02  0.51100000000E-03 0.  1.
    9900012    2    1    2    0    0 -0.91714236296E+01  0.30706909141E+02  0.25022714205E+02  0.50528861954E+02  0.30000006397E+02 0.  0.
        -12    1    1    2    0    0  0.91714236296E+01 -0.30706909141E+02 -0.25022714205E+02  0.40659138046E+02  0.00000000000E+00 0.  1.
         11    1    3    3    0    0  0.33926590482E+01  0.54085893694E+01 -0.41676785446E+01  0.76244684468E+01  0.51100000000E-03 0. -1.
        -11    1    3    3    0    0  0.16821104138E+00  0.75826377929E+01  0.16359631989E+01  0.77589346371E+01  0.51100000000E-03 0.  1.
         12    1    3    3    0    0 -0.12732293719E+02  0.17715681979E+02  0.27554429551E+02  0.35145458871E+02  0.00000000000E+00 0. -1.
</event>
<event>
 7    1  0.2945316E-011  0.5052886E+02  0.7816164E-02  0.1300439E+00
        -11   -1    0    0    0    0  0.00000000000E+00  0.00000000000E+00  0.45593999997E+02  0.45594000000E+02  0.51100000000E-03 0.  1.
         11   -1    0    0    0    0 -0.00000000000E+00 -0.00000000000E+00 -0.45593999997E+02  0.45594000000E+02  0.51100000000E-03 0. -1.
    9900012    2    1    2    0    0 -0.28847150662E+02  0.22075381366E+02 -0.18267046596E+02  0.50528861358E+02  0.30000004584E+02 0.  0.
        -12    1    1    2    0    0  0.28847150662E+02 -0.22075381366E+02  0.18267046596E+02  0.40659138642E+02  0.00000000000E+00 0.  1.
         11    1    3    3    0    0 -0.65919795322E+01  0.24854710874E+01 -0.29524287865E+01  0.76386253135E+01  0.51100000000E-03 0. -1.
        -11    1    3    3    0    0 -0.91795001798E+01 -0.43743778680E+01  0.22682838255E+01  0.10418422004E+02  0.51100000000E-03 0.  1.
         12    1    3    3    0    0 -0.13075670950E+02  0.23964288146E+02 -0.17582901635E+02  0.32471814040E+02  0.00000000000E+00 0. -1.
</event>
<event>
 7    1  0.2945316E-011  0.5052885E+02  0.7816164E-02  0.1300439E+00
        -11   -1    0    0    0    0  0.00000000000E+00  0.00000000000E+00  0.45593999997E+02  0.45594000000E+02  0.51100000000E-03 0.  1.
         11   -1    0    0    0    0 -0.00000000000E+00 -0.00000000000E+00 -0.45593999997E+02  0.45594000000E+02  0.51100000000E-03 0. -1.
    9900012    2    1    2    0    0  0.30151457656E+02 -0.22721772322E+02 -0.15092278511E+02  0.50528853343E+02  0.29999980221E+02 0.  0.
        -12    1    1    2    0    0 -0.30151457656E+02  0.22721772322E+02  0.15092278511E+02  0.40659146657E+02  0.00000000000E+00 0.  1.
         11    1    3    3    0    0 -0.22508193267E+01 -0.10223636996E+02 -0.58609453404E+01  0.11997483970E+02  0.51100000000E-03 0. -1.
        -11    1    3    3    0    0  0.13745373415E+02 -0.90698260718E+01 -0.10481856018E+02  0.19520920602E+02  0.51100000000E-03 0.  1.
        -12    1    3    3    0    0  0.18656903568E+02 -0.34283092541E+01  0.12505228475E+01  0.19010448771E+02  0.00000000000E+00 0.  1.
</event>
<event>
 7    1  0.2945316E-011  0.5052886E+02  0.7816164E-02  0.1300439E+00
        -11   -1    0    0    0    0  0.00000000000E+00  0.00000000000E+00  0.45593999997E+02  0.45594000000E+02  0.51100000000E-03 0. -1.
         11   -1    0    0    0    0 -0.00000000000E+00 -0.00000000000E+00 -0.45593999997E+02  0.45594000000E+02  0.51100000000E-03 0.  1.
    9900012    2    1    2    0    0  0.16589248646E+02 -0.26056345774E+02  0.26439163699E+02  0.50528859542E+02  0.29999999062E+02 0.  0.
        -12    1    1    2    0    0 -0.16589248646E+02  0.26056345774E+02 -0.26439163699E+02  0.40659140458E+02  0.00000000000E+00 0.  1.
         11    1    3    3    0    0  0.56189000196E+01  0.35753480879E+01  0.46741355559E+01  0.81365038459E+01  0.51100000000E-03 0. -1.
        -11    1    3    3    0    0 -0.27862086901E+01 -0.16294659357E+02  0.60217339565E+01  0.17593753508E+02  0.51100000000E-03 0.  1.
         12    1    3    3    0    0  0.13756557316E+02 -0.13337034505E+02  0.15743294187E+02  0.24798602187E+02  0.00000000000E+00 0. -1.
</event>
<event>
 7    1  0.2945316E-011  0.5052886E+02  0.7816164E-02  0.1300439E+00
        -11   -1    0    0    0    0  0.00000000000E+00  0.00000000000E+00  0.45593999997E+02  0.45594000000E+02  0.51100000000E-03 0. -1.
         11   -1    0    0    0    0 -0.00000000000E+00 -0.00000000000E+00 -0.45593999997E+02  0.45594000000E+02  0.51100000000E-03 0.  1.
    9900012    2    1    2    0    0  0.20766969139E+02  0.30649134075E+02  0.16808600829E+02  0.50528862176E+02  0.30000007070E+02 0.  0.
        -12    1    1    2    0    0 -0.20766969139E+02 -0.30649134075E+02 -0.16808600829E+02  0.40659137824E+02  0.00000000000E+00 0.  1.
         11    1    3    3    0    0  0.16647010076E+02  0.52767668736E+01  0.89941496245E+01  0.19643368877E+02  0.51100000000E-03 0. -1.
        -11    1    3    3    0    0 -0.12213125559E+00 -0.20765504343E+01  0.87674754945E+00  0.22573578087E+01  0.51100000000E-03 0.  1.
         12    1    3    3    0    0  0.42420903190E+01  0.27448917636E+02  0.69377036551E+01  0.28628135490E+02  0.00000000000E+00 0. -1.
</event>
<event>
 7    1  0.2945316E-011  0.5052885E+02  0.7816164E-02  0.1300439E+00
        -11   -1    0    0    0    0  0.00000000000E+00  0.00000000000E+00  0.45593999997E+02  0.45594000000E+02  0.51100000000E-03 0.  1.
         11   -1    0    0    0    0 -0.00000000000E+00 -0.00000000000E+00 -0.45593999997E+02  0.45594000000E+02  0.51100000000E-03 0. -1.
    9900012    2    1    2    0    0  0.81852147864E+01  0.41441618613E+00 -0.39824574441E+02  0.50528853288E+02  0.29999980056E+02 0.  0.
        -12    1    1    2    0    0 -0.81852147864E+01 -0.41441618613E+00  0.39824574441E+02  0.40659146712E+02  0.00000000000E+00 0.  1.
         11    1    3    3    0    0  0.56598532100E+01  0.50390329310E+01 -0.16187126171E+01  0.77489368326E+01  0.51100000000E-03 0. -1.
        -11    1    3    3    0    0 -0.15915949965E+00 -0.18728097608E+00 -0.37551843014E+02  0.37552647309E+02  0.51100000000E-03 0.  1.
         12    1    3    3    0    0  0.26845210761E+01 -0.44373357687E+01 -0.65401881072E+00  0.52272691472E+01  0.00000000000E+00 0. -1.
</event>
<event>
 7    1  0.2945316E-011  0.5052884E+02  0.7816164E-02  0.1300439E+00
        -11   -1    0    0    0    0  0.00000000000E+00  0.00000000000E+00  0.45593999997E+02  0.45594000000E+02  0.51100000000E-03 0.  1.
         11   -1    0    0    0    0 -0.00000000000E+00 -0.00000000000E+00 -0.45593999997E+02  0.45594000000E+02  0.51100000000E-03 0. -1.
    9900012    2    1    2    0    0 -0.23610129075E+02 -0.35460506881E-03 -0.33101804213E+02  0.50528835753E+02  0.29999926756E+02 0.  0.
        -12    1    1    2    0    0  0.23610129075E+02  0.35460506881E-03  0.33101804213E+02  0.40659164247E+02  0.00000000000E+00 0.  1.
         11    1    3    3    0    0 -0.70644431470E+01  0.13383457034E+01 -0.19234172083E+02  0.20534139918E+02  0.51100000000E-03 0. -1.
        -11    1    3    3    0    0 -0.80245915738E+01 -0.10571725774E+02 -0.10671347162E+02  0.17030358373E+02  0.51100000000E-03 0.  1.
        -12    1    3    3    0    0 -0.85210943545E+01  0.92330254658E+01 -0.31962849671E+01  0.12964337463E+02  0.00000000000E+00 0.  1.
</event>
<event>
 7    1  0.2945316E-011  0.5052886E+02  0.7816164E-02  0.1300439E+00
        -11   -1    0    0    0    0  0.00000000000E+00  0.00000000000E+00  0.45593999997E+02  0.45594000000E+02  0.51100000000E-03 0.  1.
         11   -1    0    0    0    0 -0.00000000000E+00 -0.00000000000E+00 -0.45593999997E+02  0.45594000000E+02  0.51100000000E-03 0. -1.
    9900012    2    1    2    0    0  0.26107534190E+02 -0.99046722172E+00 -0.31154155928E+02  0.50528858366E+02  0.29999995490E+02 0.  0.
        -12    1    1    2    0    0 -0.26107534190E+02  0.99046722172E+00  0.31154155928E+02  0.40659141634E+02  0.00000000000E+00 0.  1.
         11    1    3    3    0    0  0.63820882906E+00 -0.23319698893E+01  0.25350947164E+01  0.35031556569E+01  0.51100000000E-03 0. -1.
        -11    1    3    3    0    0  0.35541831436E+00  0.31065094831E+01  0.17277891170E+01  0.35723911937E+01  0.51100000000E-03 0.  1.
         12    1    3    3    0    0  0.25113907046E+02 -0.17650068155E+01 -0.35417039762E+02  0.43453311516E+02  0.00000000000E+00 0. -1.
</event>
<event>
 7    1  0.2945316E-011  0.5052887E+02  0.7816164E-02  0.1300439E+00
        -11   -1    0    0    0    0  0.00000000000E+00  0.00000000000E+00  0.45593999997E+02  0.45594000000E+02  0.51100000000E-03 0.  1.
         11   -1    0    0    0    0 -0.00000000000E+00 -0.00000000000E+00 -0.45593999997E+02  0.45594000000E+02  0.51100000000E-03 0. -1.
    9900012    2    1    2    0    0  0.28630917617E+02  0.21004860409E+02 -0.19804830756E+02  0.50528869099E+02  0.30000028112E+02 0.  0.
        -12    1    1    2    0    0 -0.28630917617E+02 -0.21004860409E+02  0.19804830756E+02  0.40659130901E+02  0.00000000000E+00 0.  1.
         11    1    3    3    0    0 -0.38337823325E+01  0.18105674060E+01 -0.19479532328E+01  0.46658936296E+01  0.51100000000E-03 0. -1.
        -11    1    3    3    0    0 -0.59195418113E-01 -0.17096289843E+00 -0.62757959620E+01  0.62784032705E+01  0.51100000000E-03 0.  1.
         12    1    3    3    0    0  0.32523895368E+02  0.19365255901E+02 -0.11581081562E+02  0.39584572198E+02  0.00000000000E+00 0. -1.
</event>
<event>
 7    1  0.2945316E-011  0.5052886E+02  0.7816164E-02  0.1300439E+00
        -11   -1    0    0    0    0  0.00000000000E+00  0.00000000000E+00  0.45593999997E+02  0.45594000000E+02  0.51100000000E-03 0.  1.
         11   -1    0    0    0    0 -0.00000000000E+00 -0.00000000000E+00 -0.45593999997E+02  0.45594000000E+02  0.51100000000E-03 0. -1.
    9900012    2    1    2    0    0 -0.18367427740E+02 -0.13160583553E+02 -0.33802400192E+02  0.50528860560E+02  0.30000002159E+02 0.  0.
        -12    1    1    2    0    0  0.18367427740E+02  0.13160583553E+02  0.33802400192E+02  0.40659139440E+02  0.00000000000E+00 0.  1.
         11    1    3    3    0    0 -0.15925683585E+02 -0.18837357067E+01 -0.15782152799E+02  0.22500049002E+02  0.51100000000E-03 0.  1.
        -11    1    3    3    0    0 -0.85327380224E+01 -0.35568655946E+01 -0.23662418052E+01  0.95424321616E+01  0.51100000000E-03 0. -1.
         12    1    3    3    0    0  0.60909938676E+01 -0.77199822513E+01 -0.15654005588E+02  0.18486379397E+02  0.00000000000E+00 0. -1.
</event>
<event>
 7    1  0.2945316E-011  0.5052886E+02  0.7816164E-02  0.1300439E+00
        -11   -1    0    0    0    0  0.00000000000E+00  0.00000000000E+00  0.45593999997E+02  0.45594000000E+02  0.51100000000E-03 0.  1.
         11   -1    0    0    0    0 -0.00000000000E+00 -0.00000000000E+00 -0.45593999997E+02  0.45594000000E+02  0.51100000000E-03 0. -1.
    9900012    2    1    2    0    0 -0.72495769356E+01  0.20643428434E+02 -0.34270368796E+02  0.50528859814E+02  0.29999999891E+02 0.  0.
        -12    1    1    2    0    0  0.72495769356E+01 -0.20643428434E+02  0.34270368796E+02  0.40659140186E+02  0.00000000000E+00 0.  1.
         11    1    3    3    0    0 -0.21237143005E+01  0.12982724643E+02 -0.56067769761E+01  0.14300253491E+02  0.51100000000E-03 0. -1.
        -11    1    3    3    0    0 -0.11209037810E+02  0.21617460005E+01 -0.78398096141E+01  0.13848403859E+02  0.51100000000E-03 0.  1.
         12    1    3    3    0    0  0.60831751748E+01  0.54989577911E+01 -0.20823782206E+02  0.22380202464E+02  0.00000000000E+00 0. -1.
</event>
<event>
 7    1  0.2945316E-011  0.5052886E+02  0.7816164E-02  0.1300439E+00
        -11   -1    0    0    0    0  0.00000000000E+00  0.00000000000E+00  0.45593999997E+02  0.45594000000E+02  0.51100000000E-03 0.  1.
         11   -1    0    0    0    0 -0.00000000000E+00 -0.00000000000E+00 -0.45593999997E+02  0.45594000000E+02  0.51100000000E-03 0. -1.
    9900012    2    1    2    0    0  0.48110488923E+01 -0.80591474083E+01 -0.39560959793E+02  0.50528860951E+02  0.30000003348E+02 0.  0.
        -12    1    1    2    0    0 -0.48110488923E+01  0.80591474083E+01  0.39560959793E+02  0.40659139049E+02  0.00000000000E+00 0.  1.
         11    1    3    3    0    0  0.70170822546E+01 -0.11267860294E+02 -0.21911719312E+02  0.25618890734E+02  0.51100000000E-03 0. -1.
        -11    1    3    3    0    0  0.71030240537E+01 -0.10346893698E+01 -0.90093671230E+01  0.11519211302E+02  0.51100000000E-03 0.  1.
        -12    1    3    3    0    0 -0.93090574160E+01  0.42434022557E+01 -0.86398733583E+01  0.13390758915E+02  0.00000000000E+00 0.  1.
</event>
<event>
 7    1  0.2945316E-011  0.5052885E+02  0.7816164E-02  0.1300439E+00
        -11   -1    0    0    0    0  0.00000000000E+00  0.00000000000E+00  0.45593999997E+02  0.45594000000E+02  0.51100000000E-03 0. -1.
         11   -1    0    0    0    0 -0.00000000000E+00 -0.00000000000E+00 -0.45593999997E+02  0.45594000000E+02  0.51100000000E-03 0.  1.
    9900012    2    1    2    0    0  0.24423471550E+02  0.71485232342E+01  0.31710546879E+02  0.50528854284E+02  0.29999983083E+02 0.  0.
        -12    1    1    2    0    0 -0.24423471550E+02 -0.71485232342E+01 -0.31710546879E+02  0.40659145716E+02  0.00000000000E+00 0.  1.
         11    1    3    3    0    0  0.98456450669E+01  0.72194022852E+01  0.14081062146E+02  0.18636866893E+02  0.51100000000E-03 0. -1.
        -11    1    3    3    0    0 -0.53153880503E+01  0.30727659703E+01  0.62422279698E+01  0.87556068392E+01  0.51100000000E-03 0.  1.
         12    1    3    3    0    0  0.19893214534E+02 -0.31436450214E+01  0.11387256762E+02  0.23136380553E+02  0.00000000000E+00 0. -1.
</event>
<event>
 7    1  0.2945316E-011  0.5052885E+02  0.7816164E-02  0.1300439E+00
        -11   -1    0    0    0    0  0.00000000000E+00  0.00000000000E+00  0.45593999997E+02  0.45594000000E+02  0.51100000000E-03 0. -1.
         11   -1    0    0    0    0 -0.00000000000E+00 -0.00000000000E+00 -0.45593999997E+02  0.45594000000E+02  0.51100000000E-03 0.  1.
    9900012    2    1    2    0    0  0.48007082582E+01 -0.40229882387E+02  0.34170470937E+01  0.50528850384E+02  0.29999971226E+02 0.  0.
        -12    1    1    2    0    0 -0.48007082582E+01  0.40229882387E+02 -0.34170470937E+01  0.40659149616E+02  0.00000000000E+00 0.  1.
         11    1    3    3    0    0 -0.17444951711E+01 -0.11489672246E+02  0.53379055203E+00  0.11633604958E+02  0.51100000000E-03 0. -1.
        -11    1    3    3    0    0 -0.59786349470E+01 -0.14402995801E+02  0.10051799541E+02  0.18553410418E+02  0.51100000000E-03 0.  1.
        -12    1    3    3    0    0  0.12523838376E+02 -0.14337214341E+02 -0.71685429994E+01  0.20341835007E+02  0.00000000000E+00 0.  1.
</event>
<event>
 7    1  0.2945316E-011  0.5052886E+02  0.7816164E-02  0.1300439E+00
        -11   -1    0    0    0    0  0.00000000000E+00  0.00000000000E+00  0.45593999997E+02  0.45594000000E+02  0.51100000000E-03 0. -1.
         11   -1    0    0    0    0 -0.00000000000E+00 -0.00000000000E+00 -0.45593999997E+02  0.45594000000E+02  0.51100000000E-03 0.  1.
    9900012    2    1    2    0    0  0.17490395133E+01 -0.31045374913E+02 -0.26197159868E+02  0.50528860464E+02  0.30000001866E+02 0.  0.
        -12    1    1    2    0    0 -0.17490395133E+01  0.31045374913E+02  0.26197159868E+02  0.40659139536E+02  0.00000000000E+00 0.  1.
         11    1    3    3    0    0  0.67010798678E+01 -0.21140796432E+02 -0.18794636405E+02  0.29070192690E+02  0.51100000000E-03 0. -1.
        -11    1    3    3    0    0  0.47190740323E+01  0.89380591983E+00  0.69704562683E+00  0.48532897720E+01  0.51100000000E-03 0.  1.
         12    1    3    3    0    0 -0.96711143868E+01 -0.10798384400E+02 -0.80995690898E+01  0.16605378001E+02  0.00000000000E+00 0. -1.
</event>
<event>
 7    1  0.2945316E-011  0.5052886E+02  0.7816164E-02  0.1300439E+00
        -11   -1    0    0    0    0  0.00000000000E+00  0.00000000000E+00  0.45593999997E+02  0.45594000000E+02  0.51100000000E-03 0.  1.
         11   -1    0    0    0    0 -0.00000000000E+00 -0.00000000000E+00 -0.45593999997E+02  0.45594000000E+02  0.51100000000E-03 0. -1.
    9900012    2    1    2    0    0  0.22242703525E+02 -0.28253284555E+02 -0.18978410310E+02  0.50528855811E+02  0.29999987724E+02 0.  0.
        -12    1    1    2    0    0 -0.22242703525E+02  0.28253284555E+02  0.18978410310E+02  0.40659144189E+02  0.00000000000E+00 0.  1.
         11    1    3    3    0    0  0.85419281094E+01 -0.27139985166E+02 -0.15673268428E+02  0.32483760160E+02  0.51100000000E-03 0. -1.
        -11    1    3    3    0    0  0.73220129795E+01 -0.50204068286E+01 -0.52528112334E+01  0.10315444000E+02  0.51100000000E-03 0.  1.
         12    1    3    3    0    0  0.63787624362E+01  0.39071074394E+01  0.19476693512E+01  0.77296516520E+01  0.00000000000E+00 0. -1.
</event>
<event>
 7    1  0.2945316E-011  0.5052886E+02  0.7816164E-02  0.1300439E+00
        -11   -1    0    0    0    0  0.00000000000E+00  0.00000000000E+00  0.45593999997E+02  0.45594000000E+02  0.51100000000E-03 0.  1.
         11   -1    0    0    0    0 -0.00000000000E+00 -0.00000000000E+00 -0.45593999997E+02  0.45594000000E+02  0.51100000000E-03 0. -1.
    9900012    2    1    2    0    0 -0.36565618198E+01  0.40489523985E+02 -0.62744372470E+00  0.50528859792E+02  0.29999999822E+02 0.  0.
        -12    1    1    2    0    0  0.36565618198E+01 -0.40489523985E+02  0.62744372470E+00  0.40659140208E+02  0.00000000000E+00 0.  1.
         11    1    3    3    0    0  0.10603264173E+01  0.23700484097E+02  0.40217774126E+01  0.24062666776E+02  0.51100000000E-03 0. -1.
        -11    1    3    3    0    0  0.52110727996E+01  0.62882743163E+01  0.45371199436E+01  0.93425441526E+01  0.51100000000E-03 0.  1.
        -12    1    3    3    0    0 -0.99279610367E+01  0.10500765571E+02 -0.91863410809E+01  0.17123648863E+02  0.00000000000E+00 0.  1.
</event>
<event>
 7    1  0.2945316E-011  0.5052886E+02  0.7816164E-02  0.1300439E+00
        -11   -1    0    0    0    0  0.00000000000E+00  0.00000000000E+00  0.45593999997E+02  0.45594000000E+02  0.51100000000E-03 0.  1.
         11   -1    0    0    0    0 -0.00000000000E+00 -0.00000000000E+00 -0.45593999997E+02  0.45594000000E+02  0.51100000000E-03 0. -1.
    9900012    2    1    2    0    0  0.14240965033E+02  0.32592152451E+02 -0.19700558232E+02  0.50528862268E+02  0.30000007351E+02 0.  0.
        -12    1    1    2    0    0 -0.14240965033E+02 -0.32592152451E+02  0.19700558232E+02  0.40659137732E+02  0.00000000000E+00 0.  1.
         11    1    3    3    0    0 -0.29607803693E+01  0.16833198637E+02 -0.14738890917E+01  0.17155032674E+02  0.51100000000E-03 0. -1.
        -11    1    3    3    0    0  0.72672175139E+00  0.52514702401E+01  0.15985640237E+01  0.55372801433E+01  0.51100000000E-03 0.  1.
         12    1    3    3    0    0  0.16475023650E+02  0.10507483574E+02 -0.19825233164E+02  0.27836549451E+02  0.00000000000E+00 0. -1.
</event>
<event>
 7    1  0.2945316E-011  0.5052885E+02  0.7816164E-02  0.1300439E+00
        -11   -1    0    0    0    0  0.00000000000E+00  0.00000000000E+00  0.45593999997E+02  0.45594000000E+02  0.51100000000E-03 0.  1.
         11   -1    0    0    0    0 -0.00000000000E+00 -0.00000000000E+00 -0.45593999997E+02  0.45594000000E+02  0.51100000000E-03 0. -1.
    9900012    2    1    2    0    0  0.37240523424E+02 -0.15441161982E+02  0.52801729496E+01  0.50528852264E+02  0.29999976941E+02 0.  0.
        -12    1    1    2    0    0 -0.37240523424E+02  0.15441161982E+02 -0.52801729496E+01  0.40659147736E+02  0.00000000000E+00 0.  1.
         11    1    3    3    0    0  0.19100112975E+02 -0.13534938003E+02  0.45568380458E+01  0.23848975568E+02  0.51100000000E-03 0. -1.
        -11    1    3    3    0    0  0.11642024125E+02 -0.10457988978E+02  0.23223051918E+01  0.15820852090E+02  0.51100000000E-03 0.  1.
        -12    1    3    3    0    0  0.64983863241E+01  0.85517649989E+01 -0.15989702879E+01  0.10859024606E+02  0.00000000000E+00 0.  1.
</event>
<event>
 7    1  0.2945316E-011  0.5052887E+02  0.7816164E-02  0.1300439E+00
        -11   -1    0    0    0    0  0.00000000000E+00  0.00000000000E+00  0.45593999997E+02  0.45594000000E+02  0.51100000000E-03 0. -1.
         11   -1    0    0    0    0 -0.00000000000E+00 -0.00000000000E+00 -0.45593999997E+02  0.45594000000E+02  0.51100000000E-03 0.  1.
    9900012    2    1    2    0    0 -0.86084737103E+01 -0.19946162701E+02  0.34368732292E+02  0.50528868363E+02  0.30000025877E+02 0.  0.
        -12    1    1    2    0    0  0.86084737103E+01  0.19946162701E+02 -0.34368732292E+02  0.40659131637E+02  0.00000000000E+00 0.  1.
         11    1    3    3    0    0  0.54385328205E+01 -0.95205318121E+01  0.25661931365E+02  0.27906144249E+02  0.51100000000E-03 0. -1.
        -11    1    3    3    0    0  0.15442664193E+01 -0.34360283643E+01  0.20203169006E+01  0.42746614292E+01  0.51100000000E-03 0.  1.
        -12    1    3    3    0    0 -0.15591272950E+02 -0.69896025243E+01  0.66864840263E+01  0.18348062685E+02  0.00000000000E+00 0.  1.
</event>
<event>
 7    1  0.2945316E-011  0.5052886E+02  0.7816164E-02  0.1300439E+00
        -11   -1    0    0    0    0  0.00000000000E+00  0.00000000000E+00  0.45593999997E+02  0.45594000000E+02  0.51100000000E-03 0.  1.
         11   -1    0    0    0    0 -0.00000000000E+00 -0.00000000000E+00 -0.45593999997E+02  0.45594000000E+02  0.51100000000E-03 0. -1.
    9900012    2    1    2    0    0 -0.99376510769E+01 -0.23132636615E+02 -0.31926313615E+02  0.50528864658E+02  0.30000014614E+02 0.  0.
        -12    1    1    2    0    0  0.99376510769E+01  0.23132636615E+02  0.31926313615E+02  0.40659135342E+02  0.00000000000E+00 0.  1.
         11    1    3    3    0    0 -0.27813172886E+01  0.38997233006E+01 -0.76992037775E+01  0.90675965255E+01  0.51100000000E-03 0. -1.
        -11    1    3    3    0    0 -0.10357866060E+02 -0.20741801937E+02 -0.25306367969E+02  0.34320839106E+02  0.51100000000E-03 0.  1.
        -12    1    3    3    0    0  0.32015322717E+01 -0.62905579784E+01  0.10792581307E+01  0.71404290263E+01  0.00000000000E+00 0.  1.
</event>
<event>
 7    1  0.2945316E-011  0.5052886E+02  0.7816164E-02  0.1300439E+00
        -11   -1    0    0    0    0  0.00000000000E+00  0.00000000000E+00  0.45593999997E+02  0.45594000000E+02  0.51100000000E-03 0. -1.
         11   -1    0    0    0    0 -0.00000000000E+00 -0.00000000000E+00 -0.45593999997E+02  0.45594000000E+02  0.51100000000E-03 0.  1.
    9900012    2    1    2    0    0 -0.10002641134E+02  0.39296036155E+02 -0.29890101413E+01  0.50528862420E+02  0.30000007811E+02 0.  0.
        -12    1    1    2    0    0  0.10002641134E+02 -0.39296036155E+02  0.29890101413E+01  0.40659137580E+02  0.00000000000E+00 0.  1.
         11    1    3    3    0    0 -0.10580580185E+01 -0.25750112006E+01  0.72490689021E-01  0.27848563006E+01  0.51100000000E-03 0. -1.
        -11    1    3    3    0    0 -0.50277190715E+01 -0.22902782387E+00 -0.20936667072E+01  0.54510414921E+01  0.51100000000E-03 0.  1.
         12    1    3    3    0    0 -0.39168640437E+01  0.42100075180E+02 -0.96783412315E+00  0.42292964627E+02  0.00000000000E+00 0. -1.
</event>
<event>
 7    1  0.2945316E-011  0.5052885E+02  0.7816164E-02  0.1300439E+00
        -11   -1    0    0    0    0  0.00000000000E+00  0.00000000000E+00  0.45593999997E+02  0.45594000000E+02  0.51100000000E-03 0.  1.
         11   -1    0    0    0    0 -0.00000000000E+00 -0.00000000000E+00 -0.45593999997E+02  0.45594000000E+02  0.51100000000E-03 0. -1.
    9900012    2    1    2    0    0 -0.10214011587E+02  0.78419082571E+01 -0.38566113912E+02  0.50528847277E+02  0.29999961784E+02 0.  0.
        -12    1    1    2    0    0  0.10214011587E+02 -0.78419082571E+01  0.38566113912E+02  0.40659152723E+02  0.00000000000E+00 0.  1.
         11    1    3    3    0    0  0.68702520361E+01  0.68687863959E+01 -0.21410025147E+02  0.23511056264E+02  0.51100000000E-03 0. -1.
        -11    1    3    3    0    0 -0.25359447644E+01  0.29394928729E+01  0.65416358756E+00  0.39369486227E+01  0.51100000000E-03 0.  1.
        -12    1    3    3    0    0 -0.14548318859E+02 -0.19663710117E+01 -0.17810252353E+02  0.23080842390E+02  0.00000000000E+00 0.  1.
</event>
<event>
 7    1  0.2945316E-011  0.5052886E+02  0.7816164E-02  0.1300439E+00
        -11   -1    0    0    0    0  0.00000000000E+00  0.00000000000E+00  0.45593999997E+02  0.45594000000E+02  0.51100000000E-03 0.  1.
         11   -1    0    0    0    0 -0.00000000000E+00 -0.00000000000E+00 -0.45593999997E+02  0.45594000000E+02  0.51100000000E-03 0. -1.
    9900012    2    1    2    0    0 -0.27077460895E+02  0.27361612423E+02  0.13088877424E+02  0.50528862833E+02  0.30000009068E+02 0.  0.
        -12    1    1    2    0    0  0.27077460895E+02 -0.27361612423E+02 -0.13088877424E+02  0.40659137167E+02  0.00000000000E+00 0.  1.
         11    1    3    3    0    0 -0.53721376992E-01  0.33781970480E+01  0.93496241862E+01  0.99413567467E+01  0.51100000000E-03 0. -1.
        -11    1    3    3    0    0 -0.38427688994E+01  0.40820433452E+01 -0.62953991345E+01  0.84298280653E+01  0.51100000000E-03 0.  1.
         12    1    3    3    0    0 -0.23180970619E+02  0.19901372030E+02  0.10034652372E+02  0.32157678021E+02  0.00000000000E+00 0. -1.
</event>
<event>
 7    1  0.2945316E-011  0.5052886E+02  0.7816164E-02  0.1300439E+00
        -11   -1    0    0    0    0  0.00000000000E+00  0.00000000000E+00  0.45593999997E+02  0.45594000000E+02  0.51100000000E-03 0.  1.
         11   -1    0    0    0    0 -0.00000000000E+00 -0.00000000000E+00 -0.45593999997E+02  0.45594000000E+02  0.51100000000E-03 0. -1.
    9900012    2    1    2    0    0  0.38985076000E+01  0.38668582479E+02 -0.11946054471E+02  0.50528857733E+02  0.29999993565E+02 0.  0.
        -12    1    1    2    0    0 -0.38985076000E+01 -0.38668582479E+02  0.11946054471E+02  0.40659142267E+02  0.00000000000E+00 0.  1.
         11    1    3    3    0    0  0.45272782924E+01 -0.33050722424E+01 -0.26525750779E+01  0.62012826149E+01  0.51100000000E-03 0. -1.
        -11    1    3    3    0    0 -0.12195602371E+01  0.76334574720E-01  0.46040420065E+00  0.13058048968E+01  0.51100000000E-03 0.  1.
         12    1    3    3    0    0  0.59078954480E+00  0.41897320147E+02 -0.97538835939E+01  0.43021770221E+02  0.00000000000E+00 0. -1.
</event>
<event>
 7    1  0.2945316E-011  0.5052886E+02  0.7816164E-02  0.1300439E+00
        -11   -1    0    0    0    0  0.00000000000E+00  0.00000000000E+00  0.45593999997E+02  0.45594000000E+02  0.51100000000E-03 0.  1.
         11   -1    0    0    0    0 -0.00000000000E+00 -0.00000000000E+00 -0.45593999997E+02  0.45594000000E+02  0.51100000000E-03 0. -1.
    9900012    2    1    2    0    0  0.33842642241E+02 -0.16815404326E+02 -0.15002776413E+02  0.50528861339E+02  0.30000004527E+02 0.  0.
        -12    1    1    2    0    0 -0.33842642241E+02  0.16815404326E+02  0.15002776413E+02  0.40659138661E+02  0.00000000000E+00 0.  1.
         11    1    3    3    0    0  0.22558984745E+02 -0.15507854869E+02 -0.11743297249E+02  0.29787688496E+02  0.51100000000E-03 0. -1.
        -11    1    3    3    0    0  0.15846408243E+02 -0.54048831665E+00 -0.24350075283E+01  0.16041510021E+02  0.51100000000E-03 0.  1.
        -12    1    3    3    0    0 -0.45627507469E+01 -0.76706114051E+00 -0.82447163548E+00  0.46996628229E+01  0.00000000000E+00 0.  1.
</event>
<event>
 7    1  0.2965480E-011  0.5052884E+02  0.7816164E-02  0.1300439E+00
        -11   -1    0    0    0    0  0.00000000000E+00  0.00000000000E+00  0.45593999997E+02  0.45594000000E+02  0.51100000000E-03 0.  1.
         11   -1    0    0    0    0 -0.00000000000E+00 -0.00000000000E+00 -0.45593999997E+02  0.45594000000E+02  0.51100000000E-03 0. -1.
    9900012    2    1    2    0    0 -0.38286827790E+02 -0.13366381707E+02  0.29370135750E+01  0.50528838782E+02  0.29999935963E+02 0.  0.
        -12    1    1    2    0    0  0.38286827790E+02  0.13366381707E+02 -0.29370135750E+01  0.40659161218E+02  0.00000000000E+00 0.  1.
         11    1    3    3    0    0 -0.10906969388E+02 -0.39899727237E+01 -0.95464470131E+01  0.15033845629E+02  0.51100000000E-03 0. -1.
        -11    1    3    3    0    0  0.19096990301E+01  0.15840413861E-01 -0.69475145532E+00  0.20322109020E+01  0.51100000000E-03 0.  1.
         12    1    3    3    0    0 -0.29289557433E+02 -0.93922493972E+01  0.13178212043E+02  0.33462782251E+02  0.00000000000E+00 0. -1.
</event>
<event>
 7    1  0.2945316E-011  0.5052886E+02  0.7816164E-02  0.1300439E+00
        -11   -1    0    0    0    0  0.00000000000E+00  0.00000000000E+00  0.45593999997E+02  0.45594000000E+02  0.51100000000E-03 0.  1.
         11   -1    0    0    0    0 -0.00000000000E+00 -0.00000000000E+00 -0.45593999997E+02  0.45594000000E+02  0.51100000000E-03 0. -1.
    9900012    2    1    2    0    0 -0.54068624040E+01  0.23185958785E+02 -0.32959714885E+02  0.50528860177E+02  0.30000000994E+02 0.  0.
        -12    1    1    2    0    0  0.54068624040E+01 -0.23185958785E+02  0.32959714885E+02  0.40659139823E+02  0.00000000000E+00 0.  1.
         11    1    3    3    0    0 -0.56496171113E+01 -0.69651104551E+00 -0.16545079669E+01  0.59279590092E+01  0.51100000000E-03 0. -1.
        -11    1    3    3    0    0 -0.79748001328E+00 -0.38927393692E+01 -0.38977073690E+01  0.55661043076E+01  0.51100000000E-03 0.  1.
         12    1    3    3    0    0  0.10402347206E+01  0.27775209200E+02 -0.27407499549E+02  0.39034796860E+02  0.00000000000E+00 0. -1.
</event>
<event>
 7    1  0.2945316E-011  0.5052886E+02  0.7816164E-02  0.1300439E+00
        -11   -1    0    0    0    0  0.00000000000E+00  0.00000000000E+00  0.45593999997E+02  0.45594000000E+02  0.51100000000E-03 0.  1.
         11   -1    0    0    0    0 -0.00000000000E+00 -0.00000000000E+00 -0.45593999997E+02  0.45594000000E+02  0.51100000000E-03 0. -1.
    9900012    2    1    2    0    0  0.36975084559E+02  0.14097017676E+02 -0.93425432818E+01  0.50528857111E+02  0.29999991673E+02 0.  0.
        -12    1    1    2    0    0 -0.36975084559E+02 -0.14097017676E+02  0.93425432818E+01  0.40659142889E+02  0.00000000000E+00 0.  1.
         11    1    3    3    0    0  0.10927570790E+02  0.11653174364E+02 -0.49934022259E+00  0.15983041545E+02  0.51100000000E-03 0. -1.
        -11    1    3    3    0    0  0.11205911774E+02 -0.65124916449E+01 -0.11100601037E+02  0.17064827856E+02  0.51100000000E-03 0.  1.
         12    1    3    3    0    0  0.14841601995E+02  0.89563349568E+01  0.22573979781E+01  0.17480987709E+02  0.00000000000E+00 0. -1.
</event>
<event>
 7    1  0.2945316E-011  0.5052885E+02  0.7816164E-02  0.1300439E+00
        -11   -1    0    0    0    0  0.00000000000E+00  0.00000000000E+00  0.45593999997E+02  0.45594000000E+02  0.51100000000E-03 0.  1.
         11   -1    0    0    0    0 -0.00000000000E+00 -0.00000000000E+00 -0.45593999997E+02  0.45594000000E+02  0.51100000000E-03 0. -1.
    9900012    2    1    2    0    0 -0.21367067796E+02  0.33226645663E+02  0.96231243422E+01  0.50528854776E+02  0.29999984578E+02 0.  0.
        -12    1    1    2    0    0  0.21367067796E+02 -0.33226645663E+02 -0.96231243422E+01  0.40659145224E+02  0.00000000000E+00 0.  1.
         11    1    3    3    0    0 -0.14904001022E+02  0.13054392335E+02  0.50970476678E+01  0.20457915360E+02  0.51100000000E-03 0. -1.
        -11    1    3    3    0    0 -0.84947251855E+01  0.58924182926E+01  0.10245134713E+02  0.14554852623E+02  0.51100000000E-03 0.  1.
         12    1    3    3    0    0  0.20316584108E+01  0.14279835035E+02 -0.57190580388E+01  0.15516086794E+02  0.00000000000E+00 0. -1.
</event>
<event>
 7    1  0.2945316E-011  0.5052886E+02  0.7816164E-02  0.1300439E+00
        -11   -1    0    0    0    0  0.00000000000E+00  0.00000000000E+00  0.45593999997E+02  0.45594000000E+02  0.51100000000E-03 0. -1.
         11   -1    0    0    0    0 -0.00000000000E+00 -0.00000000000E+00 -0.45593999997E+02  0.45594000000E+02  0.51100000000E-03 0.  1.
    9900012    2    1    2    0    0 -0.88088670328E+01  0.28500015406E+02  0.27628226836E+02  0.50528856691E+02  0.29999990398E+02 0.  0.
        -12    1    1    2    0    0  0.88088670328E+01 -0.28500015406E+02 -0.27628226836E+02  0.40659143309E+02  0.00000000000E+00 0.  1.
         11    1    3    3    0    0 -0.86471286243E-01 -0.48431510886E+00 -0.18156871666E+01  0.18811588333E+01  0.51100000000E-03 0. -1.
        -11    1    3    3    0    0 -0.42316283535E+01 -0.33790903394E+01  0.76496629450E+01  0.93724208974E+01  0.51100000000E-03 0.  1.
         12    1    3    3    0    0 -0.44907673931E+01  0.32363420854E+02  0.21794251058E+02  0.39275276960E+02  0.00000000000E+00 0. -1.
</event>
<event>
 7    1  0.2945316E-011  0.5052887E+02  0.7816164E-02  0.1300439E+00
        -11   -1    0    0    0    0  0.00000000000E+00  0.00000000000E+00  0.45593999997E+02  0.45594000000E+02  0.51100000000E-03 0.  1.
         11   -1    0    0    0    0 -0.00000000000E+00 -0.00000000000E+00 -0.45593999997E+02  0.45594000000E+02  0.51100000000E-03 0. -1.
    9900012    2    1    2    0    0  0.38406441711E+02 -0.12788999455E+02 -0.38146324641E+01  0.50528871962E+02  0.30000036815E+02 0.  0.
        -12    1    1    2    0    0 -0.38406441711E+02  0.12788999455E+02  0.38146324641E+01  0.40659128038E+02  0.00000000000E+00 0.  1.
         11    1    3    3    0    0  0.32961138820E+01  0.13493590655E+01  0.33351358063E+01  0.48793716520E+01  0.51100000000E-03 0.  1.
        -11    1    3    3    0    0  0.10873165242E+02 -0.43568154787E+01 -0.14364940112E+02  0.18535346454E+02  0.51100000000E-03 0. -1.
         12    1    3    3    0    0  0.24237162588E+02 -0.97815430419E+01  0.72151718420E+01  0.27114153855E+02  0.00000000000E+00 0. -1.
</event>
<event>
 7    1  0.2945316E-011  0.5052887E+02  0.7816164E-02  0.1300439E+00
        -11   -1    0    0    0    0  0.00000000000E+00  0.00000000000E+00  0.45593999997E+02  0.45594000000E+02  0.51100000000E-03 0. -1.
         11   -1    0    0    0    0 -0.00000000000E+00 -0.00000000000E+00 -0.45593999997E+02  0.45594000000E+02  0.51100000000E-03 0.  1.
    9900012    2    1    2    0    0 -0.23086772872E+02  0.29001221602E+02  0.16706133882E+02  0.50528870086E+02  0.30000031114E+02 0.  0.
        -12    1    1    2    0    0  0.23086772872E+02 -0.29001221602E+02 -0.16706133882E+02  0.40659129914E+02  0.00000000000E+00 0.  1.
         11    1    3    3    0    0 -0.20014693126E+02  0.20794004082E+02  0.85492867665E+01  0.30100977578E+02  0.51100000000E-03 0. -1.
        -11    1    3    3    0    0 -0.34106791959E+01  0.64946596221E+01  0.13194341921E+02  0.15096489498E+02  0.51100000000E-03 0.  1.
         12    1    3    3    0    0  0.33859944997E+00  0.17125578986E+01 -0.50374948050E+01  0.53314030099E+01  0.00000000000E+00 0. -1.
</event>
<event>
 7    1  0.2945316E-011  0.5052886E+02  0.7816164E-02  0.1300439E+00
        -11   -1    0    0    0    0  0.00000000000E+00  0.00000000000E+00  0.45593999997E+02  0.45594000000E+02  0.51100000000E-03 0.  1.
         11   -1    0    0    0    0 -0.00000000000E+00 -0.00000000000E+00 -0.45593999997E+02  0.45594000000E+02  0.51100000000E-03 0. -1.
    9900012    2    1    2    0    0 -0.20338435511E+02 -0.29821458318E+02  0.18713487072E+02  0.50528856703E+02  0.29999990434E+02 0.  0.
        -12    1    1    2    0    0  0.20338435511E+02  0.29821458318E+02 -0.18713487072E+02  0.40659143297E+02  0.00000000000E+00 0.  1.
         11    1    3    3    0    0 -0.18643108008E+02 -0.14049581737E+02  0.60778887482E+01  0.24122540394E+02  0.51100000000E-03 0. -1.
        -11    1    3    3    0    0 -0.55146651944E+01 -0.17125037433E+01  0.10077309069E+02  0.11614489210E+02  0.51100000000E-03 0.  1.
         12    1    3    3    0    0  0.38193376915E+01 -0.14059372839E+02  0.25582892547E+01  0.14791827099E+02  0.00000000000E+00 0. -1.
</event>
<event>
 7    1  0.2945316E-011  0.5052886E+02  0.7816164E-02  0.1300439E+00
        -11   -1    0    0    0    0  0.00000000000E+00  0.00000000000E+00  0.45593999997E+02  0.45594000000E+02  0.51100000000E-03 0.  1.
         11   -1    0    0    0    0 -0.00000000000E+00 -0.00000000000E+00 -0.45593999997E+02  0.45594000000E+02  0.51100000000E-03 0. -1.
    9900012    2    1    2    0    0  0.33645064447E+02 -0.31359348717E+01 -0.22612850196E+02  0.50528862734E+02  0.30000008767E+02 0.  0.
        -12    1    1    2    0    0 -0.33645064447E+02  0.31359348717E+01  0.22612850196E+02  0.40659137266E+02  0.00000000000E+00 0.  1.
         11    1    3    3    0    0  0.42811707717E+01  0.13744274486E+01  0.31858109489E+01  0.55106139088E+01  0.51100000000E-03 0.  1.
        -11    1    3    3    0    0  0.14280514379E+02 -0.13084969433E+02 -0.15779865237E+02  0.24983067529E+02  0.51100000000E-03 0. -1.
         12    1    3    3    0    0  0.15083379296E+02  0.85746071127E+01 -0.10018795909E+02  0.20035181297E+02  0.00000000000E+00 0. -1.
</event>
<event>
 7    1  0.2945316E-011  0.5052887E+02  0.7816164E-02  0.1300439E+00
        -11   -1    0    0    0    0  0.00000000000E+00  0.00000000000E+00  0.45593999997E+02  0.45594000000E+02  0.51100000000E-03 0. -1.
         11   -1    0    0    0    0 -0.00000000000E+00 -0.00000000000E+00 -0.45593999997E+02  0.45594000000E+02  0.51100000000E-03 0.  1.
    9900012    2    1    2    0    0  0.35153602697E+02 -0.91943129360E+01  0.18244271224E+02  0.50528873036E+02  0.30000040081E+02 0.  0.
        -12    1    1    2    0    0 -0.35153602697E+02  0.91943129360E+01 -0.18244271224E+02  0.40659126964E+02  0.00000000000E+00 0.  1.
         11    1    3    3    0    0  0.33786496401E+02 -0.11602845802E+01  0.12495035148E+02  0.36041635686E+02  0.51100000000E-03 0. -1.
        -11    1    3    3    0    0  0.40524369824E+01  0.73901867960E+00  0.16280231103E+01  0.44293175111E+01  0.51100000000E-03 0.  1.
        -12    1    3    3    0    0 -0.26853306856E+01 -0.87730470353E+01  0.41212129655E+01  0.10057919839E+02  0.00000000000E+00 0.  1.
</event>
<event>
 7    1  0.2945316E-011  0.5052885E+02  0.7816164E-02  0.1300439E+00
        -11   -1    0    0    0    0  0.00000000000E+00  0.00000000000E+00  0.45593999997E+02  0.45594000000E+02  0.51100000000E-03 0.  1.
         11   -1    0    0    0    0 -0.00000000000E+00 -0.00000000000E+00 -0.45593999997E+02  0.45594000000E+02  0.51100000000E-03 0. -1.
    9900012    2    1    2    0    0 -0.63555908835E+01 -0.39917672424E+02 -0.43991318431E+01  0.50528850130E+02  0.29999970454E+02 0.  0.
        -12    1    1    2    0    0  0.63555908835E+01  0.39917672424E+02  0.43991318431E+01  0.40659149870E+02  0.00000000000E+00 0.  1.
         11    1    3    3    0    0 -0.98688092145E+01 -0.17027509178E+02 -0.14141512566E+01  0.19731428944E+02  0.51100000000E-03 0. -1.
        -11    1    3    3    0    0  0.99814171010E+00 -0.20918868442E+02 -0.99112274344E+01  0.23169544089E+02  0.51100000000E-03 0.  1.
        -12    1    3    3    0    0  0.25150766209E+01 -0.19712948034E+01  0.69262468478E+01  0.76278770971E+01  0.00000000000E+00 0.  1.
</event>
<event>
 7    1  0.2945316E-011  0.5052888E+02  0.7816164E-02  0.1300439E+00
        -11   -1    0    0    0    0  0.00000000000E+00  0.00000000000E+00  0.45593999997E+02  0.45594000000E+02  0.51100000000E-03 0.  1.
         11   -1    0    0    0    0 -0.00000000000E+00 -0.00000000000E+00 -0.45593999997E+02  0.45594000000E+02  0.51100000000E-03 0. -1.
    9900012    2    1    2    0    0  0.39847958875E+02  0.59108929784E+01 -0.55105257287E+01  0.50528875856E+02  0.30000048652E+02 0.  0.
        -12    1    1    2    0    0 -0.39847958875E+02 -0.59108929784E+01  0.55105257287E+01  0.40659124144E+02  0.00000000000E+00 0.  1.
         11    1    3    3    0    0  0.13805904824E+02 -0.19564717402E+01 -0.18085276490E+01  0.14060638755E+02  0.51100000000E-03 0. -1.
        -11    1    3    3    0    0  0.16909005191E+02 -0.28824638719E+01 -0.11207718993E+02  0.20489900434E+02  0.51100000000E-03 0.  1.
        -12    1    3    3    0    0  0.91330488604E+01  0.10749828591E+02  0.75057209131E+01  0.15978336667E+02  0.00000000000E+00 0.  1.
</event>
<event>
 7    1  0.2945316E-011  0.5052886E+02  0.7816164E-02  0.1300439E+00
        -11   -1    0    0    0    0  0.00000000000E+00  0.00000000000E+00  0.45593999997E+02  0.45594000000E+02  0.51100000000E-03 0.  1.
         11   -1    0    0    0    0 -0.00000000000E+00 -0.00000000000E+00 -0.45593999997E+02  0.45594000000E+02  0.51100000000E-03 0. -1.
    9900012    2    1    2    0    0 -0.44555953404E+01  0.27504707918E+02 -0.29610883359E+02  0.50528859567E+02  0.29999999139E+02 0.  0.
        -12    1    1    2    0    0  0.44555953404E+01 -0.27504707918E+02  0.29610883359E+02  0.40659140433E+02  0.00000000000E+00 0.  1.
         11    1    3    3    0    0 -0.38522590807E+01  0.34101433701E+01 -0.15774929767E+01  0.53812138205E+01  0.51100000000E-03 0. -1.
        -11    1    3    3    0    0  0.88214380673E+01  0.23641216194E+02 -0.16090283057E+02  0.29926945748E+02  0.51100000000E-03 0.  1.
        -12    1    3    3    0    0 -0.94247743271E+01  0.45334835398E+00 -0.11943107325E+02  0.15220699998E+02  0.00000000000E+00 0.  1.
</event>
<event>
 7    1  0.2945316E-011  0.5052886E+02  0.7816164E-02  0.1300439E+00
        -11   -1    0    0    0    0  0.00000000000E+00  0.00000000000E+00  0.45593999997E+02  0.45594000000E+02  0.51100000000E-03 0.  1.
         11   -1    0    0    0    0 -0.00000000000E+00 -0.00000000000E+00 -0.45593999997E+02  0.45594000000E+02  0.51100000000E-03 0. -1.
    9900012    2    1    2    0    0 -0.83712676328E+01  0.30529214084E+01 -0.39670738656E+02  0.50528856423E+02  0.29999989583E+02 0.  0.
        -12    1    1    2    0    0  0.83712676328E+01 -0.30529214084E+01  0.39670738656E+02  0.40659143577E+02  0.00000000000E+00 0.  1.
         11    1    3    3    0    0  0.46454128229E+01  0.51741588977E+01 -0.64683951615E+01  0.94969424985E+01  0.51100000000E-03 0. -1.
        -11    1    3    3    0    0 -0.19946456616E+00  0.49303529265E+01 -0.20668927795E+00  0.49387130725E+01  0.51100000000E-03 0.  1.
         12    1    3    3    0    0 -0.12817215889E+02 -0.70515904159E+01 -0.32995654217E+02  0.36093200852E+02  0.00000000000E+00 0. -1.
</event>
<event>
 7    1  0.2945316E-011  0.5052884E+02  0.7816164E-02  0.1300439E+00
        -11   -1    0    0    0    0  0.00000000000E+00  0.00000000000E+00  0.45593999997E+02  0.45594000000E+02  0.51100000000E-03 0.  1.
         11   -1    0    0    0    0 -0.00000000000E+00 -0.00000000000E+00 -0.45593999997E+02  0.45594000000E+02  0.51100000000E-03 0. -1.
    9900012    2    1    2    0    0  0.31023201313E+02 -0.17866997457E+01 -0.26220911837E+02  0.50528837032E+02  0.29999930643E+02 0.  0.
        -12    1    1    2    0    0 -0.31023201313E+02  0.17866997457E+01  0.26220911837E+02  0.40659162968E+02  0.00000000000E+00 0.  1.
         11    1    3    3    0    0 -0.10224510882E+01  0.24352276390E+01 -0.70964031709E+01  0.75719665944E+01  0.51100000000E-03 0.  1.
        -11    1    3    3    0    0  0.25256358559E+02  0.62171565298E+01 -0.12733911564E+02  0.28960130990E+02  0.51100000000E-03 0. -1.
         12    1    3    3    0    0  0.67892938416E+01 -0.10439083914E+02 -0.63905971020E+01  0.13996739447E+02  0.00000000000E+00 0. -1.
</event>
<event>
 7    1  0.2945316E-011  0.5052884E+02  0.7816164E-02  0.1300439E+00
        -11   -1    0    0    0    0  0.00000000000E+00  0.00000000000E+00  0.45593999997E+02  0.45594000000E+02  0.51100000000E-03 0. -1.
         11   -1    0    0    0    0 -0.00000000000E+00 -0.00000000000E+00 -0.45593999997E+02  0.45594000000E+02  0.51100000000E-03 0.  1.
    9900012    2    1    2    0    0  0.33342117425E+02  0.23074926286E+02  0.30030077965E+01  0.50528842688E+02  0.29999947834E+02 0.  0.
        -12    1    1    2    0    0 -0.33342117425E+02 -0.23074926286E+02 -0.30030077965E+01  0.40659157312E+02  0.00000000000E+00 0.  1.
         11    1    3    3    0    0  0.15649055200E+02  0.62546780416E+01 -0.79237291493E+01  0.18622551113E+02  0.51100000000E-03 0. -1.
        -11    1    3    3    0    0 -0.21672923795E+01  0.40970732793E+01 -0.19562882385E+01  0.50309273149E+01  0.51100000000E-03 0.  1.
         12    1    3    3    0    0  0.19860354605E+02  0.12723174965E+02  0.12883025184E+02  0.26875364260E+02  0.00000000000E+00 0. -1.
</event>
<event>
 7    1  0.2945316E-011  0.5052885E+02  0.7816164E-02  0.1300439E+00
        -11   -1    0    0    0    0  0.00000000000E+00  0.00000000000E+00  0.45593999997E+02  0.45594000000E+02  0.51100000000E-03 0.  1.
         11   -1    0    0    0    0 -0.00000000000E+00 -0.00000000000E+00 -0.45593999997E+02  0.45594000000E+02  0.51100000000E-03 0. -1.
    9900012    2    1    2    0    0  0.13380832512E+02  0.19831625315E+01 -0.38343013251E+02  0.50528852474E+02  0.29999977581E+02 0.  0.
        -12    1    1    2    0    0 -0.13380832512E+02 -0.19831625315E+01  0.38343013251E+02  0.40659147526E+02  0.00000000000E+00 0.  1.
         11    1    3    3    0    0 -0.46005037621E+00  0.56440479185E+00 -0.23227914875E+02  0.23239325051E+02  0.51100000000E-03 0. -1.
        -11    1    3    3    0    0 -0.27131178047E+01 -0.12609228666E+01 -0.89265570603E+01  0.94145820890E+01  0.51100000000E-03 0.  1.
        -12    1    3    3    0    0  0.16554000693E+02  0.26796806062E+01 -0.61885413161E+01  0.17874945335E+02  0.00000000000E+00 0.  1.
</event>
<event>
 7    1  0.2945316E-011  0.5052886E+02  0.7816164E-02  0.1300439E+00
        -11   -1    0    0    0    0  0.00000000000E+00  0.00000000000E+00  0.45593999997E+02  0.45594000000E+02  0.51100000000E-03 0.  1.
         11   -1    0    0    0    0 -0.00000000000E+00 -0.00000000000E+00 -0.45593999997E+02  0.45594000000E+02  0.51100000000E-03 0. -1.
    9900012    2    1    2    0    0 -0.12070937423E+02  0.13733982291E+02 -0.36315780950E+02  0.50528859013E+02  0.29999997455E+02 0.  0.
        -12    1    1    2    0    0  0.12070937423E+02 -0.13733982291E+02  0.36315780950E+02  0.40659140987E+02  0.00000000000E+00 0.  1.
         11    1    3    3    0    0 -0.46163855436E+01  0.11747842620E+02 -0.16751752915E+02  0.20974843210E+02  0.51100000000E-03 0. -1.
        -11    1    3    3    0    0  0.17259716387E+01  0.98212713600E+01 -0.10326359238E+02  0.14355140006E+02  0.51100000000E-03 0.  1.
        -12    1    3    3    0    0 -0.91805235179E+01 -0.78351316897E+01 -0.92376687970E+01  0.15198875796E+02  0.00000000000E+00 0.  1.
</event>
<event>
 7    1  0.2945316E-011  0.5052876E+02  0.7816164E-02  0.1300439E+00
        -11   -1    0    0    0    0  0.00000000000E+00  0.00000000000E+00  0.45593999997E+02  0.45594000000E+02  0.51100000000E-03 0.  1.
         11   -1    0    0    0    0 -0.00000000000E+00 -0.00000000000E+00 -0.45593999997E+02  0.45594000000E+02  0.51100000000E-03 0. -1.
    9900012    2    1    2    0    0  0.35453844806E+02  0.22603012542E+01 -0.19775983566E+02  0.50528762436E+02  0.29999703898E+02 0.  0.
        -12    1    1    2    0    0 -0.35453844806E+02 -0.22603012542E+01  0.19775983566E+02  0.40659237564E+02  0.00000000000E+00 0.  1.
         11    1    3    3    0    0 -0.13282305405E+00 -0.27208178231E+01  0.10626931513E+01  0.29240055720E+01  0.51100000000E-03 0. -1.
        -11    1    3    3    0    0  0.17902126446E+02  0.98951578728E+01 -0.85737223977E+00  0.20472795804E+02  0.51100000000E-03 0.  1.
        -12    1    3    3    0    0  0.17684541414E+02 -0.49140387955E+01 -0.19981304478E+02  0.27131961060E+02  0.00000000000E+00 0.  1.
</event>
<event>
 7    1  0.2945316E-011  0.5052884E+02  0.7816164E-02  0.1300439E+00
        -11   -1    0    0    0    0  0.00000000000E+00  0.00000000000E+00  0.45593999997E+02  0.45594000000E+02  0.51100000000E-03 0. -1.
         11   -1    0    0    0    0 -0.00000000000E+00 -0.00000000000E+00 -0.45593999997E+02  0.45594000000E+02  0.51100000000E-03 0.  1.
    9900012    2    1    2    0    0 -0.22053170899E+02 -0.33772097554E+02  0.51254695241E+01  0.50528839190E+02  0.29999937203E+02 0.  0.
        -12    1    1    2    0    0  0.22053170899E+02  0.33772097554E+02 -0.51254695241E+01  0.40659160810E+02  0.00000000000E+00 0.  1.
         11    1    3    3    0    0 -0.43247677188E+01 -0.59855761169E+01  0.65097165424E+01  0.98441427761E+01  0.51100000000E-03 0. -1.
        -11    1    3    3    0    0 -0.14128114184E+02 -0.65776796581E+01  0.76400719405E+01  0.17356272054E+02  0.51100000000E-03 0.  1.
        -12    1    3    3    0    0 -0.36002889960E+01 -0.21208841779E+02 -0.90243189588E+01  0.23328424360E+02  0.00000000000E+00 0.  1.
</event>
<event>
 7    1  0.2945316E-011  0.5052886E+02  0.7816164E-02  0.1300439E+00
        -11   -1    0    0    0    0  0.00000000000E+00  0.00000000000E+00  0.45593999997E+02  0.45594000000E+02  0.51100000000E-03 0.  1.
         11   -1    0    0    0    0 -0.00000000000E+00 -0.00000000000E+00 -0.45593999997E+02  0.45594000000E+02  0.51100000000E-03 0. -1.
    9900012    2    1    2    0    0  0.19663191186E+02 -0.13599198724E+01 -0.35562273331E+02  0.50528858910E+02  0.29999997143E+02 0.  0.
        -12    1    1    2    0    0 -0.19663191186E+02  0.13599198724E+01  0.35562273331E+02  0.40659141090E+02  0.00000000000E+00 0.  1.
         11    1    3    3    0    0  0.73761584057E+01 -0.30100634319E+01 -0.18767399011E+02  0.20388316767E+02  0.51100000000E-03 0. -1.
        -11    1    3    3    0    0 -0.16034171487E+01 -0.17774417008E+01 -0.15601155474E+02  0.15783735234E+02  0.51100000000E-03 0.  1.
        -12    1    3    3    0    0  0.13890449929E+02  0.34275852603E+01 -0.11937188467E+01  0.14356806910E+02  0.00000000000E+00 0.  1.
</event>
<event>
 7    1  0.2945316E-011  0.5052885E+02  0.7816164E-02  0.1300439E+00
        -11   -1    0    0    0    0  0.00000000000E+00  0.00000000000E+00  0.45593999997E+02  0.45594000000E+02  0.51100000000E-03 0. -1.
         11   -1    0    0    0    0 -0.00000000000E+00 -0.00000000000E+00 -0.45593999997E+02  0.45594000000E+02  0.51100000000E-03 0.  1.
    9900012    2    1    2    0    0  0.23319729815E+02 -0.17208211714E+01  0.33262522109E+02  0.50528850953E+02  0.29999972958E+02 0.  0.
        -12    1    1    2    0    0 -0.23319729815E+02  0.17208211714E+01 -0.33262522109E+02  0.40659149047E+02  0.00000000000E+00 0.  1.
         11    1    3    3    0    0  0.14510329545E+02  0.11524255339E+01  0.55157244788E+01  0.15566019558E+02  0.51100000000E-03 0. -1.
        -11    1    3    3    0    0  0.13421190041E+02 -0.13267233606E+01  0.10641444880E+02  0.17179315655E+02  0.51100000000E-03 0.  1.
        -12    1    3    3    0    0 -0.46117897707E+01 -0.15465233447E+01  0.17105352750E+02  0.17783515740E+02  0.00000000000E+00 0.  1.
</event>
<event>
 7    1  0.2945316E-011  0.5052886E+02  0.7816164E-02  0.1300439E+00
        -11   -1    0    0    0    0  0.00000000000E+00  0.00000000000E+00  0.45593999997E+02  0.45594000000E+02  0.51100000000E-03 0.  1.
         11   -1    0    0    0    0 -0.00000000000E+00 -0.00000000000E+00 -0.45593999997E+02  0.45594000000E+02  0.51100000000E-03 0. -1.
    9900012    2    1    2    0    0 -0.32250884202E+02 -0.23808071385E+02  0.67986704224E+01  0.50528859399E+02  0.29999998631E+02 0.  0.
        -12    1    1    2    0    0  0.32250884202E+02  0.23808071385E+02 -0.67986704224E+01  0.40659140601E+02  0.00000000000E+00 0.  1.
         11    1    3    3    0    0 -0.13063408778E+02 -0.93710156401E+01  0.39326861145E+01  0.16550969862E+02  0.51100000000E-03 0. -1.
        -11    1    3    3    0    0 -0.23907421392E+02 -0.68551330262E+01  0.29601134025E+01  0.25046355384E+02  0.51100000000E-03 0.  1.
        -12    1    3    3    0    0  0.47199459680E+01 -0.75819227183E+01 -0.94129094582E-01  0.89315341534E+01  0.00000000000E+00 0.  1.
</event>
<event>
 7    1  0.2945316E-011  0.5052884E+02  0.7816164E-02  0.1300439E+00
        -11   -1    0    0    0    0  0.00000000000E+00  0.00000000000E+00  0.45593999997E+02  0.45594000000E+02  0.51100000000E-03 0. -1.
         11   -1    0    0    0    0 -0.00000000000E+00 -0.00000000000E+00 -0.45593999997E+02  0.45594000000E+02  0.51100000000E-03 0.  1.
    9900012    2    1    2    0    0 -0.37547826752E+02  0.14710814718E+02  0.51884792971E+01  0.50528835217E+02  0.29999925125E+02 0.  0.
        -12    1    1    2    0    0  0.37547826752E+02 -0.14710814718E+02 -0.51884792971E+01  0.40659164783E+02  0.00000000000E+00 0.  1.
         11    1    3    3    0    0  0.19891676861E+01  0.60638002176E-01 -0.32695106191E+01  0.38275533961E+01  0.51100000000E-03 0. -1.
        -11    1    3    3    0    0 -0.15849345908E+02  0.14082385087E+02 -0.91207036490E+00  0.21221385630E+02  0.51100000000E-03 0.  1.
         12    1    3    3    0    0 -0.23687648530E+02  0.56779162925E+00  0.93700602811E+01  0.25479896191E+02  0.00000000000E+00 0. -1.
</event>
<event>
 7    1  0.2945316E-011  0.5052886E+02  0.7816164E-02  0.1300439E+00
        -11   -1    0    0    0    0  0.00000000000E+00  0.00000000000E+00  0.45593999997E+02  0.45594000000E+02  0.51100000000E-03 0.  1.
         11   -1    0    0    0    0 -0.00000000000E+00 -0.00000000000E+00 -0.45593999997E+02  0.45594000000E+02  0.51100000000E-03 0. -1.
    9900012    2    1    2    0    0 -0.32820967725E+02  0.15415167273E+02  0.18393536756E+02  0.50528862049E+02  0.30000006685E+02 0.  0.
        -12    1    1    2    0    0  0.32820967725E+02 -0.15415167273E+02 -0.18393536756E+02  0.40659137951E+02  0.00000000000E+00 0.  1.
         11    1    3    3    0    0 -0.23777054675E+02  0.11332777287E+02  0.37377332713E+01  0.26603586606E+02  0.51100000000E-03 0. -1.
        -11    1    3    3    0    0 -0.70784173700E+01  0.89792352725E+01  0.41405523341E+01  0.12160379617E+02  0.51100000000E-03 0.  1.
        -12    1    3    3    0    0 -0.19654956804E+01 -0.48968452864E+01  0.10515251151E+02  0.11764895826E+02  0.00000000000E+00 0.  1.
</event>
<event>
 7    1  0.2945316E-011  0.5052886E+02  0.7816164E-02  0.1300439E+00
        -11   -1    0    0    0    0  0.00000000000E+00  0.00000000000E+00  0.45593999997E+02  0.45594000000E+02  0.51100000000E-03 0.  1.
         11   -1    0    0    0    0 -0.00000000000E+00 -0.00000000000E+00 -0.45593999997E+02  0.45594000000E+02  0.51100000000E-03 0. -1.
    9900012    2    1    2    0    0 -0.26886263624E+02 -0.30371447579E+02 -0.28053049800E+01  0.50528859136E+02  0.29999997831E+02 0.  0.
        -12    1    1    2    0    0  0.26886263624E+02  0.30371447579E+02  0.28053049800E+01  0.40659140864E+02  0.00000000000E+00 0.  1.
         11    1    3    3    0    0 -0.91756867637E+01 -0.13422271404E+02 -0.11377311720E+02  0.19844238949E+02  0.51100000000E-03 0. -1.
        -11    1    3    3    0    0 -0.14519850537E+02 -0.18639730427E+02  0.26867466709E+01  0.23779912067E+02  0.51100000000E-03 0.  1.
        -12    1    3    3    0    0 -0.31907263240E+01  0.16905542512E+01  0.58852600688E+01  0.69047081204E+01  0.00000000000E+00 0.  1.
</event>
<event>
 7    1  0.2945316E-011  0.5052886E+02  0.7816164E-02  0.1300439E+00
        -11   -1    0    0    0    0  0.00000000000E+00  0.00000000000E+00  0.45593999997E+02  0.45594000000E+02  0.51100000000E-03 0.  1.
         11   -1    0    0    0    0 -0.00000000000E+00 -0.00000000000E+00 -0.45593999997E+02  0.45594000000E+02  0.51100000000E-03 0. -1.
    9900012    2    1    2    0    0 -0.22119735249E+02  0.33158184563E+02 -0.80260664484E+01  0.50528860392E+02  0.30000001648E+02 0.  0.
        -12    1    1    2    0    0  0.22119735249E+02 -0.33158184563E+02  0.80260664484E+01  0.40659139608E+02  0.00000000000E+00 0.  1.
         11    1    3    3    0    0 -0.12487033208E+02  0.13697162321E+02 -0.42603092162E+01  0.19018109498E+02  0.51100000000E-03 0. -1.
        -11    1    3    3    0    0 -0.13211287727E+02  0.22558084561E+02 -0.13001342056E+01  0.26174331924E+02  0.51100000000E-03 0.  1.
        -12    1    3    3    0    0  0.35785856858E+01 -0.30970623187E+01 -0.24656230266E+01  0.53364189702E+01  0.00000000000E+00 0.  1.
</event>
<event>
 7    1  0.2945316E-011  0.5052887E+02  0.7816164E-02  0.1300439E+00
        -11   -1    0    0    0    0  0.00000000000E+00  0.00000000000E+00  0.45593999997E+02  0.45594000000E+02  0.51100000000E-03 0. -1.
         11   -1    0    0    0    0 -0.00000000000E+00 -0.00000000000E+00 -0.45593999997E+02  0.45594000000E+02  0.51100000000E-03 0.  1.
    9900012    2    1    2    0    0 -0.36539528882E+00  0.27212139192E+02  0.30208128430E+02  0.50528867492E+02  0.30000023228E+02 0.  0.
        -12    1    1    2    0    0  0.36539528882E+00 -0.27212139192E+02 -0.30208128430E+02  0.40659132508E+02  0.00000000000E+00 0.  1.
         11    1    3    3    0    0  0.16424787199E+01  0.15557967659E+02  0.21816827249E+02  0.26846266882E+02  0.51100000000E-03 0. -1.
        -11    1    3    3    0    0  0.10432534515E+01  0.15793122439E+02  0.94481751395E+01  0.18433098162E+02  0.51100000000E-03 0.  1.
        -12    1    3    3    0    0 -0.30511274603E+01 -0.41389509062E+01 -0.10568739585E+01  0.52495024476E+01  0.00000000000E+00 0.  1.
</event>
<event>
 7    1  0.2945316E-011  0.5052886E+02  0.7816164E-02  0.1300439E+00
        -11   -1    0    0    0    0  0.00000000000E+00  0.00000000000E+00  0.45593999997E+02  0.45594000000E+02  0.51100000000E-03 0.  1.
         11   -1    0    0    0    0 -0.00000000000E+00 -0.00000000000E+00 -0.45593999997E+02  0.45594000000E+02  0.51100000000E-03 0. -1.
    9900012    2    1    2    0    0 -0.34803711259E+02  0.20944278856E+02  0.17901817815E+01  0.50528857301E+02  0.29999992251E+02 0.  0.
        -12    1    1    2    0    0  0.34803711259E+02 -0.20944278856E+02 -0.17901817815E+01  0.40659142699E+02  0.00000000000E+00 0.  1.
         11    1    3    3    0    0 -0.12788334614E+02  0.18263408526E+01  0.68734213880E+01  0.14632872068E+02  0.51100000000E-03 0. -1.
        -11    1    3    3    0    0 -0.58323503635E+01  0.82115052453E+01  0.76032882034E+01  0.12619632361E+02  0.51100000000E-03 0.  1.
         12    1    3    3    0    0 -0.16183026282E+02  0.10906432759E+02 -0.12686527810E+02  0.23276352872E+02  0.00000000000E+00 0. -1.
</event>
<event>
 7    1  0.2945316E-011  0.5052887E+02  0.7816164E-02  0.1300439E+00
        -11   -1    0    0    0    0  0.00000000000E+00  0.00000000000E+00  0.45593999997E+02  0.45594000000E+02  0.51100000000E-03 0. -1.
         11   -1    0    0    0    0 -0.00000000000E+00 -0.00000000000E+00 -0.45593999997E+02  0.45594000000E+02  0.51100000000E-03 0.  1.
    9900012    2    1    2    0    0 -0.11687988710E+02  0.36914008697E+02  0.12406127988E+02  0.50528866588E+02  0.30000020482E+02 0.  0.
        -12    1    1    2    0    0  0.11687988710E+02 -0.36914008697E+02 -0.12406127988E+02  0.40659133412E+02  0.00000000000E+00 0.  1.
         11    1    3    3    0    0 -0.48292555099E+01  0.29712843109E+02  0.17883033784E+02  0.35013963671E+02  0.51100000000E-03 0. -1.
        -11    1    3    3    0    0  0.16916712304E+00  0.10419854721E+01  0.28244841204E+01  0.30153046359E+01  0.51100000000E-03 0.  1.
        -12    1    3    3    0    0 -0.70279003235E+01  0.61591801158E+01 -0.83013899163E+01  0.12499598281E+02  0.00000000000E+00 0.  1.
</event>
<event>
 7    1  0.2945316E-011  0.5052887E+02  0.7816164E-02  0.1300439E+00
        -11   -1    0    0    0    0  0.00000000000E+00  0.00000000000E+00  0.45593999997E+02  0.45594000000E+02  0.51100000000E-03 0.  1.
         11   -1    0    0    0    0 -0.00000000000E+00 -0.00000000000E+00 -0.45593999997E+02  0.45594000000E+02  0.51100000000E-03 0. -1.
    9900012    2    1    2    0    0 -0.29632598399E+02  0.71043162201E+01 -0.26918442946E+02  0.50528871044E+02  0.30000034026E+02 0.  0.
        -12    1    1    2    0    0  0.29632598399E+02 -0.71043162201E+01  0.26918442946E+02  0.40659128956E+02  0.00000000000E+00 0.  1.
         11    1    3    3    0    0 -0.65736335830E+01 -0.19567850634E+01 -0.11148792956E+02  0.13089585590E+02  0.51100000000E-03 0.  1.
        -11    1    3    3    0    0 -0.75153502153E+01  0.15068134351E+02 -0.10974980189E+02  0.20099237599E+02  0.51100000000E-03 0. -1.
         12    1    3    3    0    0 -0.15543614601E+02 -0.60070330671E+01 -0.47946698009E+01  0.17340047855E+02  0.00000000000E+00 0. -1.
</event>
<event>
 7    1  0.2945316E-011  0.5052886E+02  0.7816164E-02  0.1300439E+00
        -11   -1    0    0    0    0  0.00000000000E+00  0.00000000000E+00  0.45593999997E+02  0.45594000000E+02  0.51100000000E-03 0.  1.
         11   -1    0    0    0    0 -0.00000000000E+00 -0.00000000000E+00 -0.45593999997E+02  0.45594000000E+02  0.51100000000E-03 0. -1.
    9900012    2    1    2    0    0  0.35854187295E+02 -0.17228252600E+02 -0.84160662352E+01  0.50528860743E+02  0.30000002714E+02 0.  0.
        -12    1    1    2    0    0 -0.35854187295E+02  0.17228252600E+02  0.84160662352E+01  0.40659139257E+02  0.00000000000E+00 0.  1.
         11    1    3    3    0    0  0.25038019280E+02 -0.16641219041E+02 -0.23116594133E+01  0.30152551304E+02  0.51100000000E-03 0. -1.
        -11    1    3    3    0    0 -0.24731504834E+01 -0.18404139383E+01  0.29340155291E+01  0.42558247337E+01  0.51100000000E-03 0.  1.
         12    1    3    3    0    0  0.13289318498E+02  0.12533803787E+01 -0.90384223510E+01  0.16120484705E+02  0.00000000000E+00 0. -1.
</event>
<event>
 7    1  0.2945316E-011  0.5052885E+02  0.7816164E-02  0.1300439E+00
        -11   -1    0    0    0    0  0.00000000000E+00  0.00000000000E+00  0.45593999997E+02  0.45594000000E+02  0.51100000000E-03 0. -1.
         11   -1    0    0    0    0 -0.00000000000E+00 -0.00000000000E+00 -0.45593999997E+02  0.45594000000E+02  0.51100000000E-03 0.  1.
    9900012    2    1    2    0    0  0.33715346422E+02 -0.17780690348E+02  0.14152340228E+02  0.50528852597E+02  0.29999977952E+02 0.  0.
        -12    1    1    2    0    0 -0.33715346422E+02  0.17780690348E+02 -0.14152340228E+02  0.40659147403E+02  0.00000000000E+00 0.  1.
         11    1    3    3    0    0  0.18713638395E+02 -0.15877202643E+02  0.10313796769E+02  0.26620672978E+02  0.51100000000E-03 0.  1.
        -11    1    3    3    0    0  0.13955390666E+02 -0.73825026066E+01  0.72465609900E+01  0.17371439774E+02  0.51100000000E-03 0. -1.
        -12    1    3    3    0    0  0.10463173622E+01  0.54790149012E+01 -0.34080175313E+01  0.65367398452E+01  0.00000000000E+00 0.  1.
</event>
<event>
 7    1  0.2945316E-011  0.5052886E+02  0.7816164E-02  0.1300439E+00
        -11   -1    0    0    0    0  0.00000000000E+00  0.00000000000E+00  0.45593999997E+02  0.45594000000E+02  0.51100000000E-03 0. -1.
         11   -1    0    0    0    0 -0.00000000000E+00 -0.00000000000E+00 -0.45593999997E+02  0.45594000000E+02  0.51100000000E-03 0.  1.
    9900012    2    1    2    0    0  0.23780943791E+02  0.13610217144E+02  0.30039874710E+02  0.50528863624E+02  0.30000011472E+02 0.  0.
        -12    1    1    2    0    0 -0.23780943791E+02 -0.13610217144E+02 -0.30039874710E+02  0.40659136376E+02  0.00000000000E+00 0.  1.
         11    1    3    3    0    0 -0.29264565310E+01  0.30790131680E+01  0.23603913124E+01  0.48596211092E+01  0.51100000000E-03 0.  1.
        -11    1    3    3    0    0  0.13915105871E+02 -0.19271255591E+01  0.23422739811E+02  0.27312428030E+02  0.51100000000E-03 0. -1.
         12    1    3    3    0    0  0.12792294450E+02  0.12458329535E+02  0.42567435856E+01  0.18356814485E+02  0.00000000000E+00 0. -1.
</event>
<event>
 7    1  0.2945316E-011  0.5052888E+02  0.7816164E-02  0.1300439E+00
        -11   -1    0    0    0    0  0.00000000000E+00  0.00000000000E+00  0.45593999997E+02  0.45594000000E+02  0.51100000000E-03 0.  1.
         11   -1    0    0    0    0 -0.00000000000E+00 -0.00000000000E+00 -0.45593999997E+02  0.45594000000E+02  0.51100000000E-03 0. -1.
    9900012    2    1    2    0    0  0.36884848495E+02 -0.17046723494E+02  0.14427414137E+01  0.50528876384E+02  0.30000050257E+02 0.  0.
        -12    1    1    2    0    0 -0.36884848495E+02  0.17046723494E+02 -0.14427414137E+01  0.40659123616E+02  0.00000000000E+00 0.  1.
         11    1    3    3    0    0  0.33892280332E+02 -0.20369613907E+02  0.14031922317E+00  0.39542730389E+02  0.51100000000E-03 0. -1.
        -11    1    3    3    0    0  0.22524877054E+01 -0.28410409445E+01  0.28222747419E+01  0.45946109183E+01  0.51100000000E-03 0.  1.
        -12    1    3    3    0    0  0.74008045798E+00  0.61639313574E+01 -0.15198525513E+01  0.63915350770E+01  0.00000000000E+00 0.  1.
</event>
<event>
 7    1  0.2945316E-011  0.5052886E+02  0.7816164E-02  0.1300439E+00
        -11   -1    0    0    0    0  0.00000000000E+00  0.00000000000E+00  0.45593999997E+02  0.45594000000E+02  0.51100000000E-03 0. -1.
         11   -1    0    0    0    0 -0.00000000000E+00 -0.00000000000E+00 -0.45593999997E+02  0.45594000000E+02  0.51100000000E-03 0.  1.
    9900012    2    1    2    0    0 -0.13630066020E+02  0.16894383692E+02  0.34379746847E+02  0.50528857199E+02  0.29999991942E+02 0.  0.
        -12    1    1    2    0    0  0.13630066020E+02 -0.16894383692E+02 -0.34379746847E+02  0.40659142801E+02  0.00000000000E+00 0.  1.
         11    1    3    3    0    0 -0.13858235253E+02 -0.11020149884E+01  0.85977728410E+01  0.16345850221E+02  0.51100000000E-03 0. -1.
        -11    1    3    3    0    0  0.40603527862E+01  0.29385985496E+00  0.28917931426E+01  0.49935244270E+01  0.51100000000E-03 0.  1.
        -12    1    3    3    0    0 -0.38321835535E+01  0.17702538825E+02  0.22890180864E+02  0.29189482551E+02  0.00000000000E+00 0.  1.
</event>
<event>
 7    1  0.2945316E-011  0.5052878E+02  0.7816164E-02  0.1300439E+00
        -11   -1    0    0    0    0  0.00000000000E+00  0.00000000000E+00  0.45593999997E+02  0.45594000000E+02  0.51100000000E-03 0.  1.
         11   -1    0    0    0    0 -0.00000000000E+00 -0.00000000000E+00 -0.45593999997E+02  0.45594000000E+02  0.51100000000E-03 0. -1.
    9900012    2    1    2    0    0  0.17472637776E+01 -0.14626651109E+02 -0.37896965262E+02  0.50528784200E+02  0.29999770055E+02 0.  0.
        -12    1    1    2    0    0 -0.17472637776E+01  0.14626651109E+02  0.37896965262E+02  0.40659215800E+02  0.00000000000E+00 0.  1.
         11    1    3    3    0    0 -0.83830053554E+01 -0.22053651799E+01 -0.23693207518E+02  0.25229080385E+02  0.51100000000E-03 0. -1.
        -11    1    3    3    0    0 -0.52825158376E+00 -0.36856481098E+01 -0.10336117023E+02  0.10986280859E+02  0.51100000000E-03 0.  1.
        -12    1    3    3    0    0  0.10658520717E+02 -0.87356378194E+01 -0.38676407212E+01  0.14313422956E+02  0.00000000000E+00 0.  1.
</event>
<event>
 7    1  0.2945316E-011  0.5052887E+02  0.7816164E-02  0.1300439E+00
        -11   -1    0    0    0    0  0.00000000000E+00  0.00000000000E+00  0.45593999997E+02  0.45594000000E+02  0.51100000000E-03 0.  1.
         11   -1    0    0    0    0 -0.00000000000E+00 -0.00000000000E+00 -0.45593999997E+02  0.45594000000E+02  0.51100000000E-03 0. -1.
    9900012    2    1    2    0    0 -0.83770453722E+01 -0.23076600336E+02 -0.32410810133E+02  0.50528868360E+02  0.30000025866E+02 0.  0.
        -12    1    1    2    0    0  0.83770453722E+01  0.23076600336E+02  0.32410810133E+02  0.40659131640E+02  0.00000000000E+00 0.  1.
         11    1    3    3    0    0 -0.79919783214E+01 -0.78577076714E+01 -0.14632188877E+02  0.18431392756E+02  0.51100000000E-03 0. -1.
        -11    1    3    3    0    0 -0.68223952524E+01  0.12187280201E+01 -0.11372644655E+02  0.13317936089E+02  0.51100000000E-03 0.  1.
        -12    1    3    3    0    0  0.64373282016E+01 -0.16437620685E+02 -0.64059766014E+01  0.18779539515E+02  0.00000000000E+00 0.  1.
</event>
<event>
 7    1  0.2945316E-011  0.5052886E+02  0.7816164E-02  0.1300439E+00
        -11   -1    0    0    0    0  0.00000000000E+00  0.00000000000E+00  0.45593999997E+02  0.45594000000E+02  0.51100000000E-03 0. -1.
         11   -1    0    0    0    0 -0.00000000000E+00 -0.00000000000E+00 -0.45593999997E+02  0.45594000000E+02  0.51100000000E-03 0.  1.
    9900012    2    1    2    0    0 -0.30210685433E+02 -0.11665593425E+02  0.24584420966E+02  0.50528864021E+02  0.30000012678E+02 0.  0.
        -12    1    1    2    0    0  0.30210685433E+02  0.11665593425E+02 -0.24584420966E+02  0.40659135979E+02  0.00000000000E+00 0.  1.
         11    1    3    3    0    0 -0.91956222897E+01  0.16590191943E+01 -0.27820467847E+01  0.97494409355E+01  0.51100000000E-03 0.  1.
        -11    1    3    3    0    0 -0.17357252277E+01 -0.89419619337E+01  0.14717371077E+02  0.17308160994E+02  0.51100000000E-03 0. -1.
         12    1    3    3    0    0 -0.19279337916E+02 -0.43826506857E+01  0.12649096674E+02  0.23471262092E+02  0.00000000000E+00 0. -1.
</event>
<event>
 7    1  0.2945316E-011  0.5052890E+02  0.7816164E-02  0.1300439E+00
        -11   -1    0    0    0    0  0.00000000000E+00  0.00000000000E+00  0.45593999997E+02  0.45594000000E+02  0.51100000000E-03 0.  1.
         11   -1    0    0    0    0 -0.00000000000E+00 -0.00000000000E+00 -0.45593999997E+02  0.45594000000E+02  0.51100000000E-03 0. -1.
    9900012    2    1    2    0    0  0.32513315905E+01 -0.32866958521E+01 -0.40395406180E+02  0.50528900561E+02  0.30000123746E+02 0.  0.
        -12    1    1    2    0    0 -0.32513315905E+01  0.32866958521E+01  0.40395406180E+02  0.40659099439E+02  0.00000000000E+00 0.  1.
         11    1    3    3    0    0  0.97096824066E+01  0.41690318639E+01 -0.13522500604E+02  0.17161491251E+02  0.51100000000E-03 0. -1.
        -11    1    3    3    0    0  0.18805719554E+01 -0.17815232228E-01  0.17943747090E+01  0.25993555200E+01  0.51100000000E-03 0.  1.
        -12    1    3    3    0    0 -0.83389227715E+01 -0.74379124838E+01 -0.28667280285E+02  0.30768053790E+02  0.00000000000E+00 0.  1.
</event>
<event>
 7    1  0.2945316E-011  0.5052886E+02  0.7816164E-02  0.1300439E+00
        -11   -1    0    0    0    0  0.00000000000E+00  0.00000000000E+00  0.45593999997E+02  0.45594000000E+02  0.51100000000E-03 0. -1.
         11   -1    0    0    0    0 -0.00000000000E+00 -0.00000000000E+00 -0.45593999997E+02  0.45594000000E+02  0.51100000000E-03 0.  1.
    9900012    2    1    2    0    0 -0.17861599259E+02 -0.36460061670E+02  0.21892832675E+01  0.50528858515E+02  0.29999995942E+02 0.  0.
        -12    1    1    2    0    0  0.17861599259E+02  0.36460061670E+02 -0.21892832675E+01  0.40659141485E+02  0.00000000000E+00 0.  1.
         11    1    3    3    0    0 -0.62910260182E+01 -0.19311890809E+02  0.67190580622E+01  0.21393267083E+02  0.51100000000E-03 0. -1.
        -11    1    3    3    0    0 -0.84676813969E+01 -0.21131385629E+02 -0.66056556966E+00  0.22774403043E+02  0.51100000000E-03 0.  1.
        -12    1    3    3    0    0 -0.31028918437E+01  0.39832147681E+01 -0.38692092251E+01  0.63611883882E+01  0.00000000000E+00 0.  1.
</event>
<event>
 7    1  0.2945316E-011  0.5052886E+02  0.7816164E-02  0.1300439E+00
        -11   -1    0    0    0    0  0.00000000000E+00  0.00000000000E+00  0.45593999997E+02  0.45594000000E+02  0.51100000000E-03 0.  1.
         11   -1    0    0    0    0 -0.00000000000E+00 -0.00000000000E+00 -0.45593999997E+02  0.45594000000E+02  0.51100000000E-03 0. -1.
    9900012    2    1    2    0    0  0.38902581241E+01 -0.20276613806E+02 -0.35026993918E+02  0.50528862298E+02  0.30000007441E+02 0.  0.
        -12    1    1    2    0    0 -0.38902581241E+01  0.20276613806E+02  0.35026993918E+02  0.40659137702E+02  0.00000000000E+00 0.  1.
         11    1    3    3    0    0  0.33262284610E+01 -0.16589306089E+01 -0.13470643593E+02  0.13974050437E+02  0.51100000000E-03 0.  1.
        -11    1    3    3    0    0 -0.17073572104E+01 -0.57368106763E+01 -0.22651948382E+02  0.23429400998E+02  0.51100000000E-03 0. -1.
        -12    1    3    3    0    0  0.22713868736E+01 -0.12880872521E+02  0.10955980562E+01  0.13125410863E+02  0.00000000000E+00 0.  1.
</event>
<event>
 7    1  0.2945316E-011  0.5052886E+02  0.7816164E-02  0.1300439E+00
        -11   -1    0    0    0    0  0.00000000000E+00  0.00000000000E+00  0.45593999997E+02  0.45594000000E+02  0.51100000000E-03 0.  1.
         11   -1    0    0    0    0 -0.00000000000E+00 -0.00000000000E+00 -0.45593999997E+02  0.45594000000E+02  0.51100000000E-03 0. -1.
    9900012    2    1    2    0    0  0.20106526454E+01  0.24820875704E+02 -0.32141051674E+02  0.50528858377E+02  0.29999995524E+02 0.  0.
        -12    1    1    2    0    0 -0.20106526454E+01 -0.24820875704E+02  0.32141051674E+02  0.40659141623E+02  0.00000000000E+00 0.  1.
         11    1    3    3    0    0 -0.54781725196E+00  0.11958438026E+02 -0.96783148743E+01  0.15393963844E+02  0.51100000000E-03 0. -1.
        -11    1    3    3    0    0  0.40774733687E+01  0.17622116373E+02 -0.78976216644E+01  0.19736696855E+02  0.51100000000E-03 0.  1.
         12    1    3    3    0    0 -0.15190034713E+01 -0.47596786952E+01 -0.14565115136E+02  0.15398197678E+02  0.00000000000E+00 0. -1.
</event>
<event>
 7    1  0.2945316E-011  0.5052886E+02  0.7816164E-02  0.1300439E+00
        -11   -1    0    0    0    0  0.00000000000E+00  0.00000000000E+00  0.45593999997E+02  0.45594000000E+02  0.51100000000E-03 0.  1.
         11   -1    0    0    0    0 -0.00000000000E+00 -0.00000000000E+00 -0.45593999997E+02  0.45594000000E+02  0.51100000000E-03 0. -1.
    9900012    2    1    2    0    0 -0.30219818473E+01  0.33747461377E+02 -0.22475371906E+02  0.50528857535E+02  0.29999992965E+02 0.  0.
        -12    1    1    2    0    0  0.30219818473E+01 -0.33747461377E+02  0.22475371906E+02  0.40659142465E+02  0.00000000000E+00 0.  1.
         11    1    3    3    0    0  0.30333804786E+01 -0.37109751530E+01  0.85716794512E+00  0.48690318197E+01  0.51100000000E-03 0.  1.
        -11    1    3    3    0    0 -0.81138623927E+01  0.19013155161E+02 -0.11638605637E+02  0.23723236996E+02  0.51100000000E-03 0. -1.
        -12    1    3    3    0    0  0.20585000668E+01  0.18445281369E+02 -0.11693934213E+02  0.21936588720E+02  0.00000000000E+00 0.  1.
</event>
<event>
 7    1  0.2945316E-011  0.5052886E+02  0.7816164E-02  0.1300439E+00
        -11   -1    0    0    0    0  0.00000000000E+00  0.00000000000E+00  0.45593999997E+02  0.45594000000E+02  0.51100000000E-03 0.  1.
         11   -1    0    0    0    0 -0.00000000000E+00 -0.00000000000E+00 -0.45593999997E+02  0.45594000000E+02  0.51100000000E-03 0. -1.
    9900012    2    1    2    0    0  0.11975802002E+02  0.35837040696E+02 -0.15015083657E+02  0.50528855190E+02  0.29999985837E+02 0.  0.
        -12    1    1    2    0    0 -0.11975802002E+02 -0.35837040696E+02  0.15015083657E+02  0.40659144810E+02  0.00000000000E+00 0.  1.
         11    1    3    3    0    0 -0.85913599876E+01  0.33823454237E+01 -0.48550410349E+01  0.10431833526E+02  0.51100000000E-03 0.  1.
        -11    1    3    3    0    0  0.10800138327E+02  0.20043417671E+02 -0.81184815060E+01  0.24172118692E+02  0.51100000000E-03 0. -1.
        -12    1    3    3    0    0  0.97670236620E+01  0.12411277601E+02 -0.20415611165E+01  0.15924902973E+02  0.00000000000E+00 0.  1.
</event>
<event>
 7    1  0.2945316E-011  0.5052888E+02  0.7816164E-02  0.1300439E+00
        -11   -1    0    0    0    0  0.00000000000E+00  0.00000000000E+00  0.45593999997E+02  0.45594000000E+02  0.51100000000E-03 0.  1.
         11   -1    0    0    0    0 -0.00000000000E+00 -0.00000000000E+00 -0.45593999997E+02  0.45594000000E+02  0.51100000000E-03 0. -1.
    9900012    2    1    2    0    0 -0.14292507750E+02 -0.33442251082E+02 -0.18179781535E+02  0.50528875663E+02  0.30000048064E+02 0.  0.
        -12    1    1    2    0    0  0.14292507750E+02  0.33442251082E+02  0.18179781535E+02  0.40659124337E+02  0.00000000000E+00 0.  1.
         11    1    3    3    0    0 -0.62972033893E+01  0.22088440661E+01 -0.56623445394E+01  0.87519088534E+01  0.51100000000E-03 0. -1.
        -11    1    3    3    0    0 -0.20688665521E+01 -0.45453807977E+01 -0.84991152435E+01  0.98577713298E+01  0.51100000000E-03 0.  1.
        -12    1    3    3    0    0 -0.59264378084E+01 -0.31105714350E+02 -0.40183217523E+01  0.31919195479E+02  0.00000000000E+00 0.  1.
</event>
<event>
 7    1  0.2945316E-011  0.5052885E+02  0.7816164E-02  0.1300439E+00
        -11   -1    0    0    0    0  0.00000000000E+00  0.00000000000E+00  0.45593999997E+02  0.45594000000E+02  0.51100000000E-03 0. -1.
         11   -1    0    0    0    0 -0.00000000000E+00 -0.00000000000E+00 -0.45593999997E+02  0.45594000000E+02  0.51100000000E-03 0.  1.
    9900012    2    1    2    0    0 -0.38731004780E+02 -0.94788801877E+01  0.79515015015E+01  0.50528852480E+02  0.29999977599E+02 0.  0.
        -12    1    1    2    0    0  0.38731004780E+02  0.94788801877E+01 -0.79515015015E+01  0.40659147520E+02  0.00000000000E+00 0.  1.
         11    1    3    3    0    0 -0.30377055856E+02 -0.98222744473E+01  0.95855267785E+01  0.33333540492E+02  0.51100000000E-03 0. -1.
        -11    1    3    3    0    0 -0.74787797718E+01 -0.57363063863E+01 -0.44679399108E+01  0.10430716425E+02  0.51100000000E-03 0.  1.
        -12    1    3    3    0    0 -0.87516915182E+00  0.60797006459E+01  0.28339146337E+01  0.67645955636E+01  0.00000000000E+00 0.  1.
</event>
<event>
 7    1  0.2945316E-011  0.5052886E+02  0.7816164E-02  0.1300439E+00
        -11   -1    0    0    0    0  0.00000000000E+00  0.00000000000E+00  0.45593999997E+02  0.45594000000E+02  0.51100000000E-03 0. -1.
         11   -1    0    0    0    0 -0.00000000000E+00 -0.00000000000E+00 -0.45593999997E+02  0.45594000000E+02  0.51100000000E-03 0.  1.
    9900012    2    1    2    0    0  0.10541820323E+01 -0.26174290246E+02  0.31095994552E+02  0.50528860230E+02  0.30000001157E+02 0.  0.
        -12    1    1    2    0    0 -0.10541820323E+01  0.26174290246E+02 -0.31095994552E+02  0.40659139770E+02  0.00000000000E+00 0.  1.
         11    1    3    3    0    0 -0.11497896939E+01 -0.12586383703E+02  0.68704217522E+01  0.14385470669E+02  0.51100000000E-03 0. -1.
        -11    1    3    3    0    0  0.91287391111E+00 -0.18176335085E+02  0.25387882508E+02  0.31237110532E+02  0.51100000000E-03 0.  1.
        -12    1    3    3    0    0  0.12910978151E+01  0.45884285420E+01 -0.11623097085E+01  0.49062790291E+01  0.00000000000E+00 0.  1.
</event>
<event>
 7    1  0.2945316E-011  0.5052885E+02  0.7816164E-02  0.1300439E+00
        -11   -1    0    0    0    0  0.00000000000E+00  0.00000000000E+00  0.45593999997E+02  0.45594000000E+02  0.51100000000E-03 0. -1.
         11   -1    0    0    0    0 -0.00000000000E+00 -0.00000000000E+00 -0.45593999997E+02  0.45594000000E+02  0.51100000000E-03 0.  1.
    9900012    2    1    2    0    0 -0.14882143486E+02 -0.15074581291E+02  0.34705124091E+02  0.50528845630E+02  0.29999956778E+02 0.  0.
        -12    1    1    2    0    0  0.14882143486E+02  0.15074581291E+02 -0.34705124091E+02  0.40659154370E+02  0.00000000000E+00 0.  1.
         11    1    3    3    0    0 -0.37640876781E+01  0.61638662018E+01  0.12710379597E+02  0.14619006545E+02  0.51100000000E-03 0. -1.
        -11    1    3    3    0    0 -0.36129109589E+01  0.13235013021E+01  0.54325189267E+00  0.38858595154E+01  0.51100000000E-03 0.  1.
         12    1    3    3    0    0 -0.75051448493E+01 -0.22561948795E+02  0.21451492602E+02  0.32023979570E+02  0.00000000000E+00 0. -1.
</event>
<event>
 7    1  0.2945316E-011  0.5052889E+02  0.7816164E-02  0.1300439E+00
        -11   -1    0    0    0    0  0.00000000000E+00  0.00000000000E+00  0.45593999997E+02  0.45594000000E+02  0.51100000000E-03 0. -1.
         11   -1    0    0    0    0 -0.00000000000E+00 -0.00000000000E+00 -0.45593999997E+02  0.45594000000E+02  0.51100000000E-03 0.  1.
    9900012    2    1    2    0    0 -0.38886032584E+02 -0.26857719049E+01  0.11568331198E+02  0.50528890472E+02  0.30000093080E+02 0.  0.
        -12    1    1    2    0    0  0.38886032584E+02  0.26857719049E+01 -0.11568331198E+02  0.40659109528E+02  0.00000000000E+00 0.  1.
         11    1    3    3    0    0 -0.16936107966E+01  0.70392546576E+01 -0.34320114811E+01  0.80123733520E+01  0.51100000000E-03 0. -1.
        -11    1    3    3    0    0 -0.57578310847E+01 -0.15801471592E+01 -0.14069042740E+01  0.61342370139E+01  0.51100000000E-03 0.  1.
        -12    1    3    3    0    0 -0.31434590703E+02 -0.81448794033E+01  0.16407246954E+02  0.36382280106E+02  0.00000000000E+00 0.  1.
</event>
<event>
 7    1  0.2945316E-011  0.5052892E+02  0.7816164E-02  0.1300439E+00
        -11   -1    0    0    0    0  0.00000000000E+00  0.00000000000E+00  0.45593999997E+02  0.45594000000E+02  0.51100000000E-03 0. -1.
         11   -1    0    0    0    0 -0.00000000000E+00 -0.00000000000E+00 -0.45593999997E+02  0.45594000000E+02  0.51100000000E-03 0.  1.
    9900012    2    1    2    0    0  0.17308920821E+02  0.23643841900E+01  0.36714738410E+02  0.50528916524E+02  0.30000172264E+02 0.  0.
        -12    1    1    2    0    0 -0.17308920821E+02 -0.23643841900E+01 -0.36714738410E+02  0.40659083476E+02  0.00000000000E+00 0.  1.
         11    1    3    3    0    0  0.47455051080E+01  0.15564748267E+01  0.55895902229E+01  0.74957288997E+01  0.51100000000E-03 0. -1.
        -11    1    3    3    0    0  0.13367476674E+02 -0.80425727961E+01  0.30334803319E+02  0.34111181488E+02  0.51100000000E-03 0.  1.
        -12    1    3    3    0    0 -0.80406096078E+00  0.88504821594E+01  0.79034486834E+00  0.89220061361E+01  0.00000000000E+00 0.  1.
</event>
<event>
 7    1  0.2945316E-011  0.5052887E+02  0.7816164E-02  0.1300439E+00
        -11   -1    0    0    0    0  0.00000000000E+00  0.00000000000E+00  0.45593999997E+02  0.45594000000E+02  0.51100000000E-03 0. -1.
         11   -1    0    0    0    0 -0.00000000000E+00 -0.00000000000E+00 -0.45593999997E+02  0.45594000000E+02  0.51100000000E-03 0.  1.
    9900012    2    1    2    0    0  0.38252248326E+02  0.13526294599E+02  0.26400309334E+01  0.50528869280E+02  0.30000028664E+02 0.  0.
        -12    1    1    2    0    0 -0.38252248326E+02 -0.13526294599E+02 -0.26400309334E+01  0.40659130720E+02  0.00000000000E+00 0.  1.
         11    1    3    3    0    0  0.58061322497E+01  0.38546942761E+01 -0.23449360481E+01  0.73531330053E+01  0.51100000000E-03 0. -1.
        -11    1    3    3    0    0  0.16189877170E+02 -0.47039017627E+01 -0.71496380047E+01  0.18312731594E+02  0.51100000000E-03 0.  1.
         12    1    3    3    0    0  0.16256238906E+02  0.14375502086E+02  0.12134604986E+02  0.24863004681E+02  0.00000000000E+00 0. -1.
</event>
<event>
 7    1  0.2945316E-011  0.5052886E+02  0.7816164E-02  0.1300439E+00
        -11   -1    0    0    0    0  0.00000000000E+00  0.00000000000E+00  0.45593999997E+02  0.45594000000E+02  0.51100000000E-03 0.  1.
         11   -1    0    0    0    0 -0.00000000000E+00 -0.00000000000E+00 -0.45593999997E+02  0.45594000000E+02  0.51100000000E-03 0. -1.
    9900012    2    1    2    0    0 -0.82661364482E+01 -0.39804967837E+02  0.63319784914E+00  0.50528863072E+02  0.30000009792E+02 0.  0.
        -12    1    1    2    0    0  0.82661364482E+01  0.39804967837E+02 -0.63319784914E+00  0.40659136928E+02  0.00000000000E+00 0.  1.
         11    1    3    3    0    0 -0.55817097832E+01 -0.24938536320E+02 -0.36145500474E+01  0.25809902173E+02  0.51100000000E-03 0. -1.
        -11    1    3    3    0    0 -0.52981380562E+01 -0.18670695335E+02  0.17912274789E+01  0.19490347029E+02  0.51100000000E-03 0.  1.
        -12    1    3    3    0    0  0.26137113912E+01  0.38042638184E+01  0.24565204176E+01  0.52286138697E+01  0.00000000000E+00 0.  1.
</event>
<event>
 7    1  0.2945316E-011  0.5052886E+02  0.7816164E-02  0.1300439E+00
        -11   -1    0    0    0    0  0.00000000000E+00  0.00000000000E+00  0.45593999997E+02  0.45594000000E+02  0.51100000000E-03 0.  1.
         11   -1    0    0    0    0 -0.00000000000E+00 -0.00000000000E+00 -0.45593999997E+02  0.45594000000E+02  0.51100000000E-03 0. -1.
    9900012    2    1    2    0    0  0.11592060721E+02  0.26906110351E+02 -0.28193106917E+02  0.50528856827E+02  0.29999990810E+02 0.  0.
        -12    1    1    2    0    0 -0.11592060721E+02 -0.26906110351E+02  0.28193106917E+02  0.40659143173E+02  0.00000000000E+00 0.  1.
         11    1    3    3    0    0  0.15112767652E+02  0.16327248531E+02 -0.20167694638E+02  0.30028498097E+02  0.51100000000E-03 0.  1.
        -11    1    3    3    0    0 -0.20031004370E+01  0.13691065947E+02 -0.26224855696E+01  0.14083150534E+02  0.51100000000E-03 0. -1.
        -12    1    3    3    0    0 -0.15176064945E+01 -0.31122041272E+01 -0.54029267094E+01  0.64172081958E+01  0.00000000000E+00 0.  1.
</event>
<event>
 7    1  0.2945316E-011  0.5052888E+02  0.7816164E-02  0.1300439E+00
        -11   -1    0    0    0    0  0.00000000000E+00  0.00000000000E+00  0.45593999997E+02  0.45594000000E+02  0.51100000000E-03 0. -1.
         11   -1    0    0    0    0 -0.00000000000E+00 -0.00000000000E+00 -0.45593999997E+02  0.45594000000E+02  0.51100000000E-03 0.  1.
    9900012    2    1    2    0    0  0.14911339333E+02  0.21251889449E+02  0.31291742022E+02  0.50528880917E+02  0.30000064034E+02 0.  0.
        -12    1    1    2    0    0 -0.14911339333E+02 -0.21251889449E+02 -0.31291742022E+02  0.40659119083E+02  0.00000000000E+00 0.  1.
         11    1    3    3    0    0  0.12869510122E+01  0.97941984961E+01  0.96209086457E+01  0.13789287528E+02  0.51100000000E-03 0. -1.
        -11    1    3    3    0    0 -0.29270104420E+01  0.12459385994E+02  0.69370200218E+01  0.14557676206E+02  0.51100000000E-03 0.  1.
        -12    1    3    3    0    0  0.16551398763E+02 -0.10016950406E+01  0.14733813354E+02  0.22181917183E+02  0.00000000000E+00 0.  1.
</event>
<event>
 7    1  0.2945316E-011  0.5052886E+02  0.7816164E-02  0.1300439E+00
        -11   -1    0    0    0    0  0.00000000000E+00  0.00000000000E+00  0.45593999997E+02  0.45594000000E+02  0.51100000000E-03 0. -1.
         11   -1    0    0    0    0 -0.00000000000E+00 -0.00000000000E+00 -0.45593999997E+02  0.45594000000E+02  0.51100000000E-03 0.  1.
    9900012    2    1    2    0    0  0.25196311650E+02 -0.28770337899E+02  0.13805054407E+02  0.50528856000E+02  0.29999988299E+02 0.  0.
        -12    1    1    2    0    0 -0.25196311650E+02  0.28770337899E+02 -0.13805054407E+02  0.40659144000E+02  0.00000000000E+00 0.  1.
         11    1    3    3    0    0  0.10492297996E+02 -0.82123135574E+01  0.11299046519E+01  0.13371877056E+02  0.51100000000E-03 0.  1.
        -11    1    3    3    0    0  0.19695015360E+02 -0.18077997667E+02  0.15506662957E+02  0.30905731281E+02  0.51100000000E-03 0. -1.
         12    1    3    3    0    0 -0.49910017062E+01 -0.24800266749E+01 -0.28315132022E+01  0.62512476638E+01  0.00000000000E+00 0. -1.
</event>
<event>
 7    1  0.2945316E-011  0.5052884E+02  0.7816164E-02  0.1300439E+00
        -11   -1    0    0    0    0  0.00000000000E+00  0.00000000000E+00  0.45593999997E+02  0.45594000000E+02  0.51100000000E-03 0.  1.
         11   -1    0    0    0    0 -0.00000000000E+00 -0.00000000000E+00 -0.45593999997E+02  0.45594000000E+02  0.51100000000E-03 0. -1.
    9900012    2    1    2    0    0 -0.32660399377E+02 -0.43926852623E+01 -0.23815323065E+02  0.50528843787E+02  0.29999951175E+02 0.  0.
        -12    1    1    2    0    0  0.32660399377E+02  0.43926852623E+01  0.23815323065E+02  0.40659156213E+02  0.00000000000E+00 0.  1.
         11    1    3    3    0    0 -0.52644822153E+01  0.13233567611E+01 -0.64191885860E+00  0.54660869180E+01  0.51100000000E-03 0. -1.
        -11    1    3    3    0    0 -0.10144574615E+02  0.48889485631E+00  0.51005616306E+01  0.11365172305E+02  0.51100000000E-03 0.  1.
         12    1    3    3    0    0 -0.17251342546E+02 -0.62049368797E+01 -0.28273965837E+02  0.33697584564E+02  0.00000000000E+00 0. -1.
</event>
<event>
 7    1  0.2945316E-011  0.5052881E+02  0.7816164E-02  0.1300439E+00
        -11   -1    0    0    0    0  0.00000000000E+00  0.00000000000E+00  0.45593999997E+02  0.45594000000E+02  0.51100000000E-03 0.  1.
         11   -1    0    0    0    0 -0.00000000000E+00 -0.00000000000E+00 -0.45593999997E+02  0.45594000000E+02  0.51100000000E-03 0. -1.
    9900012    2    1    2    0    0  0.10061790036E+01 -0.38262161313E+02 -0.13717291930E+02  0.50528813062E+02  0.29999857783E+02 0.  0.
        -12    1    1    2    0    0 -0.10061790036E+01  0.38262161313E+02  0.13717291930E+02  0.40659186938E+02  0.00000000000E+00 0.  1.
         11    1    3    3    0    0 -0.11001496425E+01  0.59504533445E+00  0.89017588777E+00  0.15351943064E+01  0.51100000000E-03 0. -1.
        -11    1    3    3    0    0  0.45410743699E+01 -0.86369430077E+01  0.67875366191E+01  0.11886496312E+02  0.51100000000E-03 0.  1.
         12    1    3    3    0    0 -0.24347457237E+01 -0.30220263640E+02 -0.21395004437E+02  0.37107122444E+02  0.00000000000E+00 0. -1.
</event>
<event>
 7    1  0.2945316E-011  0.5052882E+02  0.7816164E-02  0.1300439E+00
        -11   -1    0    0    0    0  0.00000000000E+00  0.00000000000E+00  0.45593999997E+02  0.45594000000E+02  0.51100000000E-03 0.  1.
         11   -1    0    0    0    0 -0.00000000000E+00 -0.00000000000E+00 -0.45593999997E+02  0.45594000000E+02  0.51100000000E-03 0. -1.
    9900012    2    1    2    0    0  0.19476607685E+02 -0.12914883937E+02 -0.33272162452E+02  0.50528815697E+02  0.29999865791E+02 0.  0.
        -12    1    1    2    0    0 -0.19476607685E+02  0.12914883937E+02  0.33272162452E+02  0.40659184303E+02  0.00000000000E+00 0.  1.
         11    1    3    3    0    0  0.14106492925E+02 -0.17562259013E+02 -0.12687772061E+02  0.25853542203E+02  0.51100000000E-03 0. -1.
        -11    1    3    3    0    0  0.67177847834E+01 -0.15968601432E+01 -0.80405981148E+01  0.10598575990E+02  0.51100000000E-03 0.  1.
         12    1    3    3    0    0 -0.13476700238E+01  0.62442352192E+01 -0.12543792276E+02  0.14076697504E+02  0.00000000000E+00 0. -1.
</event>
<event>
 7    1  0.2945316E-011  0.5052877E+02  0.7816164E-02  0.1300439E+00
        -11   -1    0    0    0    0  0.00000000000E+00  0.00000000000E+00  0.45593999997E+02  0.45594000000E+02  0.51100000000E-03 0. -1.
         11   -1    0    0    0    0 -0.00000000000E+00 -0.00000000000E+00 -0.45593999997E+02  0.45594000000E+02  0.51100000000E-03 0.  1.
    9900012    2    1    2    0    0  0.33053659604E+02 -0.69059682592E+01  0.22648095688E+02  0.50528769202E+02  0.29999724464E+02 0.  0.
        -12    1    1    2    0    0 -0.33053659604E+02  0.69059682592E+01 -0.22648095688E+02  0.40659230798E+02  0.00000000000E+00 0.  1.
         11    1    3    3    0    0  0.15559956853E+02  0.27762866118E+01  0.78376355353E+01  0.17642237831E+02  0.51100000000E-03 0. -1.
        -11    1    3    3    0    0  0.90215798146E+01  0.64375660254E+01  0.67071276287E+01  0.12954409287E+02  0.51100000000E-03 0.  1.
         12    1    3    3    0    0  0.84721229360E+01 -0.16119820896E+02  0.81033325241E+01  0.19932122084E+02  0.00000000000E+00 0. -1.
</event>
<event>
 7    1  0.2945316E-011  0.5052886E+02  0.7816164E-02  0.1300439E+00
        -11   -1    0    0    0    0  0.00000000000E+00  0.00000000000E+00  0.45593999997E+02  0.45594000000E+02  0.51100000000E-03 0.  1.
         11   -1    0    0    0    0 -0.00000000000E+00 -0.00000000000E+00 -0.45593999997E+02  0.45594000000E+02  0.51100000000E-03 0. -1.
    9900012    2    1    2    0    0 -0.26675349155E+02  0.27888181814E+02 -0.12800019296E+02  0.50528862878E+02  0.30000009205E+02 0.  0.
        -12    1    1    2    0    0  0.26675349155E+02 -0.27888181814E+02  0.12800019296E+02  0.40659137122E+02  0.00000000000E+00 0.  1.
         11    1    3    3    0    0 -0.20776406114E+02  0.15175693709E+02 -0.88763524267E+01  0.27216729473E+02  0.51100000000E-03 0. -1.
        -11    1    3    3    0    0 -0.93336213892E+00  0.42247354753E+01  0.72405011851E+01  0.84347147190E+01  0.51100000000E-03 0.  1.
         12    1    3    3    0    0 -0.49655809029E+01  0.84877526299E+01 -0.11164168055E+02  0.14877418686E+02  0.00000000000E+00 0. -1.
</event>
<event>
 7    1  0.2945316E-011  0.5052886E+02  0.7816164E-02  0.1300439E+00
        -11   -1    0    0    0    0  0.00000000000E+00  0.00000000000E+00  0.45593999997E+02  0.45594000000E+02  0.51100000000E-03 0. -1.
         11   -1    0    0    0    0 -0.00000000000E+00 -0.00000000000E+00 -0.45593999997E+02  0.45594000000E+02  0.51100000000E-03 0.  1.
    9900012    2    1    2    0    0 -0.40460667060E+02 -0.30307864321E+01  0.26294768259E+01  0.50528863343E+02  0.30000010618E+02 0.  0.
        -12    1    1    2    0    0  0.40460667060E+02  0.30307864321E+01 -0.26294768259E+01  0.40659136657E+02  0.00000000000E+00 0.  1.
         11    1    3    3    0    0 -0.16452464121E+02  0.86246461259E+00 -0.57043136388E+01  0.17434638373E+02  0.51100000000E-03 0. -1.
        -11    1    3    3    0    0  0.24421291390E+01  0.32241485161E+01 -0.98211907927E+00  0.41621732944E+01  0.51100000000E-03 0.  1.
         12    1    3    3    0    0 -0.26450332078E+02 -0.71173995608E+01  0.93159095439E+01  0.28932051676E+02  0.00000000000E+00 0. -1.
</event>
<event>
 7    1  0.2945316E-011  0.5052884E+02  0.7816164E-02  0.1300439E+00
        -11   -1    0    0    0    0  0.00000000000E+00  0.00000000000E+00  0.45593999997E+02  0.45594000000E+02  0.51100000000E-03 0.  1.
         11   -1    0    0    0    0 -0.00000000000E+00 -0.00000000000E+00 -0.45593999997E+02  0.45594000000E+02  0.51100000000E-03 0. -1.
    9900012    2    1    2    0    0 -0.35059578803E+02 -0.64594953803E+01 -0.19551674321E+02  0.50528842173E+02  0.29999946269E+02 0.  0.
        -12    1    1    2    0    0  0.35059578803E+02  0.64594953803E+01  0.19551674321E+02  0.40659157827E+02  0.00000000000E+00 0.  1.
         11    1    3    3    0    0 -0.73132381969E+01  0.17127295905E+01 -0.11591223638E+02  0.13812073025E+02  0.51100000000E-03 0. -1.
        -11    1    3    3    0    0  0.16837978550E+01  0.34924394729E+01 -0.24413963627E+01  0.45817818749E+01  0.51100000000E-03 0.  1.
        -12    1    3    3    0    0 -0.29430138461E+02 -0.11664664444E+02 -0.55190543212E+01  0.32134987273E+02  0.00000000000E+00 0.  1.
</event>
<event>
 7    1  0.2945316E-011  0.5052892E+02  0.7816164E-02  0.1300439E+00
        -11   -1    0    0    0    0  0.00000000000E+00  0.00000000000E+00  0.45593999997E+02  0.45594000000E+02  0.51100000000E-03 0.  1.
         11   -1    0    0    0    0 -0.00000000000E+00 -0.00000000000E+00 -0.45593999997E+02  0.45594000000E+02  0.51100000000E-03 0. -1.
    9900012    2    1    2    0    0 -0.24725832564E+02  0.13400231967E+02 -0.29363720105E+02  0.50528916499E+02  0.30000172190E+02 0.  0.
        -12    1    1    2    0    0  0.24725832564E+02 -0.13400231967E+02  0.29363720105E+02  0.40659083501E+02  0.00000000000E+00 0.  1.
         11    1    3    3    0    0 -0.10511970647E+02 -0.46414040395E+01 -0.73403043830E+01  0.13635403442E+02  0.51100000000E-03 0. -1.
        -11    1    3    3    0    0 -0.14553507322E+02  0.42162480879E+01 -0.77488394026E+01  0.17018396977E+02  0.51100000000E-03 0.  1.
        -12    1    3    3    0    0  0.33964540473E+00  0.13825387918E+02 -0.14274576319E+02  0.19875116080E+02  0.00000000000E+00 0.  1.
</event>
<event>
 7    1  0.2945316E-011  0.5052886E+02  0.7816164E-02  0.1300439E+00
        -11   -1    0    0    0    0  0.00000000000E+00  0.00000000000E+00  0.45593999997E+02  0.45594000000E+02  0.51100000000E-03 0. -1.
         11   -1    0    0    0    0 -0.00000000000E+00 -0.00000000000E+00 -0.45593999997E+02  0.45594000000E+02  0.51100000000E-03 0.  1.
    9900012    2    1    2    0    0  0.66249860839E+01 -0.40114699915E+02  0.29407157182E+00  0.50528855051E+02  0.29999985413E+02 0.  0.
        -12    1    1    2    0    0 -0.66249860839E+01  0.40114699915E+02 -0.29407157182E+00  0.40659144949E+02  0.00000000000E+00 0.  1.
         11    1    3    3    0    0  0.19722235094E+01 -0.26494711229E+01  0.22572064266E+01  0.40005429526E+01  0.51100000000E-03 0. -1.
        -11    1    3    3    0    0  0.29052645095E+01 -0.40687464890E+02  0.23612884668E+01  0.40859344642E+02  0.51100000000E-03 0.  1.
        -12    1    3    3    0    0  0.17474980649E+01  0.32222360980E+01 -0.43244233215E+01  0.56689674564E+01  0.00000000000E+00 0.  1.
</event>
<event>
 7    1  0.2945316E-011  0.5052886E+02  0.7816164E-02  0.1300439E+00
        -11   -1    0    0    0    0  0.00000000000E+00  0.00000000000E+00  0.45593999997E+02  0.45594000000E+02  0.51100000000E-03 0.  1.
         11   -1    0    0    0    0 -0.00000000000E+00 -0.00000000000E+00 -0.45593999997E+02  0.45594000000E+02  0.51100000000E-03 0. -1.
    9900012    2    1    2    0    0  0.14353365271E+02  0.18926566659E+02 -0.32998959513E+02  0.50528863892E+02  0.30000012287E+02 0.  0.
        -12    1    1    2    0    0 -0.14353365271E+02 -0.18926566659E+02  0.32998959513E+02  0.40659136108E+02  0.00000000000E+00 0.  1.
         11    1    3    3    0    0  0.74868364579E+01  0.89817193298E+01 -0.12832054255E+01  0.11763104127E+02  0.51100000000E-03 0. -1.
        -11    1    3    3    0    0 -0.30843735774E+01 -0.21398273544E+01 -0.42543376153E+00  0.37779909500E+01  0.51100000000E-03 0.  1.
         12    1    3    3    0    0  0.99509023908E+01  0.12084674683E+02 -0.31290320326E+02  0.34987768816E+02  0.00000000000E+00 0. -1.
</event>
<event>
 7    1  0.2945316E-011  0.5052886E+02  0.7816164E-02  0.1300439E+00
        -11   -1    0    0    0    0  0.00000000000E+00  0.00000000000E+00  0.45593999997E+02  0.45594000000E+02  0.51100000000E-03 0. -1.
         11   -1    0    0    0    0 -0.00000000000E+00 -0.00000000000E+00 -0.45593999997E+02  0.45594000000E+02  0.51100000000E-03 0.  1.
    9900012    2    1    2    0    0  0.27893371191E+02  0.43986536389E+01 -0.29253673391E+02  0.50528859367E+02  0.29999998531E+02 0.  0.
        -12    1    1    2    0    0 -0.27893371191E+02 -0.43986536389E+01  0.29253673391E+02  0.40659140633E+02  0.00000000000E+00 0.  1.
         11    1    3    3    0    0  0.14378206670E+02 -0.93087840612E+01 -0.11151130322E+02  0.20438541911E+02  0.51100000000E-03 0. -1.
        -11    1    3    3    0    0  0.11101081332E+02  0.46340890072E+01 -0.31511782222E+01  0.12435381462E+02  0.51100000000E-03 0.  1.
        -12    1    3    3    0    0  0.24140831890E+01  0.90733486929E+01 -0.14951364847E+02  0.17654935993E+02  0.00000000000E+00 0.  1.
</event>
<event>
 7    1  0.2945316E-011  0.5052890E+02  0.7816164E-02  0.1300439E+00
        -11   -1    0    0    0    0  0.00000000000E+00  0.00000000000E+00  0.45593999997E+02  0.45594000000E+02  0.51100000000E-03 0. -1.
         11   -1    0    0    0    0 -0.00000000000E+00 -0.00000000000E+00 -0.45593999997E+02  0.45594000000E+02  0.51100000000E-03 0.  1.
    9900012    2    1    2    0    0 -0.10765314923E+01  0.40100500900E+02 -0.66297401773E+01  0.50528898346E+02  0.30000117013E+02 0.  0.
        -12    1    1    2    0    0  0.10765314923E+01 -0.40100500900E+02  0.66297401773E+01  0.40659101654E+02  0.00000000000E+00 0.  1.
         11    1    3    3    0    0 -0.37978120403E+01  0.54755717856E+01 -0.92572898783E+01  0.11406256127E+02  0.51100000000E-03 0. -1.
        -11    1    3    3    0    0  0.58835354978E+01  0.15985379897E+02 -0.63687929499E+01  0.18185430550E+02  0.51100000000E-03 0.  1.
         12    1    3    3    0    0 -0.31622549497E+01  0.18639549218E+02  0.89963426508E+01  0.20937211670E+02  0.00000000000E+00 0. -1.
</event>
<event>
 7    1  0.2945316E-011  0.5052886E+02  0.7816164E-02  0.1300439E+00
        -11   -1    0    0    0    0  0.00000000000E+00  0.00000000000E+00  0.45593999997E+02  0.45594000000E+02  0.51100000000E-03 0. -1.
         11   -1    0    0    0    0 -0.00000000000E+00 -0.00000000000E+00 -0.45593999997E+02  0.45594000000E+02  0.51100000000E-03 0.  1.
    9900012    2    1    2    0    0 -0.21050370894E+02 -0.16495206585E+02  0.30626061044E+02  0.50528861173E+02  0.30000004021E+02 0.  0.
        -12    1    1    2    0    0  0.21050370894E+02  0.16495206585E+02 -0.30626061044E+02  0.40659138827E+02  0.00000000000E+00 0.  1.
         11    1    3    3    0    0 -0.91317287423E+01  0.29064169245E+01  0.55547868309E+01  0.11076614382E+02  0.51100000000E-03 0. -1.
        -11    1    3    3    0    0 -0.17845897317E+01 -0.75073687208E+01 -0.21977282848E+01  0.80234254216E+01  0.51100000000E-03 0.  1.
         12    1    3    3    0    0 -0.10134052420E+02 -0.11894254789E+02  0.27269002498E+02  0.31428821370E+02  0.00000000000E+00 0. -1.
</event>
<event>
 7    1  0.2945316E-011  0.5052886E+02  0.7816164E-02  0.1300439E+00
        -11   -1    0    0    0    0  0.00000000000E+00  0.00000000000E+00  0.45593999997E+02  0.45594000000E+02  0.51100000000E-03 0.  1.
         11   -1    0    0    0    0 -0.00000000000E+00 -0.00000000000E+00 -0.45593999997E+02  0.45594000000E+02  0.51100000000E-03 0. -1.
    9900012    2    1    2    0    0  0.19067707530E+02  0.67266756230E+01 -0.35275205573E+02  0.50528858794E+02  0.29999996789E+02 0.  0.
        -12    1    1    2    0    0 -0.19067707530E+02 -0.67266756230E+01  0.35275205573E+02  0.40659141206E+02  0.00000000000E+00 0.  1.
         11    1    3    3    0    0  0.60754720479E+01 -0.65840329005E+01 -0.10400177522E+02  0.13726781946E+02  0.51100000000E-03 0. -1.
        -11    1    3    3    0    0  0.26351050944E+01  0.30156676426E+01 -0.21425864544E+02  0.21796919551E+02  0.51100000000E-03 0.  1.
        -12    1    3    3    0    0  0.10357130388E+02  0.10295040881E+02 -0.34491635077E+01  0.15005157297E+02  0.00000000000E+00 0.  1.
</event>
<event>
 7    1  0.2945316E-011  0.5052886E+02  0.7816164E-02  0.1300439E+00
        -11   -1    0    0    0    0  0.00000000000E+00  0.00000000000E+00  0.45593999997E+02  0.45594000000E+02  0.51100000000E-03 0.  1.
         11   -1    0    0    0    0 -0.00000000000E+00 -0.00000000000E+00 -0.45593999997E+02  0.45594000000E+02  0.51100000000E-03 0. -1.
    9900012    2    1    2    0    0  0.28511608582E+02 -0.24629075994E+02 -0.15286021145E+02  0.50528860183E+02  0.30000001012E+02 0.  0.
        -12    1    1    2    0    0 -0.28511608582E+02  0.24629075994E+02  0.15286021145E+02  0.40659139817E+02  0.00000000000E+00 0.  1.
         11    1    3    3    0    0 -0.11953802355E+00 -0.30002600517E+01 -0.14209449739E+01  0.33218872041E+01  0.51100000000E-03 0. -1.
        -11    1    3    3    0    0 -0.28869339894E+01 -0.36582572279E+01 -0.96058052453E+01  0.10676550402E+02  0.51100000000E-03 0.  1.
        -12    1    3    3    0    0  0.31518080595E+02 -0.17970558714E+02 -0.42592709255E+01  0.36530422577E+02  0.00000000000E+00 0.  1.
</event>
<event>
 7    1  0.2945316E-011  0.5052887E+02  0.7816164E-02  0.1300439E+00
        -11   -1    0    0    0    0  0.00000000000E+00  0.00000000000E+00  0.45593999997E+02  0.45594000000E+02  0.51100000000E-03 0.  1.
         11   -1    0    0    0    0 -0.00000000000E+00 -0.00000000000E+00 -0.45593999997E+02  0.45594000000E+02  0.51100000000E-03 0. -1.
    9900012    2    1    2    0    0  0.16364755011E+02 -0.13183541845E+02 -0.34807376984E+02  0.50528874645E+02  0.30000044970E+02 0.  0.
        -12    1    1    2    0    0 -0.16364755011E+02  0.13183541845E+02  0.34807376984E+02  0.40659125355E+02  0.00000000000E+00 0.  1.
         11    1    3    3    0    0  0.14554338949E+02  0.13371903346E+00 -0.95005891778E+01  0.17381250185E+02  0.51100000000E-03 0. -1.
        -11    1    3    3    0    0  0.50439898144E+01 -0.82269320048E+01 -0.30988252673E+01  0.10135431010E+02  0.51100000000E-03 0.  1.
        -12    1    3    3    0    0 -0.32335737517E+01 -0.50903288737E+01 -0.22207962539E+02  0.23012193450E+02  0.00000000000E+00 0.  1.
</event>
<event>
 7    1  0.2945316E-011  0.5052887E+02  0.7816164E-02  0.1300439E+00
        -11   -1    0    0    0    0  0.00000000000E+00  0.00000000000E+00  0.45593999997E+02  0.45594000000E+02  0.51100000000E-03 0.  1.
         11   -1    0    0    0    0 -0.00000000000E+00 -0.00000000000E+00 -0.45593999997E+02  0.45594000000E+02  0.51100000000E-03 0. -1.
    9900012    2    1    2    0    0  0.29117308985E+02  0.42648295108E+01 -0.28056347748E+02  0.50528866927E+02  0.30000021512E+02 0.  0.
        -12    1    1    2    0    0 -0.29117308985E+02 -0.42648295108E+01  0.28056347748E+02  0.40659133073E+02  0.00000000000E+00 0.  1.
         11    1    3    3    0    0  0.28881874968E+02  0.81355995905E+01 -0.22532241339E+02  0.37524026735E+02  0.51100000000E-03 0. -1.
        -11    1    3    3    0    0  0.49433515520E+01  0.68728222114E+00 -0.11364302622E+01  0.51186478117E+01  0.51100000000E-03 0.  1.
        -12    1    3    3    0    0 -0.47079175354E+01 -0.45580523009E+01 -0.43876761467E+01  0.78861923807E+01  0.00000000000E+00 0.  1.
</event>
<event>
 7    1  0.2945316E-011  0.5052887E+02  0.7816164E-02  0.1300439E+00
        -11   -1    0    0    0    0  0.00000000000E+00  0.00000000000E+00  0.45593999997E+02  0.45594000000E+02  0.51100000000E-03 0.  1.
         11   -1    0    0    0    0 -0.00000000000E+00 -0.00000000000E+00 -0.45593999997E+02  0.45594000000E+02  0.51100000000E-03 0. -1.
    9900012    2    1    2    0    0  0.15569735642E+02 -0.34227360160E+02  0.15467262426E+02  0.50528867466E+02  0.30000023149E+02 0.  0.
        -12    1    1    2    0    0 -0.15569735642E+02  0.34227360160E+02 -0.15467262426E+02  0.40659132534E+02  0.00000000000E+00 0.  1.
         11    1    3    3    0    0 -0.22369552463E+01  0.53037045339E+00 -0.37355914889E+01  0.43863316821E+01  0.51100000000E-03 0. -1.
        -11    1    3    3    0    0  0.18678608895E+01  0.23719445876E+00  0.46681217568E+01  0.50335401569E+01  0.51100000000E-03 0.  1.
         12    1    3    3    0    0  0.15938829999E+02 -0.34994925072E+02  0.14534732158E+02  0.41108995627E+02  0.00000000000E+00 0. -1.
</event>
<event>
 7    1  0.2945316E-011  0.5052886E+02  0.7816164E-02  0.1300439E+00
        -11   -1    0    0    0    0  0.00000000000E+00  0.00000000000E+00  0.45593999997E+02  0.45594000000E+02  0.51100000000E-03 0.  1.
         11   -1    0    0    0    0 -0.00000000000E+00 -0.00000000000E+00 -0.45593999997E+02  0.45594000000E+02  0.51100000000E-03 0. -1.
    9900012    2    1    2    0    0  0.20043269653E+02 -0.71908823227E+01 -0.34637033898E+02  0.50528861246E+02  0.30000004244E+02 0.  0.
        -12    1    1    2    0    0 -0.20043269653E+02  0.71908823227E+01  0.34637033898E+02  0.40659138754E+02  0.00000000000E+00 0.  1.
         11    1    3    3    0    0  0.16277938015E+02  0.24676875928E+00 -0.13942278712E+02  0.21434068600E+02  0.51100000000E-03 0. -1.
        -11    1    3    3    0    0  0.21366778893E+01 -0.11512906459E+02 -0.48856940433E+01  0.12687884539E+02  0.51100000000E-03 0.  1.
         12    1    3    3    0    0  0.16286537491E+01  0.40752553766E+01 -0.15809061143E+02  0.16406908107E+02  0.00000000000E+00 0. -1.
</event>
<event>
 7    1  0.2945316E-011  0.5052890E+02  0.7816164E-02  0.1300439E+00
        -11   -1    0    0    0    0  0.00000000000E+00  0.00000000000E+00  0.45593999997E+02  0.45594000000E+02  0.51100000000E-03 0. -1.
         11   -1    0    0    0    0 -0.00000000000E+00 -0.00000000000E+00 -0.45593999997E+02  0.45594000000E+02  0.51100000000E-03 0.  1.
    9900012    2    1    2    0    0  0.17943404864E+01  0.34209166370E+02  0.21901503736E+02  0.50528897853E+02  0.30000115513E+02 0.  0.
        -12    1    1    2    0    0 -0.17943404864E+01 -0.34209166370E+02 -0.21901503736E+02  0.40659102147E+02  0.00000000000E+00 0.  1.
         11    1    3    3    0    0  0.76082854575E+01  0.11216265018E+02  0.44178469311E+01  0.14255103659E+02  0.51100000000E-03 0. -1.
        -11    1    3    3    0    0  0.51877449757E+01  0.12603853698E+02  0.65919798010E+00  0.13645672143E+02  0.51100000000E-03 0.  1.
        -12    1    3    3    0    0 -0.11001689947E+02  0.10389047654E+02  0.16824458825E+02  0.22628122052E+02  0.00000000000E+00 0.  1.
</event>
<event>
 7    1  0.2945316E-011  0.5052886E+02  0.7816164E-02  0.1300439E+00
        -11   -1    0    0    0    0  0.00000000000E+00  0.00000000000E+00  0.45593999997E+02  0.45594000000E+02  0.51100000000E-03 0.  1.
         11   -1    0    0    0    0 -0.00000000000E+00 -0.00000000000E+00 -0.45593999997E+02  0.45594000000E+02  0.51100000000E-03 0. -1.
    9900012    2    1    2    0    0 -0.24765520736E+02 -0.33861088021E+01 -0.32068193306E+02  0.50528858690E+02  0.29999996473E+02 0.  0.
        -12    1    1    2    0    0  0.24765520736E+02  0.33861088021E+01  0.32068193306E+02  0.40659141310E+02  0.00000000000E+00 0.  1.
         11    1    3    3    0    0  0.98527521072E+00 -0.13154636167E+01 -0.14315747955E+01  0.21795913433E+01  0.51100000000E-03 0. -1.
        -11    1    3    3    0    0  0.46257517210E+01  0.39542594044E+00 -0.11401061412E+02  0.12310082950E+02  0.51100000000E-03 0.  1.
         12    1    3    3    0    0 -0.30376547668E+02 -0.24660711258E+01 -0.19235557099E+02  0.36039184396E+02  0.00000000000E+00 0. -1.
</event>
<event>
 7    1  0.2945316E-011  0.5052889E+02  0.7816164E-02  0.1300439E+00
        -11   -1    0    0    0    0  0.00000000000E+00  0.00000000000E+00  0.45593999997E+02  0.45594000000E+02  0.51100000000E-03 0.  1.
         11   -1    0    0    0    0 -0.00000000000E+00 -0.00000000000E+00 -0.45593999997E+02  0.45594000000E+02  0.51100000000E-03 0. -1.
    9900012    2    1    2    0    0 -0.32987349704E+02 -0.26655667113E+01 -0.23619753173E+02  0.50528889996E+02  0.30000091633E+02 0.  0.
        -12    1    1    2    0    0  0.32987349704E+02  0.26655667113E+01  0.23619753173E+02  0.40659110004E+02  0.00000000000E+00 0.  1.
         11    1    3    3    0    0 -0.12499672628E+01 -0.53421547678E+01 -0.11722346333E+02  0.12942736942E+02  0.51100000000E-03 0.  1.
        -11    1    3    3    0    0 -0.18980362077E+01 -0.45229667886E+01 -0.23579002999E+01  0.54423766961E+01  0.51100000000E-03 0. -1.
        -12    1    3    3    0    0 -0.29839346233E+02  0.71995548451E+01 -0.95395065394E+01  0.32143776359E+02  0.00000000000E+00 0.  1.
</event>
<event>
 7    1  0.2945316E-011  0.5052886E+02  0.7816164E-02  0.1300439E+00
        -11   -1    0    0    0    0  0.00000000000E+00  0.00000000000E+00  0.45593999997E+02  0.45594000000E+02  0.51100000000E-03 0. -1.
         11   -1    0    0    0    0 -0.00000000000E+00 -0.00000000000E+00 -0.45593999997E+02  0.45594000000E+02  0.51100000000E-03 0.  1.
    9900012    2    1    2    0    0 -0.19783444296E+02  0.33398633261E+02 -0.12095953251E+02  0.50528862565E+02  0.30000008253E+02 0.  0.
        -12    1    1    2    0    0  0.19783444296E+02 -0.33398633261E+02  0.12095953251E+02  0.40659137435E+02  0.00000000000E+00 0.  1.
         11    1    3    3    0    0 -0.22880086321E+01  0.42742507691E+01 -0.46044432221E+00  0.48699294012E+01  0.51100000000E-03 0. -1.
        -11    1    3    3    0    0 -0.11918558276E+02 -0.22620973150E+01 -0.48608040514E+01  0.13068914719E+02  0.51100000000E-03 0.  1.
        -12    1    3    3    0    0 -0.55768773880E+01  0.31386479807E+02 -0.67747048775E+01  0.32590018445E+02  0.00000000000E+00 0.  1.
</event>
<event>
 7    1  0.2945316E-011  0.5052885E+02  0.7816164E-02  0.1300439E+00
        -11   -1    0    0    0    0  0.00000000000E+00  0.00000000000E+00  0.45593999997E+02  0.45594000000E+02  0.51100000000E-03 0. -1.
         11   -1    0    0    0    0 -0.00000000000E+00 -0.00000000000E+00 -0.45593999997E+02  0.45594000000E+02  0.51100000000E-03 0.  1.
    9900012    2    1    2    0    0 -0.26674607843E+02 -0.29745649047E+02 -0.75384230486E+01  0.50528853884E+02  0.29999981865E+02 0.  0.
        -12    1    1    2    0    0  0.26674607843E+02  0.29745649047E+02  0.75384230486E+01  0.40659146116E+02  0.00000000000E+00 0.  1.
         11    1    3    3    0    0 -0.45261887155E+01 -0.69304415581E+01 -0.54782160314E+01  0.99261400164E+01  0.51100000000E-03 0. -1.
        -11    1    3    3    0    0 -0.40849110402E+01 -0.17851249564E+02 -0.92758846391E+01  0.20527923551E+02  0.51100000000E-03 0.  1.
        -12    1    3    3    0    0 -0.18063508088E+02 -0.49639579249E+01  0.72156776220E+01  0.20074790317E+02  0.00000000000E+00 0.  1.
</event>
<event>
 7    1  0.2945316E-011  0.5052885E+02  0.7816164E-02  0.1300439E+00
        -11   -1    0    0    0    0  0.00000000000E+00  0.00000000000E+00  0.45593999997E+02  0.45594000000E+02  0.51100000000E-03 0. -1.
         11   -1    0    0    0    0 -0.00000000000E+00 -0.00000000000E+00 -0.45593999997E+02  0.45594000000E+02  0.51100000000E-03 0.  1.
    9900012    2    1    2    0    0  0.34886265983E+01 -0.17877714378E+02  0.36350839874E+02  0.50528846708E+02  0.29999960053E+02 0.  0.
        -12    1    1    2    0    0 -0.34886265983E+01  0.17877714378E+02 -0.36350839874E+02  0.40659153292E+02  0.00000000000E+00 0.  1.
         11    1    3    3    0    0  0.12336984585E+02 -0.13051244837E+02  0.22244792655E+02  0.28589630655E+02  0.51100000000E-03 0. -1.
        -11    1    3    3    0    0 -0.57831672897E+01 -0.95085658401E+01  0.10360832483E+02  0.15205416740E+02  0.51100000000E-03 0.  1.
        -12    1    3    3    0    0 -0.30651906974E+01  0.46820962996E+01  0.37452147356E+01  0.67337993128E+01  0.00000000000E+00 0.  1.
</event>
<event>
 7    1  0.2945316E-011  0.5052886E+02  0.7816164E-02  0.1300439E+00
        -11   -1    0    0    0    0  0.00000000000E+00  0.00000000000E+00  0.45593999997E+02  0.45594000000E+02  0.51100000000E-03 0.  1.
         11   -1    0    0    0    0 -0.00000000000E+00 -0.00000000000E+00 -0.45593999997E+02  0.45594000000E+02  0.51100000000E-03 0. -1.
    9900012    2    1    2    0    0 -0.11075213348E+02 -0.11271486326E+02 -0.37462769730E+02  0.50528857479E+02  0.29999992794E+02 0.  0.
        -12    1    1    2    0    0  0.11075213348E+02  0.11271486326E+02  0.37462769730E+02  0.40659142521E+02  0.00000000000E+00 0.  1.
         11    1    3    3    0    0 -0.76683309845E+01  0.16807385366E+01 -0.22114943864E+02  0.23466975188E+02  0.51100000000E-03 0. -1.
        -11    1    3    3    0    0 -0.10609830641E+02 -0.70512630851E+01 -0.10790218049E+02  0.16694838218E+02  0.51100000000E-03 0.  1.
        -12    1    3    3    0    0  0.72029482779E+01 -0.59009617772E+01 -0.45576078168E+01  0.10367044073E+02  0.00000000000E+00 0.  1.
</event>
<event>
 7    1  0.2945316E-011  0.5052886E+02  0.7816164E-02  0.1300439E+00
        -11   -1    0    0    0    0  0.00000000000E+00  0.00000000000E+00  0.45593999997E+02  0.45594000000E+02  0.51100000000E-03 0.  1.
         11   -1    0    0    0    0 -0.00000000000E+00 -0.00000000000E+00 -0.45593999997E+02  0.45594000000E+02  0.51100000000E-03 0. -1.
    9900012    2    1    2    0    0 -0.38598408240E+02  0.97577278182E+01 -0.82531962547E+01  0.50528860569E+02  0.30000002186E+02 0.  0.
        -12    1    1    2    0    0  0.38598408240E+02 -0.97577278182E+01  0.82531962547E+01  0.40659139431E+02  0.00000000000E+00 0.  1.
         11    1    3    3    0    0 -0.72760034966E+01  0.11310389351E+02  0.41965520875E+01  0.14088157574E+02  0.51100000000E-03 0.  1.
        -11    1    3    3    0    0 -0.23548343255E+02 -0.52941122685E+01 -0.41906768802E+01  0.24497221633E+02  0.51100000000E-03 0. -1.
         12    1    3    3    0    0 -0.77740614887E+01  0.37414507358E+01 -0.82590714621E+01  0.11943481362E+02  0.00000000000E+00 0. -1.
</event>
<event>
 7    1  0.2945316E-011  0.5052886E+02  0.7816164E-02  0.1300439E+00
        -11   -1    0    0    0    0  0.00000000000E+00  0.00000000000E+00  0.45593999997E+02  0.45594000000E+02  0.51100000000E-03 0.  1.
         11   -1    0    0    0    0 -0.00000000000E+00 -0.00000000000E+00 -0.45593999997E+02  0.45594000000E+02  0.51100000000E-03 0. -1.
    9900012    2    1    2    0    0  0.36502512191E-01  0.14030285259E+02 -0.38161698338E+02  0.50528862566E+02  0.30000008254E+02 0.  0.
        -12    1    1    2    0    0 -0.36502512191E-01 -0.14030285259E+02  0.38161698338E+02  0.40659137434E+02  0.00000000000E+00 0.  1.
         11    1    3    3    0    0  0.73009124797E+01  0.15201618015E+01 -0.12854313774E+01  0.75674664866E+01  0.51100000000E-03 0. -1.
        -11    1    3    3    0    0  0.30764571035E+01  0.78030537015E+01 -0.67581724771E+01  0.10771496222E+02  0.51100000000E-03 0.  1.
         12    1    3    3    0    0 -0.10340867071E+02  0.47070697560E+01 -0.30118094483E+02  0.32189899857E+02  0.00000000000E+00 0. -1.
</event>
<event>
 7    1  0.2945316E-011  0.5052885E+02  0.7816164E-02  0.1300439E+00
        -11   -1    0    0    0    0  0.00000000000E+00  0.00000000000E+00  0.45593999997E+02  0.45594000000E+02  0.51100000000E-03 0.  1.
         11   -1    0    0    0    0 -0.00000000000E+00 -0.00000000000E+00 -0.45593999997E+02  0.45594000000E+02  0.51100000000E-03 0. -1.
    9900012    2    1    2    0    0 -0.73146510693E+01 -0.32086620507E+02 -0.23876994517E+02  0.50528853391E+02  0.29999980366E+02 0.  0.
        -12    1    1    2    0    0  0.73146510693E+01  0.32086620507E+02  0.23876994517E+02  0.40659146609E+02  0.00000000000E+00 0.  1.
         11    1    3    3    0    0  0.59695206054E+00 -0.57610106840E+01  0.19941598368E+01  0.61255423907E+01  0.51100000000E-03 0. -1.
        -11    1    3    3    0    0 -0.17019587618E+01 -0.31285542221E+01  0.44659427822E+01  0.57121940043E+01  0.51100000000E-03 0.  1.
         12    1    3    3    0    0 -0.62096443680E+01 -0.23197055601E+02 -0.30337097136E+02  0.38691116996E+02  0.00000000000E+00 0. -1.
</event>
<event>
 7    1  0.2945316E-011  0.5052886E+02  0.7816164E-02  0.1300439E+00
        -11   -1    0    0    0    0  0.00000000000E+00  0.00000000000E+00  0.45593999997E+02  0.45594000000E+02  0.51100000000E-03 0.  1.
         11   -1    0    0    0    0 -0.00000000000E+00 -0.00000000000E+00 -0.45593999997E+02  0.45594000000E+02  0.51100000000E-03 0. -1.
    9900012    2    1    2    0    0  0.10521469676E+02 -0.25224841026E+02 -0.30102685171E+02  0.50528861010E+02  0.30000003525E+02 0.  0.
        -12    1    1    2    0    0 -0.10521469676E+02  0.25224841026E+02  0.30102685171E+02  0.40659138990E+02  0.00000000000E+00 0.  1.
         11    1    3    3    0    0  0.36092659813E+01 -0.83382065564E+01 -0.56520655324E+00  0.91034031115E+01  0.51100000000E-03 0.  1.
        -11    1    3    3    0    0  0.12651221572E+01  0.54697386345E+01 -0.33695376615E+01  0.65476987649E+01  0.51100000000E-03 0. -1.
         12    1    3    3    0    0  0.56470815374E+01 -0.22356373104E+02 -0.26167940956E+02  0.34877759133E+02  0.00000000000E+00 0. -1.
</event>
<event>
 7    1  0.2945316E-011  0.5052886E+02  0.7816164E-02  0.1300439E+00
        -11   -1    0    0    0    0  0.00000000000E+00  0.00000000000E+00  0.45593999997E+02  0.45594000000E+02  0.51100000000E-03 0.  1.
         11   -1    0    0    0    0 -0.00000000000E+00 -0.00000000000E+00 -0.45593999997E+02  0.45594000000E+02  0.51100000000E-03 0. -1.
    9900012    2    1    2    0    0  0.38152102751E+02  0.13495084115E+02 -0.39325761491E+01  0.50528863330E+02  0.30000010577E+02 0.  0.
        -12    1    1    2    0    0 -0.38152102751E+02 -0.13495084115E+02  0.39325761491E+01  0.40659136670E+02  0.00000000000E+00 0.  1.
         11    1    3    3    0    0  0.15886873799E+01 -0.15475426922E+01  0.10849714040E+00  0.22204927079E+01  0.51100000000E-03 0. -1.
        -11    1    3    3    0    0 -0.11830931716E+01 -0.44868873992E+01  0.25596660996E+01  0.52994111737E+01  0.51100000000E-03 0.  1.
         12    1    3    3    0    0  0.37746508543E+02  0.19529514207E+02 -0.66007393891E+01  0.43008959448E+02  0.00000000000E+00 0. -1.
</event>
<event>
 7    1  0.2945316E-011  0.5052886E+02  0.7816164E-02  0.1300439E+00
        -11   -1    0    0    0    0  0.00000000000E+00  0.00000000000E+00  0.45593999997E+02  0.45594000000E+02  0.51100000000E-03 0.  1.
         11   -1    0    0    0    0 -0.00000000000E+00 -0.00000000000E+00 -0.45593999997E+02  0.45594000000E+02  0.51100000000E-03 0. -1.
    9900012    2    1    2    0    0 -0.53171790115E+01 -0.39414840525E+02 -0.84477140742E+01  0.50528856879E+02  0.29999990969E+02 0.  0.
        -12    1    1    2    0    0  0.53171790115E+01  0.39414840525E+02  0.84477140742E+01  0.40659143121E+02  0.00000000000E+00 0.  1.
         11    1    3    3    0    0 -0.54142797271E+01  0.31485750940E+01  0.20457685004E+00  0.62665622182E+01  0.51100000000E-03 0.  1.
        -11    1    3    3    0    0  0.33652889134E+01 -0.16587272793E+02 -0.59572861798E+01  0.17943022239E+02  0.51100000000E-03 0. -1.
        -12    1    3    3    0    0 -0.32681881978E+01 -0.25976142826E+02 -0.26950047444E+01  0.26319272421E+02  0.00000000000E+00 0.  1.
</event>
<event>
 7    1  0.2945316E-011  0.5052885E+02  0.7816164E-02  0.1300439E+00
        -11   -1    0    0    0    0  0.00000000000E+00  0.00000000000E+00  0.45593999997E+02  0.45594000000E+02  0.51100000000E-03 0.  1.
         11   -1    0    0    0    0 -0.00000000000E+00 -0.00000000000E+00 -0.45593999997E+02  0.45594000000E+02  0.51100000000E-03 0. -1.
    9900012    2    1    2    0    0  0.39525612372E+02  0.75366248077E+01 -0.58388035840E+01  0.50528851286E+02  0.29999973970E+02 0.  0.
        -12    1    1    2    0    0 -0.39525612372E+02 -0.75366248077E+01  0.58388035840E+01  0.40659148714E+02  0.00000000000E+00 0.  1.
         11    1    3    3    0    0  0.13597541724E+02  0.15715384534E+01 -0.88120864719E+01  0.16279304109E+02  0.51100000000E-03 0. -1.
        -11    1    3    3    0    0  0.24658453088E+01  0.80281929508E+01 -0.45149668868E+01  0.95350512003E+01  0.51100000000E-03 0.  1.
        -12    1    3    3    0    0  0.23462225339E+02 -0.20631065964E+01  0.74882497746E+01  0.24714495977E+02  0.00000000000E+00 0.  1.
</event>
<event>
 7    1  0.2945316E-011  0.5052886E+02  0.7816164E-02  0.1300439E+00
        -11   -1    0    0    0    0  0.00000000000E+00  0.00000000000E+00  0.45593999997E+02  0.45594000000E+02  0.51100000000E-03 0.  1.
         11   -1    0    0    0    0 -0.00000000000E+00 -0.00000000000E+00 -0.45593999997E+02  0.45594000000E+02  0.51100000000E-03 0. -1.
    9900012    2    1    2    0    0 -0.24345502282E+02 -0.13754187565E+02 -0.29517533558E+02  0.50528856572E+02  0.29999990036E+02 0.  0.
        -12    1    1    2    0    0  0.24345502282E+02  0.13754187565E+02  0.29517533558E+02  0.40659143428E+02  0.00000000000E+00 0.  1.
         11    1    3    3    0    0 -0.35396666949E+01 -0.17947075100E+01 -0.10018172960E+01  0.40931471404E+01  0.51100000000E-03 0. -1.
        -11    1    3    3    0    0 -0.54505503282E+01 -0.18910296571E+02 -0.17172790821E+02  0.26119199072E+02  0.51100000000E-03 0.  1.
         12    1    3    3    0    0 -0.15355285259E+02  0.69508165163E+01 -0.11342925441E+02  0.20316510360E+02  0.00000000000E+00 0. -1.
</event>
<event>
 7    1  0.2945316E-011  0.5052886E+02  0.7816164E-02  0.1300439E+00
        -11   -1    0    0    0    0  0.00000000000E+00  0.00000000000E+00  0.45593999997E+02  0.45594000000E+02  0.51100000000E-03 0. -1.
         11   -1    0    0    0    0 -0.00000000000E+00 -0.00000000000E+00 -0.45593999997E+02  0.45594000000E+02  0.51100000000E-03 0.  1.
    9900012    2    1    2    0    0 -0.54555268286E+01 -0.40025419208E+02 -0.46226519737E+01  0.50528857522E+02  0.29999992924E+02 0.  0.
        -12    1    1    2    0    0  0.54555268286E+01  0.40025419208E+02  0.46226519737E+01  0.40659142478E+02  0.00000000000E+00 0.  1.
         11    1    3    3    0    0 -0.12551163415E+02 -0.25705016328E+02 -0.32944152307E+01  0.28794665122E+02  0.51100000000E-03 0. -1.
        -11    1    3    3    0    0  0.77957597932E+00 -0.96777233184E+01  0.56550727816E+01  0.11235920779E+02  0.51100000000E-03 0.  1.
        -12    1    3    3    0    0  0.63160606074E+01 -0.46426795614E+01 -0.69833095246E+01  0.10498271621E+02  0.00000000000E+00 0.  1.
</event>
<event>
 7    1  0.2945316E-011  0.5052886E+02  0.7816164E-02  0.1300439E+00
        -11   -1    0    0    0    0  0.00000000000E+00  0.00000000000E+00  0.45593999997E+02  0.45594000000E+02  0.51100000000E-03 0.  1.
         11   -1    0    0    0    0 -0.00000000000E+00 -0.00000000000E+00 -0.45593999997E+02  0.45594000000E+02  0.51100000000E-03 0. -1.
    9900012    2    1    2    0    0 -0.21305656048E+02 -0.71005044420E+01 -0.33894207406E+02  0.50528862791E+02  0.30000008938E+02 0.  0.
        -12    1    1    2    0    0  0.21305656048E+02  0.71005044420E+01  0.33894207406E+02  0.40659137209E+02  0.00000000000E+00 0.  1.
         11    1    3    3    0    0 -0.17290991358E+02 -0.57453948304E+01 -0.27796477676E+02  0.33236006308E+02  0.51100000000E-03 0. -1.
        -11    1    3    3    0    0 -0.34523513593E+01 -0.43726478886E+01 -0.10523253818E+02  0.11907042061E+02  0.51100000000E-03 0.  1.
        -12    1    3    3    0    0 -0.56231333090E+00  0.30175382770E+01  0.44255240875E+01  0.53858144216E+01  0.00000000000E+00 0.  1.
</event>
<event>
 7    1  0.2945316E-011  0.5052883E+02  0.7816164E-02  0.1300439E+00
        -11   -1    0    0    0    0  0.00000000000E+00  0.00000000000E+00  0.45593999997E+02  0.45594000000E+02  0.51100000000E-03 0.  1.
         11   -1    0    0    0    0 -0.00000000000E+00 -0.00000000000E+00 -0.45593999997E+02  0.45594000000E+02  0.51100000000E-03 0. -1.
    9900012    2    1    2    0    0 -0.26215768672E+02  0.28398607159E+02 -0.12626202159E+02  0.50528826415E+02  0.29999898370E+02 0.  0.
        -12    1    1    2    0    0  0.26215768672E+02 -0.28398607159E+02  0.12626202159E+02  0.40659173585E+02  0.00000000000E+00 0.  1.
         11    1    3    3    0    0 -0.31047264208E+01  0.93549127944E+00 -0.23133126937E+01  0.39832004672E+01  0.51100000000E-03 0. -1.
        -11    1    3    3    0    0 -0.11389623860E+02  0.12944080412E+02  0.92033690693E+01  0.19544174371E+02  0.51100000000E-03 0.  1.
        -12    1    3    3    0    0 -0.11721418392E+02  0.14519035468E+02 -0.19516258535E+02  0.27001451576E+02  0.00000000000E+00 0.  1.
</event>
<event>
 7    1  0.2945316E-011  0.5052884E+02  0.7816164E-02  0.1300439E+00
        -11   -1    0    0    0    0  0.00000000000E+00  0.00000000000E+00  0.45593999997E+02  0.45594000000E+02  0.51100000000E-03 0. -1.
         11   -1    0    0    0    0 -0.00000000000E+00 -0.00000000000E+00 -0.45593999997E+02  0.45594000000E+02  0.51100000000E-03 0.  1.
    9900012    2    1    2    0    0 -0.16859625234E+02 -0.10051160444E+02  0.35607503379E+02  0.50528842530E+02  0.29999947353E+02 0.  0.
        -12    1    1    2    0    0  0.16859625234E+02  0.10051160444E+02 -0.35607503379E+02  0.40659157470E+02  0.00000000000E+00 0.  1.
         11    1    3    3    0    0 -0.11636207363E+02 -0.63958599900E+01  0.32238044629E+01  0.13663867033E+02  0.51100000000E-03 0. -1.
        -11    1    3    3    0    0  0.28025055566E+00 -0.55804024139E+01  0.20119731592E+01  0.59386419095E+01  0.51100000000E-03 0.  1.
        -12    1    3    3    0    0 -0.55036684258E+01  0.19251019596E+01  0.30371725757E+02  0.30926333587E+02  0.00000000000E+00 0.  1.
</event>
<event>
 7    1  0.2945316E-011  0.5052886E+02  0.7816164E-02  0.1300439E+00
        -11   -1    0    0    0    0  0.00000000000E+00  0.00000000000E+00  0.45593999997E+02  0.45594000000E+02  0.51100000000E-03 0.  1.
         11   -1    0    0    0    0 -0.00000000000E+00 -0.00000000000E+00 -0.45593999997E+02  0.45594000000E+02  0.51100000000E-03 0. -1.
    9900012    2    1    2    0    0 -0.11181549565E+02 -0.17859647460E+02 -0.34773143168E+02  0.50528861496E+02  0.30000005004E+02 0.  0.
        -12    1    1    2    0    0  0.11181549565E+02  0.17859647460E+02  0.34773143168E+02  0.40659138504E+02  0.00000000000E+00 0.  1.
         11    1    3    3    0    0  0.68367742334E+00 -0.15283118605E+02 -0.12052233229E+02  0.19475560459E+02  0.51100000000E-03 0. -1.
        -11    1    3    3    0    0  0.30105889953E+01 -0.26919180232E+00 -0.12493720697E+02  0.12854149814E+02  0.51100000000E-03 0.  1.
        -12    1    3    3    0    0 -0.14875815984E+02 -0.23073370530E+01 -0.10227189242E+02  0.18199151224E+02  0.00000000000E+00 0.  1.
</event>
<event>
 7    1  0.2945316E-011  0.5052886E+02  0.7816164E-02  0.1300439E+00
        -11   -1    0    0    0    0  0.00000000000E+00  0.00000000000E+00  0.45593999997E+02  0.45594000000E+02  0.51100000000E-03 0.  1.
         11   -1    0    0    0    0 -0.00000000000E+00 -0.00000000000E+00 -0.45593999997E+02  0.45594000000E+02  0.51100000000E-03 0. -1.
    9900012    2    1    2    0    0  0.28622961268E+02 -0.28773074019E+02 -0.24498241055E+01  0.50528864023E+02  0.30000012685E+02 0.  0.
        -12    1    1    2    0    0 -0.28622961268E+02  0.28773074019E+02  0.24498241055E+01  0.40659135977E+02  0.00000000000E+00 0.  1.
         11    1    3    3    0    0  0.18245207350E+02 -0.47094778584E+01 -0.80081581623E+01  0.20474310009E+02  0.51100000000E-03 0. -1.
        -11    1    3    3    0    0 -0.73502698974E+00  0.14348126840E+01 -0.27297088697E+00  0.16350735396E+01  0.51100000000E-03 0.  1.
        -12    1    3    3    0    0  0.11112780908E+02 -0.25498408844E+02  0.58313049438E+01  0.28419480474E+02  0.00000000000E+00 0.  1.
</event>
<event>
 7    1  0.2945316E-011  0.5052887E+02  0.7816164E-02  0.1300439E+00
        -11   -1    0    0    0    0  0.00000000000E+00  0.00000000000E+00  0.45593999997E+02  0.45594000000E+02  0.51100000000E-03 0. -1.
         11   -1    0    0    0    0 -0.00000000000E+00 -0.00000000000E+00 -0.45593999997E+02  0.45594000000E+02  0.51100000000E-03 0.  1.
    9900012    2    1    2    0    0 -0.63743859644E+01 -0.23201818720E+02  0.32775104055E+02  0.50528872683E+02  0.30000039007E+02 0.  0.
        -12    1    1    2    0    0  0.63743859644E+01  0.23201818720E+02 -0.32775104055E+02  0.40659127317E+02  0.00000000000E+00 0.  1.
         11    1    3    3    0    0  0.73609002449E+01 -0.20818171575E+02  0.15294412024E+02  0.26860717778E+02  0.51100000000E-03 0.  1.
        -11    1    3    3    0    0 -0.77936997428E+01 -0.48323065832E+01  0.12671136152E+02  0.15641311781E+02  0.51100000000E-03 0. -1.
        -12    1    3    3    0    0 -0.59415864665E+01  0.24486594377E+01  0.48095558799E+01  0.80268431243E+01  0.00000000000E+00 0.  1.
</event>
<event>
 7    1  0.2945316E-011  0.5052887E+02  0.7816164E-02  0.1300439E+00
        -11   -1    0    0    0    0  0.00000000000E+00  0.00000000000E+00  0.45593999997E+02  0.45594000000E+02  0.51100000000E-03 0.  1.
         11   -1    0    0    0    0 -0.00000000000E+00 -0.00000000000E+00 -0.45593999997E+02  0.45594000000E+02  0.51100000000E-03 0. -1.
    9900012    2    1    2    0    0 -0.17983635474E+02  0.22755892548E+02 -0.28494265964E+02  0.50528868389E+02  0.30000025956E+02 0.  0.
        -12    1    1    2    0    0  0.17983635474E+02 -0.22755892548E+02  0.28494265964E+02  0.40659131611E+02  0.00000000000E+00 0.  1.
         11    1    3    3    0    0 -0.20331215443E+01  0.21535044410E+02 -0.79275192750E+01  0.23037736067E+02  0.51100000000E-03 0. -1.
        -11    1    3    3    0    0 -0.80529251262E+01  0.40095408440E+01 -0.14809816035E+02  0.17327915977E+02  0.51100000000E-03 0.  1.
        -12    1    3    3    0    0 -0.78975888036E+01 -0.27886927065E+01 -0.57569306542E+01  0.10163216345E+02  0.00000000000E+00 0.  1.
</event>
<event>
 7    1  0.2945316E-011  0.5052888E+02  0.7816164E-02  0.1300439E+00
        -11   -1    0    0    0    0  0.00000000000E+00  0.00000000000E+00  0.45593999997E+02  0.45594000000E+02  0.51100000000E-03 0.  1.
         11   -1    0    0    0    0 -0.00000000000E+00 -0.00000000000E+00 -0.45593999997E+02  0.45594000000E+02  0.51100000000E-03 0. -1.
    9900012    2    1    2    0    0  0.64955574885E+01 -0.30365847742E+02 -0.26246651473E+02  0.50528884297E+02  0.30000074310E+02 0.  0.
        -12    1    1    2    0    0 -0.64955574885E+01  0.30365847742E+02  0.26246651473E+02  0.40659115703E+02  0.00000000000E+00 0.  1.
         11    1    3    3    0    0  0.28607392193E+01 -0.96757807547E+01 -0.24960932553E+01  0.10393990759E+02  0.51100000000E-03 0. -1.
        -11    1    3    3    0    0  0.76306318487E+01 -0.21790185830E+02 -0.89444794217E+01  0.24759694128E+02  0.51100000000E-03 0.  1.
        -12    1    3    3    0    0 -0.39958135795E+01  0.11001188419E+01 -0.14806078795E+02  0.15375199411E+02  0.00000000000E+00 0.  1.
</event>
<event>
 7    1  0.2945316E-011  0.5052886E+02  0.7816164E-02  0.1300439E+00
        -11   -1    0    0    0    0  0.00000000000E+00  0.00000000000E+00  0.45593999997E+02  0.45594000000E+02  0.51100000000E-03 0.  1.
         11   -1    0    0    0    0 -0.00000000000E+00 -0.00000000000E+00 -0.45593999997E+02  0.45594000000E+02  0.51100000000E-03 0. -1.
    9900012    2    1    2    0    0  0.25095249577E+02 -0.19502779182E+02 -0.25358149033E+02  0.50528859951E+02  0.30000000306E+02 0.  0.
        -12    1    1    2    0    0 -0.25095249577E+02  0.19502779182E+02  0.25358149033E+02  0.40659140049E+02  0.00000000000E+00 0.  1.
         11    1    3    3    0    0  0.10175692009E+02 -0.41555174700E+01 -0.24513025341E+01  0.11261523772E+02  0.51100000000E-03 0. -1.
        -11    1    3    3    0    0  0.16599974480E+00 -0.11688697293E+02  0.10269219817E+00  0.11690327038E+02  0.51100000000E-03 0.  1.
        -12    1    3    3    0    0  0.14753557824E+02 -0.36585644198E+01 -0.23009538697E+02  0.27577009140E+02  0.00000000000E+00 0.  1.
</event>
<event>
 7    1  0.2945316E-011  0.5052882E+02  0.7816164E-02  0.1300439E+00
        -11   -1    0    0    0    0  0.00000000000E+00  0.00000000000E+00  0.45593999997E+02  0.45594000000E+02  0.51100000000E-03 0. -1.
         11   -1    0    0    0    0 -0.00000000000E+00 -0.00000000000E+00 -0.45593999997E+02  0.45594000000E+02  0.51100000000E-03 0.  1.
    9900012    2    1    2    0    0  0.23668717439E+00 -0.39241897251E+01  0.40468678682E+02  0.50528816042E+02  0.29999866842E+02 0.  0.
        -12    1    1    2    0    0 -0.23668717439E+00  0.39241897251E+01 -0.40468678682E+02  0.40659183958E+02  0.00000000000E+00 0.  1.
         11    1    3    3    0    0 -0.10003059657E+02 -0.53476613749E+01  0.33530986287E+02  0.35397538421E+02  0.51100000000E-03 0. -1.
        -11    1    3    3    0    0 -0.44189320242E+00 -0.12958622589E+01  0.32197620609E+01  0.34987707250E+01  0.51100000000E-03 0.  1.
        -12    1    3    3    0    0  0.10681640034E+02  0.27193339087E+01  0.37179303346E+01  0.11632506896E+02  0.00000000000E+00 0.  1.
</event>
<event>
 7    1  0.2945316E-011  0.5052887E+02  0.7816164E-02  0.1300439E+00
        -11   -1    0    0    0    0  0.00000000000E+00  0.00000000000E+00  0.45593999997E+02  0.45594000000E+02  0.51100000000E-03 0.  1.
         11   -1    0    0    0    0 -0.00000000000E+00 -0.00000000000E+00 -0.45593999997E+02  0.45594000000E+02  0.51100000000E-03 0. -1.
    9900012    2    1    2    0    0  0.25930973228E+02  0.10091643144E+02 -0.29646383813E+02  0.50528871786E+02  0.30000036282E+02 0.  0.
        -12    1    1    2    0    0 -0.25930973228E+02 -0.10091643144E+02  0.29646383813E+02  0.40659128214E+02  0.00000000000E+00 0.  1.
         11    1    3    3    0    0  0.24070181078E+01 -0.16998094279E+01 -0.54765939287E+01  0.62190167698E+01  0.51100000000E-03 0. -1.
        -11    1    3    3    0    0  0.10950569660E+02 -0.62643292448E+01 -0.14770348807E+01  0.12701906513E+02  0.51100000000E-03 0.  1.
         12    1    3    3    0    0  0.12573385460E+02  0.18055781816E+02 -0.22692755004E+02  0.31607948503E+02  0.00000000000E+00 0. -1.
</event>
<event>
 7    1  0.2945316E-011  0.5052890E+02  0.7816164E-02  0.1300439E+00
        -11   -1    0    0    0    0  0.00000000000E+00  0.00000000000E+00  0.45593999997E+02  0.45594000000E+02  0.51100000000E-03 0.  1.
         11   -1    0    0    0    0 -0.00000000000E+00 -0.00000000000E+00 -0.45593999997E+02  0.45594000000E+02  0.51100000000E-03 0. -1.
    9900012    2    1    2    0    0  0.94583424992E+00 -0.36667785642E+02 -0.17542554236E+02  0.50528901197E+02  0.30000125679E+02 0.  0.
        -12    1    1    2    0    0 -0.94583424992E+00  0.36667785642E+02  0.17542554236E+02  0.40659098803E+02  0.00000000000E+00 0.  1.
         11    1    3    3    0    0 -0.11468338312E+01 -0.21537704107E+02 -0.19806393238E+02  0.29282778888E+02  0.51100000000E-03 0. -1.
        -11    1    3    3    0    0 -0.83193136424E+00  0.24355064575E+01 -0.15917257183E+01  0.30261183921E+01  0.51100000000E-03 0.  1.
        -12    1    3    3    0    0  0.29245994453E+01 -0.17565587992E+02  0.38555647204E+01  0.18220003917E+02  0.00000000000E+00 0.  1.
</event>
<event>
 7    1  0.2945316E-011  0.5052885E+02  0.7816164E-02  0.1300439E+00
        -11   -1    0    0    0    0  0.00000000000E+00  0.00000000000E+00  0.45593999997E+02  0.45594000000E+02  0.51100000000E-03 0.  1.
         11   -1    0    0    0    0 -0.00000000000E+00 -0.00000000000E+00 -0.45593999997E+02  0.45594000000E+02  0.51100000000E-03 0. -1.
    9900012    2    1    2    0    0 -0.26954073441E+01  0.31018905866E+02 -0.26148208383E+02  0.50528849203E+02  0.29999967638E+02 0.  0.
        -12    1    1    2    0    0  0.26954073441E+01 -0.31018905866E+02  0.26148208383E+02  0.40659150797E+02  0.00000000000E+00 0.  1.
         11    1    3    3    0    0 -0.69128005197E+01  0.70804964843E+01 -0.82566866813E+00  0.99298524913E+01  0.51100000000E-03 0. -1.
        -11    1    3    3    0    0  0.21416328997E+01 -0.21035089961E+01 -0.97130312055E+01  0.10166332526E+02  0.51100000000E-03 0.  1.
         12    1    3    3    0    0  0.20757602759E+01  0.26041918378E+02 -0.15609508510E+02  0.30432664186E+02  0.00000000000E+00 0. -1.
</event>
<event>
 7    1  0.2945316E-011  0.5052886E+02  0.7816164E-02  0.1300439E+00
        -11   -1    0    0    0    0  0.00000000000E+00  0.00000000000E+00  0.45593999997E+02  0.45594000000E+02  0.51100000000E-03 0.  1.
         11   -1    0    0    0    0 -0.00000000000E+00 -0.00000000000E+00 -0.45593999997E+02  0.45594000000E+02  0.51100000000E-03 0. -1.
    9900012    2    1    2    0    0  0.19951529786E+02  0.32578922117E+02  0.13918182113E+02  0.50528862030E+02  0.30000006626E+02 0.  0.
        -12    1    1    2    0    0 -0.19951529786E+02 -0.32578922117E+02 -0.13918182113E+02  0.40659137970E+02  0.00000000000E+00 0.  1.
         11    1    3    3    0    0  0.17044006761E+02  0.40380854734E+01  0.67305515800E+00  0.17528756495E+02  0.51100000000E-03 0.  1.
        -11    1    3    3    0    0  0.44128791452E+01  0.51526822300E+01  0.32187899390E+01  0.75089443630E+01  0.51100000000E-03 0. -1.
        -12    1    3    3    0    0 -0.15053561197E+01  0.23388154414E+02  0.10026337016E+02  0.25491161172E+02  0.00000000000E+00 0.  1.
</event>
<event>
 7    1  0.2945316E-011  0.5052886E+02  0.7816164E-02  0.1300439E+00
        -11   -1    0    0    0    0  0.00000000000E+00  0.00000000000E+00  0.45593999997E+02  0.45594000000E+02  0.51100000000E-03 0.  1.
         11   -1    0    0    0    0 -0.00000000000E+00 -0.00000000000E+00 -0.45593999997E+02  0.45594000000E+02  0.51100000000E-03 0. -1.
    9900012    2    1    2    0    0  0.13710102429E+02 -0.30772300930E+02 -0.22765415203E+02  0.50528861513E+02  0.30000005056E+02 0.  0.
        -12    1    1    2    0    0 -0.13710102429E+02  0.30772300930E+02  0.22765415203E+02  0.40659138487E+02  0.00000000000E+00 0.  1.
         11    1    3    3    0    0  0.60592365483E+01 -0.13902835796E+02  0.86191142400E+00  0.15190328577E+02  0.51100000000E-03 0. -1.
        -11    1    3    3    0    0 -0.18962967024E+01 -0.17368751784E+01  0.25559238233E+01  0.36256617907E+01  0.51100000000E-03 0.  1.
        -12    1    3    3    0    0  0.95471625827E+01 -0.15132589956E+02 -0.26183250450E+02  0.31712871146E+02  0.00000000000E+00 0.  1.
</event>
<event>
 7    1  0.2945316E-011  0.5052889E+02  0.7816164E-02  0.1300439E+00
        -11   -1    0    0    0    0  0.00000000000E+00  0.00000000000E+00  0.45593999997E+02  0.45594000000E+02  0.51100000000E-03 0.  1.
         11   -1    0    0    0    0 -0.00000000000E+00 -0.00000000000E+00 -0.45593999997E+02  0.45594000000E+02  0.51100000000E-03 0. -1.
    9900012    2    1    2    0    0  0.38916389528E+01  0.30884217661E+02 -0.26156901814E+02  0.50528889498E+02  0.30000090118E+02 0.  0.
        -12    1    1    2    0    0 -0.38916389528E+01 -0.30884217661E+02  0.26156901814E+02  0.40659110502E+02  0.00000000000E+00 0.  1.
         11    1    3    3    0    0 -0.47191339403E+01  0.90447622912E+01 -0.11609781708E+02  0.15455257411E+02  0.51100000000E-03 0. -1.
        -11    1    3    3    0    0 -0.40848346322E+01  0.49587870555E+01 -0.12243147188E+02  0.13826427462E+02  0.51100000000E-03 0.  1.
        -12    1    3    3    0    0  0.12695607525E+02  0.16880668315E+02 -0.23039729183E+01  0.21247204625E+02  0.00000000000E+00 0.  1.
</event>
<event>
 7    1  0.2945316E-011  0.5052886E+02  0.7816164E-02  0.1300439E+00
        -11   -1    0    0    0    0  0.00000000000E+00  0.00000000000E+00  0.45593999997E+02  0.45594000000E+02  0.51100000000E-03 0. -1.
         11   -1    0    0    0    0 -0.00000000000E+00 -0.00000000000E+00 -0.45593999997E+02  0.45594000000E+02  0.51100000000E-03 0.  1.
    9900012    2    1    2    0    0  0.25073154608E+02  0.18661148712E+02  0.26005085005E+02  0.50528855894E+02  0.29999987977E+02 0.  0.
        -12    1    1    2    0    0 -0.25073154608E+02 -0.18661148712E+02 -0.26005085005E+02  0.40659144106E+02  0.00000000000E+00 0.  1.
         11    1    3    3    0    0  0.28557007423E+01 -0.75400377522E+00  0.60892124712E+01  0.67677217144E+01  0.51100000000E-03 0. -1.
        -11    1    3    3    0    0  0.36308992359E+01 -0.24147909132E+01  0.13763564854E+02  0.14437810159E+02  0.51100000000E-03 0.  1.
        -12    1    3    3    0    0  0.18586554630E+02  0.21829943401E+02  0.61523076800E+01  0.29323324022E+02  0.00000000000E+00 0.  1.
</event>
<event>
 7    1  0.2945316E-011  0.5052886E+02  0.7816164E-02  0.1300439E+00
        -11   -1    0    0    0    0  0.00000000000E+00  0.00000000000E+00  0.45593999997E+02  0.45594000000E+02  0.51100000000E-03 0.  1.
         11   -1    0    0    0    0 -0.00000000000E+00 -0.00000000000E+00 -0.45593999997E+02  0.45594000000E+02  0.51100000000E-03 0. -1.
    9900012    2    1    2    0    0 -0.61554203777E+01  0.40087529584E+02 -0.28751034737E+01  0.50528862673E+02  0.30000008582E+02 0.  0.
        -12    1    1    2    0    0  0.61554203777E+01 -0.40087529584E+02  0.28751034737E+01  0.40659137327E+02  0.00000000000E+00 0.  1.
         11    1    3    3    0    0 -0.88492447852E+01  0.14862368663E+02 -0.12942200776E+02  0.21603233479E+02  0.51100000000E-03 0. -1.
        -11    1    3    3    0    0  0.10553359671E+01 -0.61747456150E+00  0.46205907319E+00  0.13070989579E+01  0.51100000000E-03 0.  1.
         12    1    3    3    0    0  0.16384884404E+01  0.25842635483E+02  0.96050382296E+01  0.27618530237E+02  0.00000000000E+00 0. -1.
</event>
<event>
 7    1  0.2945316E-011  0.5052886E+02  0.7816164E-02  0.1300439E+00
        -11   -1    0    0    0    0  0.00000000000E+00  0.00000000000E+00  0.45593999997E+02  0.45594000000E+02  0.51100000000E-03 0.  1.
         11   -1    0    0    0    0 -0.00000000000E+00 -0.00000000000E+00 -0.45593999997E+02  0.45594000000E+02  0.51100000000E-03 0. -1.
    9900012    2    1    2    0    0 -0.49247432287E+01  0.19434968893E+02 -0.35372224931E+02  0.50528863163E+02  0.30000010070E+02 0.  0.
        -12    1    1    2    0    0  0.49247432287E+01 -0.19434968893E+02  0.35372224931E+02  0.40659136837E+02  0.00000000000E+00 0.  1.
         11    1    3    3    0    0 -0.28850638025E+01  0.85919021089E+01 -0.13713183763E+02  0.16437633168E+02  0.51100000000E-03 0. -1.
        -11    1    3    3    0    0 -0.36147969492E+01  0.44656211407E+01  0.43875398601E+01  0.72290411150E+01  0.51100000000E-03 0.  1.
         12    1    3    3    0    0  0.15751175230E+01  0.63774456431E+01 -0.26046581029E+02  0.26862188880E+02  0.00000000000E+00 0. -1.
</event>
<event>
 7    1  0.2945316E-011  0.5052885E+02  0.7816164E-02  0.1300439E+00
        -11   -1    0    0    0    0  0.00000000000E+00  0.00000000000E+00  0.45593999997E+02  0.45594000000E+02  0.51100000000E-03 0. -1.
         11   -1    0    0    0    0 -0.00000000000E+00 -0.00000000000E+00 -0.45593999997E+02  0.45594000000E+02  0.51100000000E-03 0.  1.
    9900012    2    1    2    0    0 -0.17037013223E+02  0.17243528644E+01  0.36877273018E+02  0.50528850014E+02  0.29999970102E+02 0.  0.
        -12    1    1    2    0    0  0.17037013223E+02 -0.17243528644E+01 -0.36877273018E+02  0.40659149986E+02  0.00000000000E+00 0.  1.
         11    1    3    3    0    0 -0.52834787283E+01 -0.73130111100E+00  0.30077903418E+01  0.61234591359E+01  0.51100000000E-03 0. -1.
        -11    1    3    3    0    0  0.15019127754E+00  0.99668078043E+00 -0.42894329065E+01  0.44062642815E+01  0.51100000000E-03 0.  1.
        -12    1    3    3    0    0 -0.11903725772E+02  0.14589731950E+01  0.38158915583E+02  0.39999126596E+02  0.00000000000E+00 0.  1.
</event>
<event>
 7    1  0.2945316E-011  0.5052890E+02  0.7816164E-02  0.1300439E+00
        -11   -1    0    0    0    0  0.00000000000E+00  0.00000000000E+00  0.45593999997E+02  0.45594000000E+02  0.51100000000E-03 0.  1.
         11   -1    0    0    0    0 -0.00000000000E+00 -0.00000000000E+00 -0.45593999997E+02  0.45594000000E+02  0.51100000000E-03 0. -1.
    9900012    2    1    2    0    0  0.10268710487E+02 -0.37841004337E+02 -0.10759862084E+02  0.50528897005E+02  0.30000112937E+02 0.  0.
        -12    1    1    2    0    0 -0.10268710487E+02  0.37841004337E+02  0.10759862084E+02  0.40659102995E+02  0.00000000000E+00 0.  1.
         11    1    3    3    0    0  0.63642226693E+01 -0.10015754230E+02 -0.65621188453E+01  0.13560238456E+02  0.51100000000E-03 0. -1.
        -11    1    3    3    0    0  0.83703741620E+00 -0.15457183833E+02 -0.14015809968E+02  0.20882243486E+02  0.51100000000E-03 0.  1.
        -12    1    3    3    0    0  0.30674504012E+01 -0.12368066273E+02  0.98180667284E+01  0.16086415063E+02  0.00000000000E+00 0.  1.
</event>
<event>
 7    1  0.2945316E-011  0.5052887E+02  0.7816164E-02  0.1300439E+00
        -11   -1    0    0    0    0  0.00000000000E+00  0.00000000000E+00  0.45593999997E+02  0.45594000000E+02  0.51100000000E-03 0. -1.
         11   -1    0    0    0    0 -0.00000000000E+00 -0.00000000000E+00 -0.45593999997E+02  0.45594000000E+02  0.51100000000E-03 0.  1.
    9900012    2    1    2    0    0  0.20981759671E+02 -0.23987136415E+02 -0.25249716650E+02  0.50528866423E+02  0.30000019981E+02 0.  0.
        -12    1    1    2    0    0 -0.20981759671E+02  0.23987136415E+02  0.25249716650E+02  0.40659133577E+02  0.00000000000E+00 0.  1.
         11    1    3    3    0    0  0.21430879475E+01 -0.11911929201E+02 -0.57103526958E+01  0.13382638432E+02  0.51100000000E-03 0. -1.
        -11    1    3    3    0    0  0.17528996759E+02 -0.15573027800E+02 -0.22410847097E+02  0.32435027210E+02  0.51100000000E-03 0.  1.
         12    1    3    3    0    0  0.13096749647E+01  0.34978205854E+01  0.28714831432E+01  0.47112007814E+01  0.00000000000E+00 0. -1.
</event>
<event>
 7    1  0.2945316E-011  0.5052871E+02  0.7816164E-02  0.1300439E+00
        -11   -1    0    0    0    0  0.00000000000E+00  0.00000000000E+00  0.45593999997E+02  0.45594000000E+02  0.51100000000E-03 0.  1.
         11   -1    0    0    0    0 -0.00000000000E+00 -0.00000000000E+00 -0.45593999997E+02  0.45594000000E+02  0.51100000000E-03 0. -1.
    9900012    2    1    2    0    0 -0.29044133272E+02  0.62107188248E+01 -0.27767657345E+02  0.50528714465E+02  0.29999558083E+02 0.  0.
        -12    1    1    2    0    0  0.29044133272E+02 -0.62107188248E+01  0.27767657345E+02  0.40659285535E+02  0.00000000000E+00 0.  1.
         11    1    3    3    0    0 -0.15850608477E+02  0.20941667434E+01 -0.18987196790E+02  0.24822186964E+02  0.51100000000E-03 0. -1.
        -11    1    3    3    0    0 -0.10676774332E+02 -0.39940655602E+01 -0.12067612755E+02  0.16600402035E+02  0.51100000000E-03 0.  1.
         12    1    3    3    0    0 -0.25167504621E+01  0.81106176417E+01  0.32871522003E+01  0.91061254662E+01  0.00000000000E+00 0. -1.
</event>
<event>
 7    1  0.2945316E-011  0.5052887E+02  0.7816164E-02  0.1300439E+00
        -11   -1    0    0    0    0  0.00000000000E+00  0.00000000000E+00  0.45593999997E+02  0.45594000000E+02  0.51100000000E-03 0.  1.
         11   -1    0    0    0    0 -0.00000000000E+00 -0.00000000000E+00 -0.45593999997E+02  0.45594000000E+02  0.51100000000E-03 0. -1.
    9900012    2    1    2    0    0 -0.26918659485E+02  0.15697982724E+02 -0.26117504813E+02  0.50528868827E+02  0.30000027287E+02 0.  0.
        -12    1    1    2    0    0  0.26918659485E+02 -0.15697982724E+02  0.26117504813E+02  0.40659131173E+02  0.00000000000E+00 0.  1.
         11    1    3    3    0    0  0.30417396842E+01  0.76266380901E+00  0.37699427240E+00  0.31584745265E+01  0.51100000000E-03 0. -1.
        -11    1    3    3    0    0 -0.54561382423E+00  0.42199516091E+01 -0.12265679725E+02  0.12982780342E+02  0.51100000000E-03 0.  1.
         12    1    3    3    0    0 -0.29414785345E+02  0.10715367306E+02 -0.14228819361E+02  0.34387613959E+02  0.00000000000E+00 0. -1.
</event>
<event>
 7    1  0.2945316E-011  0.5052889E+02  0.7816164E-02  0.1300439E+00
        -11   -1    0    0    0    0  0.00000000000E+00  0.00000000000E+00  0.45593999997E+02  0.45594000000E+02  0.51100000000E-03 0. -1.
         11   -1    0    0    0    0 -0.00000000000E+00 -0.00000000000E+00 -0.45593999997E+02  0.45594000000E+02  0.51100000000E-03 0.  1.
    9900012    2    1    2    0    0  0.14569628136E+02  0.34506327127E+02  0.15817803111E+02  0.50528885757E+02  0.30000078746E+02 0.  0.
        -12    1    1    2    0    0 -0.14569628136E+02 -0.34506327127E+02 -0.15817803111E+02  0.40659114243E+02  0.00000000000E+00 0.  1.
         11    1    3    3    0    0 -0.27510445235E+01  0.84229830721E+00 -0.15446334180E+01  0.32655175801E+01  0.51100000000E-03 0. -1.
        -11    1    3    3    0    0 -0.30538419220E+01  0.48423457708E+01  0.95165697210E+01  0.11105825614E+02  0.51100000000E-03 0.  1.
         12    1    3    3    0    0  0.20374514582E+02  0.28821683049E+02  0.78458668079E+01  0.36157542563E+02  0.00000000000E+00 0. -1.
</event>
<event>
 7    1  0.2945316E-011  0.5052886E+02  0.7816164E-02  0.1300439E+00
        -11   -1    0    0    0    0  0.00000000000E+00  0.00000000000E+00  0.45593999997E+02  0.45594000000E+02  0.51100000000E-03 0.  1.
         11   -1    0    0    0    0 -0.00000000000E+00 -0.00000000000E+00 -0.45593999997E+02  0.45594000000E+02  0.51100000000E-03 0. -1.
    9900012    2    1    2    0    0  0.19902710271E+02  0.97044431941E+01 -0.34100903284E+02  0.50528859593E+02  0.29999999220E+02 0.  0.
        -12    1    1    2    0    0 -0.19902710271E+02 -0.97044431941E+01  0.34100903284E+02  0.40659140407E+02  0.00000000000E+00 0.  1.
         11    1    3    3    0    0 -0.39645509823E+01  0.59176047897E+01 -0.77558224426E+01  0.10530360533E+02  0.51100000000E-03 0. -1.
        -11    1    3    3    0    0  0.32616769095E+01 -0.63093536060E+01 -0.72105632083E+01  0.10121200582E+02  0.51100000000E-03 0.  1.
         12    1    3    3    0    0  0.20605584344E+02  0.10096192010E+02 -0.19134517633E+02  0.29877298478E+02  0.00000000000E+00 0. -1.
</event>
<event>
 7    1  0.2945316E-011  0.5052892E+02  0.7816164E-02  0.1300439E+00
        -11   -1    0    0    0    0  0.00000000000E+00  0.00000000000E+00  0.45593999997E+02  0.45594000000E+02  0.51100000000E-03 0. -1.
         11   -1    0    0    0    0 -0.00000000000E+00 -0.00000000000E+00 -0.45593999997E+02  0.45594000000E+02  0.51100000000E-03 0.  1.
    9900012    2    1    2    0    0  0.21638736598E+02  0.76315815898E+01  0.33566122255E+02  0.50528923248E+02  0.30000192703E+02 0.  0.
        -12    1    1    2    0    0 -0.21638736598E+02 -0.76315815898E+01 -0.33566122255E+02  0.40659076752E+02  0.00000000000E+00 0.  1.
         11    1    3    3    0    0  0.21844311572E+00  0.17912586841E+01 -0.57189005162E+00  0.18929827153E+01  0.51100000000E-03 0. -1.
        -11    1    3    3    0    0  0.61586697571E+00  0.94775689474E+01  0.12909290327E+01  0.95848893219E+01  0.51100000000E-03 0.  1.
         12    1    3    3    0    0  0.20804426507E+02 -0.36372460416E+01  0.32847083274E+02  0.39051051210E+02  0.00000000000E+00 0. -1.
</event>
<event>
 7    1  0.2945316E-011  0.5052886E+02  0.7816164E-02  0.1300439E+00
        -11   -1    0    0    0    0  0.00000000000E+00  0.00000000000E+00  0.45593999997E+02  0.45594000000E+02  0.51100000000E-03 0.  1.
         11   -1    0    0    0    0 -0.00000000000E+00 -0.00000000000E+00 -0.45593999997E+02  0.45594000000E+02  0.51100000000E-03 0. -1.
    9900012    2    1    2    0    0 -0.16518822722E+02  0.19721772090E+02 -0.31485639571E+02  0.50528864523E+02  0.30000014204E+02 0.  0.
        -12    1    1    2    0    0  0.16518822722E+02 -0.19721772090E+02  0.31485639571E+02  0.40659135477E+02  0.00000000000E+00 0.  1.
         11    1    3    3    0    0  0.36933071463E+01  0.45226669573E+01 -0.36644648033E+01  0.68937171859E+01  0.51100000000E-03 0. -1.
        -11    1    3    3    0    0  0.40421189202E+01  0.67417364894E+01 -0.53690887825E+01  0.95192883596E+01  0.51100000000E-03 0.  1.
         12    1    3    3    0    0 -0.24254248789E+02  0.84573686437E+01 -0.22452085986E+02  0.34115858978E+02  0.00000000000E+00 0. -1.
</event>
<event>
 7    1  0.2945316E-011  0.5052885E+02  0.7816164E-02  0.1300439E+00
        -11   -1    0    0    0    0  0.00000000000E+00  0.00000000000E+00  0.45593999997E+02  0.45594000000E+02  0.51100000000E-03 0. -1.
         11   -1    0    0    0    0 -0.00000000000E+00 -0.00000000000E+00 -0.45593999997E+02  0.45594000000E+02  0.51100000000E-03 0.  1.
    9900012    2    1    2    0    0 -0.12042798256E+02  0.25424798677E+02  0.29355018088E+02  0.50528850174E+02  0.29999970589E+02 0.  0.
        -12    1    1    2    0    0  0.12042798256E+02 -0.25424798677E+02 -0.29355018088E+02  0.40659149826E+02  0.00000000000E+00 0.  1.
         11    1    3    3    0    0 -0.95072189842E+01  0.12018207976E+01  0.50270013382E+01  0.10821382941E+02  0.51100000000E-03 0. -1.
        -11    1    3    3    0    0 -0.66745766898E+00 -0.31504041224E+01  0.29622326889E+00  0.32339286264E+01  0.51100000000E-03 0.  1.
         12    1    3    3    0    0 -0.18681216027E+01  0.27373382002E+02  0.24031793481E+02  0.36473538606E+02  0.00000000000E+00 0. -1.
</event>
<event>
 7    1  0.2945316E-011  0.5052887E+02  0.7816164E-02  0.1300439E+00
        -11   -1    0    0    0    0  0.00000000000E+00  0.00000000000E+00  0.45593999997E+02  0.45594000000E+02  0.51100000000E-03 0.  1.
         11   -1    0    0    0    0 -0.00000000000E+00 -0.00000000000E+00 -0.45593999997E+02  0.45594000000E+02  0.51100000000E-03 0. -1.
    9900012    2    1    2    0    0 -0.23460235748E+02  0.50818106548E+01 -0.32817024765E+02  0.50528873407E+02  0.30000041206E+02 0.  0.
        -12    1    1    2    0    0  0.23460235748E+02 -0.50818106548E+01  0.32817024765E+02  0.40659126593E+02  0.00000000000E+00 0.  1.
         11    1    3    3    0    0 -0.12348730811E+02  0.12328925410E+02 -0.10327406220E+02  0.20276806305E+02  0.51100000000E-03 0. -1.
        -11    1    3    3    0    0  0.21680557588E+01 -0.19978503247E+01  0.68933468305E+00  0.30277143623E+01  0.51100000000E-03 0.  1.
        -12    1    3    3    0    0 -0.13279560696E+02 -0.52492644306E+01 -0.23178953228E+02  0.27224352740E+02  0.00000000000E+00 0.  1.
</event>
<event>
 7    1  0.3104095E-011  0.5052885E+02  0.7816164E-02  0.1300439E+00
        -11   -1    0    0    0    0  0.00000000000E+00  0.00000000000E+00  0.45593999997E+02  0.45594000000E+02  0.51100000000E-03 0. -1.
         11   -1    0    0    0    0 -0.00000000000E+00 -0.00000000000E+00 -0.45593999997E+02  0.45594000000E+02  0.51100000000E-03 0.  1.
    9900012    2    1    2    0    0  0.40248980827E+02  0.24247752308E+01  0.52255844197E+01  0.50528846971E+02  0.29999960852E+02 0.  0.
        -12    1    1    2    0    0 -0.40248980827E+02 -0.24247752308E+01 -0.52255844197E+01  0.40659153029E+02  0.00000000000E+00 0.  1.
         11    1    3    3    0    0  0.10134754800E+02  0.79986870320E+01 -0.31527276104E+01  0.13290294983E+02  0.51100000000E-03 0. -1.
        -11    1    3    3    0    0  0.73610507872E+00 -0.72642321263E+00 -0.46311335465E+01  0.47452017404E+01  0.51100000000E-03 0.  1.
         12    1    3    3    0    0  0.29378120948E+02 -0.48474885885E+01  0.13009445577E+02  0.32493350247E+02  0.00000000000E+00 0. -1.
</event>
<event>
 7    1  0.2945316E-011  0.5052897E+02  0.7816164E-02  0.1300438E+00
        -11   -1    0    0    0    0  0.00000000000E+00  0.00000000000E+00  0.45593999997E+02  0.45594000000E+02  0.51100000000E-03 0.  1.
         11   -1    0    0    0    0 -0.00000000000E+00 -0.00000000000E+00 -0.45593999997E+02  0.45594000000E+02  0.51100000000E-03 0. -1.
    9900012    2    1    2    0    0  0.24879768586E+02  0.97146669049E+01 -0.30655813279E+02  0.50528972395E+02  0.30000342089E+02 0.  0.
        -12    1    1    2    0    0 -0.24879768586E+02 -0.97146669049E+01  0.30655813279E+02  0.40659027605E+02  0.00000000000E+00 0.  1.
         11    1    3    3    0    0  0.11028713476E+02  0.63629874640E+01  0.15932588382E+00  0.12733637163E+02  0.51100000000E-03 0. -1.
        -11    1    3    3    0    0  0.40733197479E+01  0.64281470616E+01 -0.30499833792E+01  0.81985003073E+01  0.51100000000E-03 0.  1.
         12    1    3    3    0    0  0.97777353627E+01 -0.30764676207E+01 -0.27765155784E+02  0.29596834925E+02  0.00000000000E+00 0. -1.
</event>
<event>
 7    1  0.2945316E-011  0.5052892E+02  0.7816164E-02  0.1300439E+00
        -11   -1    0    0    0    0  0.00000000000E+00  0.00000000000E+00  0.45593999997E+02  0.45594000000E+02  0.51100000000E-03 0.  1.
         11   -1    0    0    0    0 -0.00000000000E+00 -0.00000000000E+00 -0.45593999997E+02  0.45594000000E+02  0.51100000000E-03 0. -1.
    9900012    2    1    2    0    0 -0.89637290818E+01  0.16238679928E+02 -0.36181731578E+02  0.50528919036E+02  0.30000179901E+02 0.  0.
        -12    1    1    2    0    0  0.89637290818E+01 -0.16238679928E+02  0.36181731578E+02  0.40659080964E+02  0.00000000000E+00 0.  1.
         11    1    3    3    0    0 -0.12399203391E+02  0.15563077772E+02 -0.29787695439E+02  0.35822568784E+02  0.51100000000E-03 0. -1.
        -11    1    3    3    0    0 -0.40510709901E+01 -0.25195292460E+01 -0.39890028774E+01  0.62186291098E+01  0.51100000000E-03 0.  1.
        -12    1    3    3    0    0  0.74865452990E+01  0.31951314027E+01 -0.24050332612E+01  0.84877211418E+01  0.00000000000E+00 0.  1.
</event>
<event>
 7    1  0.2945316E-011  0.5052887E+02  0.7816164E-02  0.1300439E+00
        -11   -1    0    0    0    0  0.00000000000E+00  0.00000000000E+00  0.45593999997E+02  0.45594000000E+02  0.51100000000E-03 0.  1.
         11   -1    0    0    0    0 -0.00000000000E+00 -0.00000000000E+00 -0.45593999997E+02  0.45594000000E+02  0.51100000000E-03 0. -1.
    9900012    2    1    2    0    0  0.25071881509E+02 -0.17062779669E+02 -0.27081858657E+02  0.50528871127E+02  0.30000034278E+02 0.  0.
        -12    1    1    2    0    0 -0.25071881509E+02  0.17062779669E+02  0.27081858657E+02  0.40659128873E+02  0.00000000000E+00 0.  1.
         11    1    3    3    0    0  0.17598198011E+02 -0.18083404462E+02 -0.25059654147E+02  0.35562513359E+02  0.51100000000E-03 0. -1.
        -11    1    3    3    0    0  0.60109826182E+00 -0.36034288651E+01 -0.49751527387E+01  0.61723709983E+01  0.51100000000E-03 0.  1.
         12    1    3    3    0    0  0.68725852357E+01  0.46240536586E+01  0.29529482290E+01  0.87939867696E+01  0.00000000000E+00 0. -1.
</event>
<event>
 7    1  0.2945316E-011  0.5052885E+02  0.7816164E-02  0.1300439E+00
        -11   -1    0    0    0    0  0.00000000000E+00  0.00000000000E+00  0.45593999997E+02  0.45594000000E+02  0.51100000000E-03 0.  1.
         11   -1    0    0    0    0 -0.00000000000E+00 -0.00000000000E+00 -0.45593999997E+02  0.45594000000E+02  0.51100000000E-03 0. -1.
    9900012    2    1    2    0    0 -0.18461190940E+02 -0.35128920413E+02 -0.88492800098E+01  0.50528851251E+02  0.29999973862E+02 0.  0.
        -12    1    1    2    0    0  0.18461190940E+02  0.35128920413E+02  0.88492800098E+01  0.40659148749E+02  0.00000000000E+00 0.  1.
         11    1    3    3    0    0 -0.49370701109E+01 -0.50452606497E+01 -0.54149968299E+01  0.88967132826E+01  0.51100000000E-03 0. -1.
        -11    1    3    3    0    0 -0.87901519876E+01 -0.57600921607E+01 -0.11494141845E+02  0.15574361325E+02  0.51100000000E-03 0.  1.
        -12    1    3    3    0    0 -0.47339688410E+01 -0.24323567603E+02  0.80598586647E+01  0.26057776644E+02  0.00000000000E+00 0.  1.
</event>
<event>
 7    1  0.2945316E-011  0.5052886E+02  0.7816164E-02  0.1300439E+00
        -11   -1    0    0    0    0  0.00000000000E+00  0.00000000000E+00  0.45593999997E+02  0.45594000000E+02  0.51100000000E-03 0.  1.
         11   -1    0    0    0    0 -0.00000000000E+00 -0.00000000000E+00 -0.45593999997E+02  0.45594000000E+02  0.51100000000E-03 0. -1.
    9900012    2    1    2    0    0 -0.14404746823E+02  0.26834409799E+02 -0.26936647563E+02  0.50528864960E+02  0.30000015531E+02 0.  0.
        -12    1    1    2    0    0  0.14404746823E+02 -0.26834409799E+02  0.26936647563E+02  0.40659135040E+02  0.00000000000E+00 0.  1.
         11    1    3    3    0    0  0.37988856031E+00  0.28923271174E+01 -0.42700346715E+00  0.29482543470E+01  0.51100000000E-03 0. -1.
        -11    1    3    3    0    0 -0.50980817955E+01 -0.52921507669E+01 -0.66929429485E+00  0.73787026534E+01  0.51100000000E-03 0.  1.
         12    1    3    3    0    0 -0.96865535874E+01  0.29234233448E+02 -0.25840349801E+02  0.40201907959E+02  0.00000000000E+00 0. -1.
</event>
<event>
 7    1  0.2945316E-011  0.5052889E+02  0.7816164E-02  0.1300439E+00
        -11   -1    0    0    0    0  0.00000000000E+00  0.00000000000E+00  0.45593999997E+02  0.45594000000E+02  0.51100000000E-03 0. -1.
         11   -1    0    0    0    0 -0.00000000000E+00 -0.00000000000E+00 -0.45593999997E+02  0.45594000000E+02  0.51100000000E-03 0.  1.
    9900012    2    1    2    0    0  0.23795143732E+02 -0.13406898608E+01  0.32941719844E+02  0.50528890064E+02  0.30000091837E+02 0.  0.
        -12    1    1    2    0    0 -0.23795143732E+02  0.13406898608E+01 -0.32941719844E+02  0.40659109936E+02  0.00000000000E+00 0.  1.
         11    1    3    3    0    0  0.53156344830E+01  0.65760305386E+00  0.76194793581E+01  0.93136930207E+01  0.51100000000E-03 0. -1.
        -11    1    3    3    0    0  0.19183144976E+02  0.90870380151E+01  0.18662642984E+02  0.28264139019E+02  0.51100000000E-03 0.  1.
        -12    1    3    3    0    0 -0.70363572674E+00 -0.11085330930E+02  0.66595975021E+01  0.12951058024E+02  0.00000000000E+00 0.  1.
</event>
<event>
 7    1  0.2945316E-011  0.5052886E+02  0.7816164E-02  0.1300439E+00
        -11   -1    0    0    0    0  0.00000000000E+00  0.00000000000E+00  0.45593999997E+02  0.45594000000E+02  0.51100000000E-03 0.  1.
         11   -1    0    0    0    0 -0.00000000000E+00 -0.00000000000E+00 -0.45593999997E+02  0.45594000000E+02  0.51100000000E-03 0. -1.
    9900012    2    1    2    0    0 -0.43344191919E+01  0.28854932534E+02 -0.28315574316E+02  0.50528855025E+02  0.29999985334E+02 0.  0.
        -12    1    1    2    0    0  0.43344191919E+01 -0.28854932534E+02  0.28315574316E+02  0.40659144975E+02  0.00000000000E+00 0.  1.
         11    1    3    3    0    0  0.11841994427E+01  0.59276945327E+01 -0.41305197718E+01  0.73212761620E+01  0.51100000000E-03 0. -1.
        -11    1    3    3    0    0 -0.11724392170E+02  0.85147275584E-01 -0.50313328933E+01  0.12758641493E+02  0.51100000000E-03 0.  1.
        -12    1    3    3    0    0  0.62057735352E+01  0.22842090725E+02 -0.19153721651E+02  0.30448937370E+02  0.00000000000E+00 0.  1.
</event>
<event>
 7    1  0.2945316E-011  0.5052885E+02  0.7816164E-02  0.1300439E+00
        -11   -1    0    0    0    0  0.00000000000E+00  0.00000000000E+00  0.45593999997E+02  0.45594000000E+02  0.51100000000E-03 0. -1.
         11   -1    0    0    0    0 -0.00000000000E+00 -0.00000000000E+00 -0.45593999997E+02  0.45594000000E+02  0.51100000000E-03 0.  1.
    9900012    2    1    2    0    0  0.13394862001E+02  0.38337164384E+02 -0.20013931098E+01  0.50528854959E+02  0.29999985134E+02 0.  0.
        -12    1    1    2    0    0 -0.13394862001E+02 -0.38337164384E+02  0.20013931098E+01  0.40659145041E+02  0.00000000000E+00 0.  1.
         11    1    3    3    0    0  0.34148924593E+00 -0.37255744628E+00 -0.24867152485E+01  0.25375513677E+01  0.51100000000E-03 0.  1.
        -11    1    3    3    0    0  0.10108184383E+02  0.17377546799E+02  0.12160608615E+02  0.23495423521E+02  0.51100000000E-03 0. -1.
         12    1    3    3    0    0  0.29451883723E+01  0.21332175032E+02 -0.11675286477E+02  0.24495880071E+02  0.00000000000E+00 0. -1.
</event>
<event>
 7    1  0.2945316E-011  0.5052886E+02  0.7816164E-02  0.1300439E+00
        -11   -1    0    0    0    0  0.00000000000E+00  0.00000000000E+00  0.45593999997E+02  0.45594000000E+02  0.51100000000E-03 0.  1.
         11   -1    0    0    0    0 -0.00000000000E+00 -0.00000000000E+00 -0.45593999997E+02  0.45594000000E+02  0.51100000000E-03 0. -1.
    9900012    2    1    2    0    0 -0.24791748384E+02 -0.44049622335E+01 -0.31923832881E+02  0.50528860977E+02  0.30000003427E+02 0.  0.
        -12    1    1    2    0    0  0.24791748384E+02  0.44049622335E+01  0.31923832881E+02  0.40659139023E+02  0.00000000000E+00 0.  1.
         11    1    3    3    0    0 -0.20730140621E+02  0.22340958180E+01 -0.12702173582E+02  0.24414649870E+02  0.51100000000E-03 0.  1.
        -11    1    3    3    0    0 -0.27881309781E+01  0.26263079001E+01  0.89175009786E+00  0.39327326423E+01  0.51100000000E-03 0. -1.
         12    1    3    3    0    0 -0.12734767852E+01 -0.92653659516E+01 -0.20113409397E+02  0.22181478465E+02  0.00000000000E+00 0. -1.
</event>
<event>
 7    1  0.2945316E-011  0.5052885E+02  0.7816164E-02  0.1300439E+00
        -11   -1    0    0    0    0  0.00000000000E+00  0.00000000000E+00  0.45593999997E+02  0.45594000000E+02  0.51100000000E-03 0. -1.
         11   -1    0    0    0    0 -0.00000000000E+00 -0.00000000000E+00 -0.45593999997E+02  0.45594000000E+02  0.51100000000E-03 0.  1.
    9900012    2    1    2    0    0 -0.35544450571E+02  0.19285399883E+02  0.42227370522E+01  0.50528854372E+02  0.29999983348E+02 0.  0.
        -12    1    1    2    0    0  0.35544450571E+02 -0.19285399883E+02 -0.42227370522E+01  0.40659145628E+02  0.00000000000E+00 0.  1.
         11    1    3    3    0    0 -0.44134147252E+01  0.34084249633E+01  0.55265927529E+01  0.78510392933E+01  0.51100000000E-03 0. -1.
        -11    1    3    3    0    0 -0.12530324314E+02  0.30973281650E+01  0.11013357980E+02  0.16967513768E+02  0.51100000000E-03 0.  1.
        -12    1    3    3    0    0 -0.18600711531E+02  0.12779646754E+02 -0.12317213681E+02  0.25710301311E+02  0.00000000000E+00 0.  1.
</event>
<event>
 7    1  0.2945316E-011  0.5052886E+02  0.7816164E-02  0.1300439E+00
        -11   -1    0    0    0    0  0.00000000000E+00  0.00000000000E+00  0.45593999997E+02  0.45594000000E+02  0.51100000000E-03 0.  1.
         11   -1    0    0    0    0 -0.00000000000E+00 -0.00000000000E+00 -0.45593999997E+02  0.45594000000E+02  0.51100000000E-03 0. -1.
    9900012    2    1    2    0    0 -0.21426918233E+01  0.13302800254E+02 -0.38361570694E+02  0.50528859220E+02  0.29999998086E+02 0.  0.
        -12    1    1    2    0    0  0.21426918233E+01 -0.13302800254E+02  0.38361570694E+02  0.40659140780E+02  0.00000000000E+00 0.  1.
         11    1    3    3    0    0  0.40168915682E+01  0.58145723937E+01 -0.39010719401E+01  0.80723622648E+01  0.51100000000E-03 0.  1.
        -11    1    3    3    0    0  0.89512703248E+00  0.11762115132E+02 -0.31593918156E+02  0.33724238605E+02  0.51100000000E-03 0. -1.
         12    1    3    3    0    0 -0.70547104239E+01 -0.42738872718E+01 -0.28665805977E+01  0.87322583505E+01  0.00000000000E+00 0. -1.
</event>
<event>
 7    1  0.2945316E-011  0.5052886E+02  0.7816164E-02  0.1300439E+00
        -11   -1    0    0    0    0  0.00000000000E+00  0.00000000000E+00  0.45593999997E+02  0.45594000000E+02  0.51100000000E-03 0.  1.
         11   -1    0    0    0    0 -0.00000000000E+00 -0.00000000000E+00 -0.45593999997E+02  0.45594000000E+02  0.51100000000E-03 0. -1.
    9900012    2    1    2    0    0  0.23604613203E+02  0.28946005398E+02 -0.16066007676E+02  0.50528860860E+02  0.30000003071E+02 0.  0.
        -12    1    1    2    0    0 -0.23604613203E+02 -0.28946005398E+02  0.16066007676E+02  0.40659139140E+02  0.00000000000E+00 0.  1.
         11    1    3    3    0    0  0.22607985250E+01 -0.20209582115E+01  0.12761042393E+01  0.32899733060E+01  0.51100000000E-03 0. -1.
        -11    1    3    3    0    0  0.10107244569E+02  0.30506020838E+02 -0.94413068881E+01  0.33494954488E+02  0.51100000000E-03 0.  1.
         12    1    3    3    0    0  0.11236570109E+02  0.46094277120E+00 -0.79008050268E+01  0.13743933066E+02  0.00000000000E+00 0. -1.
</event>
<event>
 7    1  0.2945316E-011  0.5052886E+02  0.7816164E-02  0.1300439E+00
        -11   -1    0    0    0    0  0.00000000000E+00  0.00000000000E+00  0.45593999997E+02  0.45594000000E+02  0.51100000000E-03 0.  1.
         11   -1    0    0    0    0 -0.00000000000E+00 -0.00000000000E+00 -0.45593999997E+02  0.45594000000E+02  0.51100000000E-03 0. -1.
    9900012    2    1    2    0    0 -0.31307833558E+01  0.68596383800E+01 -0.39953838960E+02  0.50528859690E+02  0.29999999514E+02 0.  0.
        -12    1    1    2    0    0  0.31307833558E+01 -0.68596383800E+01  0.39953838960E+02  0.40659140310E+02  0.00000000000E+00 0.  1.
         11    1    3    3    0    0 -0.18486357710E+01 -0.17650700047E+01 -0.72726158726E+01  0.77086878408E+01  0.51100000000E-03 0. -1.
        -11    1    3    3    0    0  0.81048015741E+01 -0.30294506905E+00 -0.49590091497E+00  0.81256078080E+01  0.51100000000E-03 0.  1.
        -12    1    3    3    0    0 -0.93869491589E+01  0.89276534537E+01 -0.32185322172E+02  0.34694564041E+02  0.00000000000E+00 0.  1.
</event>
<event>
 7    1  0.2945316E-011  0.5052885E+02  0.7816164E-02  0.1300439E+00
        -11   -1    0    0    0    0  0.00000000000E+00  0.00000000000E+00  0.45593999997E+02  0.45594000000E+02  0.51100000000E-03 0.  1.
         11   -1    0    0    0    0 -0.00000000000E+00 -0.00000000000E+00 -0.45593999997E+02  0.45594000000E+02  0.51100000000E-03 0. -1.
    9900012    2    1    2    0    0  0.14001378355E+02  0.31941497077E+01 -0.38038473455E+02  0.50528847882E+02  0.29999963622E+02 0.  0.
        -12    1    1    2    0    0 -0.14001378355E+02 -0.31941497077E+01  0.38038473455E+02  0.40659152118E+02  0.00000000000E+00 0.  1.
         11    1    3    3    0    0 -0.22534453431E+01 -0.38298597248E+00 -0.18435500909E+01  0.29365577413E+01  0.51100000000E-03 0. -1.
        -11    1    3    3    0    0 -0.55668064173E+01 -0.30854803212E+01 -0.15629212739E+02  0.16875479656E+02  0.51100000000E-03 0.  1.
         12    1    3    3    0    0  0.21821630115E+02  0.66626160013E+01 -0.20565710624E+02  0.30716810485E+02  0.00000000000E+00 0. -1.
</event>
<event>
 7    1  0.2945316E-011  0.5052887E+02  0.7816164E-02  0.1300439E+00
        -11   -1    0    0    0    0  0.00000000000E+00  0.00000000000E+00  0.45593999997E+02  0.45594000000E+02  0.51100000000E-03 0.  1.
         11   -1    0    0    0    0 -0.00000000000E+00 -0.00000000000E+00 -0.45593999997E+02  0.45594000000E+02  0.51100000000E-03 0. -1.
    9900012    2    1    2    0    0  0.20721896241E+02 -0.79237359980E+01 -0.34073193902E+02  0.50528866725E+02  0.30000020899E+02 0.  0.
        -12    1    1    2    0    0 -0.20721896241E+02  0.79237359980E+01  0.34073193902E+02  0.40659133275E+02  0.00000000000E+00 0.  1.
         11    1    3    3    0    0  0.10164252733E+02 -0.41346608525E+01 -0.11340980616E+02  0.15780535339E+02  0.51100000000E-03 0. -1.
        -11    1    3    3    0    0  0.90919711324E+01 -0.12794966083E+02 -0.85209911178E+01  0.17860077996E+02  0.51100000000E-03 0.  1.
        -12    1    3    3    0    0  0.14656723750E+01  0.90058909371E+01 -0.14211222168E+02  0.16888253391E+02  0.00000000000E+00 0.  1.
</event>
<event>
 7    1  0.2945316E-011  0.5052886E+02  0.7816164E-02  0.1300439E+00
        -11   -1    0    0    0    0  0.00000000000E+00  0.00000000000E+00  0.45593999997E+02  0.45594000000E+02  0.51100000000E-03 0. -1.
         11   -1    0    0    0    0 -0.00000000000E+00 -0.00000000000E+00 -0.45593999997E+02  0.45594000000E+02  0.51100000000E-03 0.  1.
    9900012    2    1    2    0    0 -0.28766906034E+02  0.28124176711E+02  0.58874048686E+01  0.50528859152E+02  0.29999997877E+02 0.  0.
        -12    1    1    2    0    0  0.28766906034E+02 -0.28124176711E+02 -0.58874048686E+01  0.40659140848E+02  0.00000000000E+00 0.  1.
         11    1    3    3    0    0 -0.19309149311E+02  0.19566091902E+02  0.99453509633E+01  0.29233289337E+02  0.51100000000E-03 0. -1.
        -11    1    3    3    0    0 -0.77455345325E+01  0.31170783252E+01  0.56180668960E+01  0.10063406898E+02  0.51100000000E-03 0.  1.
         12    1    3    3    0    0 -0.17122221901E+01  0.54410064839E+01 -0.96760129907E+01  0.11232162916E+02  0.00000000000E+00 0. -1.
</event>
<event>
 7    1  0.2945316E-011  0.5052886E+02  0.7816164E-02  0.1300439E+00
        -11   -1    0    0    0    0  0.00000000000E+00  0.00000000000E+00  0.45593999997E+02  0.45594000000E+02  0.51100000000E-03 0. -1.
         11   -1    0    0    0    0 -0.00000000000E+00 -0.00000000000E+00 -0.45593999997E+02  0.45594000000E+02  0.51100000000E-03 0.  1.
    9900012    2    1    2    0    0 -0.26627585208E+02 -0.24178243766E+02  0.18961793110E+02  0.50528863713E+02  0.30000011743E+02 0.  0.
        -12    1    1    2    0    0  0.26627585208E+02  0.24178243766E+02 -0.18961793110E+02  0.40659136287E+02  0.00000000000E+00 0.  1.
         11    1    3    3    0    0 -0.95099890249E+01 -0.57739425590E+01  0.21031901517E+01  0.11322619529E+02  0.51100000000E-03 0. -1.
        -11    1    3    3    0    0 -0.67498846308E+01 -0.35596111786E+01 -0.62394221632E+01  0.98570869664E+01  0.51100000000E-03 0.  1.
         12    1    3    3    0    0 -0.10367711553E+02 -0.14844690029E+02  0.23098025121E+02  0.29349157218E+02  0.00000000000E+00 0. -1.
</event>
<event>
 7    1  0.2945316E-011  0.5052886E+02  0.7816164E-02  0.1300439E+00
        -11   -1    0    0    0    0  0.00000000000E+00  0.00000000000E+00  0.45593999997E+02  0.45594000000E+02  0.51100000000E-03 0.  1.
         11   -1    0    0    0    0 -0.00000000000E+00 -0.00000000000E+00 -0.45593999997E+02  0.45594000000E+02  0.51100000000E-03 0. -1.
    9900012    2    1    2    0    0  0.32428873640E+02  0.27770167845E+01 -0.24368461532E+02  0.50528860987E+02  0.30000003457E+02 0.  0.
        -12    1    1    2    0    0 -0.32428873640E+02 -0.27770167845E+01  0.24368461532E+02  0.40659139013E+02  0.00000000000E+00 0.  1.
         11    1    3    3    0    0  0.25084392532E+00 -0.12226675267E+01  0.33969869550E+01  0.36190273817E+01  0.51100000000E-03 0. -1.
        -11    1    3    3    0    0  0.26714593923E+02  0.84290582993E+01 -0.13699069987E+02  0.31183057436E+02  0.51100000000E-03 0.  1.
         12    1    3    3    0    0  0.54634357919E+01 -0.44293739881E+01 -0.14066378501E+02  0.15726776170E+02  0.00000000000E+00 0. -1.
</event>
<event>
 7    1  0.2945316E-011  0.5052885E+02  0.7816164E-02  0.1300439E+00
        -11   -1    0    0    0    0  0.00000000000E+00  0.00000000000E+00  0.45593999997E+02  0.45594000000E+02  0.51100000000E-03 0.  1.
         11   -1    0    0    0    0 -0.00000000000E+00 -0.00000000000E+00 -0.45593999997E+02  0.45594000000E+02  0.51100000000E-03 0. -1.
    9900012    2    1    2    0    0 -0.15614274800E+02  0.40100573391E+01 -0.37326669120E+02  0.50528851399E+02  0.29999974311E+02 0.  0.
        -12    1    1    2    0    0  0.15614274800E+02 -0.40100573391E+01  0.37326669120E+02  0.40659148601E+02  0.00000000000E+00 0.  1.
         11    1    3    3    0    0 -0.77647165619E+01 -0.95898715727E+01 -0.17216503394E+02  0.21181700815E+02  0.51100000000E-03 0. -1.
        -11    1    3    3    0    0 -0.82551199127E-01 -0.21507970642E+01  0.55992259691E+00  0.22240180502E+01  0.51100000000E-03 0.  1.
         12    1    3    3    0    0 -0.77670070394E+01  0.15750725976E+02 -0.20670088323E+02  0.27123132533E+02  0.00000000000E+00 0. -1.
</event>
<event>
 7    1  0.2945316E-011  0.5052886E+02  0.7816164E-02  0.1300439E+00
        -11   -1    0    0    0    0  0.00000000000E+00  0.00000000000E+00  0.45593999997E+02  0.45594000000E+02  0.51100000000E-03 0.  1.
         11   -1    0    0    0    0 -0.00000000000E+00 -0.00000000000E+00 -0.45593999997E+02  0.45594000000E+02  0.51100000000E-03 0. -1.
    9900012    2    1    2    0    0  0.19891299849E+02 -0.32174267265E+01 -0.35315008082E+02  0.50528862770E+02  0.30000008876E+02 0.  0.
        -12    1    1    2    0    0 -0.19891299849E+02  0.32174267265E+01  0.35315008082E+02  0.40659137230E+02  0.00000000000E+00 0.  1.
         11    1    3    3    0    0  0.14745189727E+01 -0.47565212475E+01 -0.91936911841E+00  0.50639846382E+01  0.51100000000E-03 0. -1.
        -11    1    3    3    0    0 -0.14986324411E+01 -0.64110392250E+01 -0.25242959370E+01  0.70511980100E+01  0.51100000000E-03 0.  1.
         12    1    3    3    0    0  0.19915413317E+02  0.79501337460E+01 -0.31871343027E+02  0.38413680122E+02  0.00000000000E+00 0. -1.
</event>
<event>
 7    1  0.2945316E-011  0.5052891E+02  0.7816164E-02  0.1300439E+00
        -11   -1    0    0    0    0  0.00000000000E+00  0.00000000000E+00  0.45593999997E+02  0.45594000000E+02  0.51100000000E-03 0.  1.
         11   -1    0    0    0    0 -0.00000000000E+00 -0.00000000000E+00 -0.45593999997E+02  0.45594000000E+02  0.51100000000E-03 0. -1.
    9900012    2    1    2    0    0  0.36330396420E+02 -0.37965241776E+01 -0.17856382547E+02  0.50528908796E+02  0.30000148775E+02 0.  0.
        -12    1    1    2    0    0 -0.36330396420E+02  0.37965241776E+01  0.17856382547E+02  0.40659091204E+02  0.00000000000E+00 0.  1.
         11    1    3    3    0    0  0.23233444506E+02  0.84079744869E+01 -0.97779220542E+01  0.26572443218E+02  0.51100000000E-03 0. -1.
        -11    1    3    3    0    0  0.80723761519E+01 -0.29205198152E+00  0.10276113434E+01  0.81427597553E+01  0.51100000000E-03 0.  1.
        -12    1    3    3    0    0  0.50245757621E+01 -0.11912446683E+02 -0.91060718363E+01  0.15813705823E+02  0.00000000000E+00 0.  1.
</event>
<event>
 7    1  0.2945316E-011  0.5052888E+02  0.7816164E-02  0.1300439E+00
        -11   -1    0    0    0    0  0.00000000000E+00  0.00000000000E+00  0.45593999997E+02  0.45594000000E+02  0.51100000000E-03 0.  1.
         11   -1    0    0    0    0 -0.00000000000E+00 -0.00000000000E+00 -0.45593999997E+02  0.45594000000E+02  0.51100000000E-03 0. -1.
    9900012    2    1    2    0    0  0.19604046466E+02 -0.30233281826E+01 -0.35492324252E+02  0.50528877630E+02  0.30000054043E+02 0.  0.
        -12    1    1    2    0    0 -0.19604046466E+02  0.30233281826E+01  0.35492324252E+02  0.40659122370E+02  0.00000000000E+00 0.  1.
         11    1    3    3    0    0 -0.57344296006E+00 -0.16621062756E+01 -0.55909776303E+01  0.58609269936E+01  0.51100000000E-03 0. -1.
        -11    1    3    3    0    0 -0.31509868489E+01  0.60879883859E+01 -0.12347656436E+01  0.69654122035E+01  0.51100000000E-03 0.  1.
         12    1    3    3    0    0  0.23328476275E+02 -0.74492102929E+01 -0.28666580978E+02  0.37702538433E+02  0.00000000000E+00 0. -1.
</event>
<event>
 7    1  0.2945316E-011  0.5052886E+02  0.7816164E-02  0.1300439E+00
        -11   -1    0    0    0    0  0.00000000000E+00  0.00000000000E+00  0.45593999997E+02  0.45594000000E+02  0.51100000000E-03 0.  1.
         11   -1    0    0    0    0 -0.00000000000E+00 -0.00000000000E+00 -0.45593999997E+02  0.45594000000E+02  0.51100000000E-03 0. -1.
    9900012    2    1    2    0    0 -0.23505506905E+02 -0.27793489806E+02 -0.18115703479E+02  0.50528860277E+02  0.30000001299E+02 0.  0.
        -12    1    1    2    0    0  0.23505506905E+02  0.27793489806E+02  0.18115703479E+02  0.40659139723E+02  0.00000000000E+00 0.  1.
         11    1    3    3    0    0 -0.84359977113E+01 -0.14377879021E+02 -0.72283217860E+01  0.18169702767E+02  0.51100000000E-03 0. -1.
        -11    1    3    3    0    0 -0.42267943070E+01 -0.18150635566E+02 -0.63793068282E+01  0.19697891192E+02  0.51100000000E-03 0.  1.
         12    1    3    3    0    0 -0.10842714887E+02  0.47350247808E+01 -0.45080748643E+01  0.12661266318E+02  0.00000000000E+00 0. -1.
</event>
<event>
 7    1  0.2945316E-011  0.5052885E+02  0.7816164E-02  0.1300439E+00
        -11   -1    0    0    0    0  0.00000000000E+00  0.00000000000E+00  0.45593999997E+02  0.45594000000E+02  0.51100000000E-03 0. -1.
         11   -1    0    0    0    0 -0.00000000000E+00 -0.00000000000E+00 -0.45593999997E+02  0.45594000000E+02  0.51100000000E-03 0.  1.
    9900012    2    1    2    0    0 -0.49605791823E+01  0.31542860781E+02  0.25171557183E+02  0.50528847241E+02  0.29999961673E+02 0.  0.
        -12    1    1    2    0    0  0.49605791823E+01 -0.31542860781E+02 -0.25171557183E+02  0.40659152759E+02  0.00000000000E+00 0.  1.
         11    1    3    3    0    0 -0.40399822216E+01  0.15837452951E+02  0.64445059489E+01  0.17569235313E+02  0.51100000000E-03 0. -1.
        -11    1    3    3    0    0  0.93307947379E+01  0.61016732373E+01  0.14499373379E+02  0.18290051268E+02  0.51100000000E-03 0.  1.
         12    1    3    3    0    0 -0.10251391699E+02  0.96037345931E+01  0.42276778554E+01  0.14669560659E+02  0.00000000000E+00 0. -1.
</event>
<event>
 7    1  0.2945316E-011  0.5052883E+02  0.7816164E-02  0.1300439E+00
        -11   -1    0    0    0    0  0.00000000000E+00  0.00000000000E+00  0.45593999997E+02  0.45594000000E+02  0.51100000000E-03 0. -1.
         11   -1    0    0    0    0 -0.00000000000E+00 -0.00000000000E+00 -0.45593999997E+02  0.45594000000E+02  0.51100000000E-03 0.  1.
    9900012    2    1    2    0    0  0.22462637786E+02  0.24520059521E+02  0.23395828660E+02  0.50528828662E+02  0.29999905201E+02 0.  0.
        -12    1    1    2    0    0 -0.22462637786E+02 -0.24520059521E+02 -0.23395828660E+02  0.40659171338E+02  0.00000000000E+00 0.  1.
         11    1    3    3    0    0 -0.42476072919E+01  0.67338203630E+01  0.83043849079E+01  0.11504317161E+02  0.51100000000E-03 0. -1.
        -11    1    3    3    0    0  0.24523102069E+01 -0.87819864134E+00  0.68477626445E+01  0.73264528731E+01  0.51100000000E-03 0.  1.
         12    1    3    3    0    0  0.24257934871E+02  0.18664437799E+02  0.82436811075E+01  0.31698058628E+02  0.00000000000E+00 0. -1.
</event>
<event>
 7    1  0.2945316E-011  0.5052882E+02  0.7816164E-02  0.1300439E+00
        -11   -1    0    0    0    0  0.00000000000E+00  0.00000000000E+00  0.45593999997E+02  0.45594000000E+02  0.51100000000E-03 0.  1.
         11   -1    0    0    0    0 -0.00000000000E+00 -0.00000000000E+00 -0.45593999997E+02  0.45594000000E+02  0.51100000000E-03 0. -1.
    9900012    2    1    2    0    0 -0.20948057025E+02  0.33794993912E+02 -0.84997600631E+01  0.50528823573E+02  0.29999889731E+02 0.  0.
        -12    1    1    2    0    0  0.20948057025E+02 -0.33794993912E+02  0.84997600631E+01  0.40659176427E+02  0.00000000000E+00 0.  1.
         11    1    3    3    0    0 -0.82249884106E+01  0.21519579590E+02  0.24297122865E+01  0.23165626306E+02  0.51100000000E-03 0. -1.
        -11    1    3    3    0    0 -0.27815742231E+01  0.87340009945E+01  0.32165859128E+01  0.97142345929E+01  0.51100000000E-03 0.  1.
         12    1    3    3    0    0 -0.99414943917E+01  0.35414133268E+01 -0.14146058262E+02  0.17648962674E+02  0.00000000000E+00 0. -1.
</event>
<event>
 7    1  0.2945316E-011  0.5052885E+02  0.7816164E-02  0.1300439E+00
        -11   -1    0    0    0    0  0.00000000000E+00  0.00000000000E+00  0.45593999997E+02  0.45594000000E+02  0.51100000000E-03 0.  1.
         11   -1    0    0    0    0 -0.00000000000E+00 -0.00000000000E+00 -0.45593999997E+02  0.45594000000E+02  0.51100000000E-03 0. -1.
    9900012    2    1    2    0    0  0.14483614884E+02  0.23695776558E+02 -0.29696825683E+02  0.50528851184E+02  0.29999973659E+02 0.  0.
        -12    1    1    2    0    0 -0.14483614884E+02 -0.23695776558E+02  0.29696825683E+02  0.40659148816E+02  0.00000000000E+00 0.  1.
         11    1    3    3    0    0  0.49512099473E+01  0.12864180177E+02 -0.60079894441E+01  0.15036540460E+02  0.51100000000E-03 0. -1.
        -11    1    3    3    0    0  0.95560696775E+01  0.75830171996E+01 -0.64034822628E+00  0.12216000313E+02  0.51100000000E-03 0.  1.
         12    1    3    3    0    0 -0.23664740596E-01  0.32485791809E+01 -0.23048488012E+02  0.23276310412E+02  0.00000000000E+00 0. -1.
</event>
<event>
 7    1  0.2945316E-011  0.5052886E+02  0.7816164E-02  0.1300439E+00
        -11   -1    0    0    0    0  0.00000000000E+00  0.00000000000E+00  0.45593999997E+02  0.45594000000E+02  0.51100000000E-03 0.  1.
         11   -1    0    0    0    0 -0.00000000000E+00 -0.00000000000E+00 -0.45593999997E+02  0.45594000000E+02  0.51100000000E-03 0. -1.
    9900012    2    1    2    0    0 -0.17825384133E+02 -0.35209318019E+02 -0.97839429251E+01  0.50528856699E+02  0.29999990421E+02 0.  0.
        -12    1    1    2    0    0  0.17825384133E+02  0.35209318019E+02  0.97839429251E+01  0.40659143301E+02  0.00000000000E+00 0.  1.
         11    1    3    3    0    0 -0.78222689941E+01 -0.15504772642E+02  0.33163488773E+01  0.17680046296E+02  0.51100000000E-03 0. -1.
        -11    1    3    3    0    0 -0.60503673559E+00 -0.32535623201E+01  0.54224733689E+01  0.63525549915E+01  0.51100000000E-03 0.  1.
         12    1    3    3    0    0 -0.93980784038E+01 -0.16450983057E+02 -0.18522765171E+02  0.26496255411E+02  0.00000000000E+00 0. -1.
</event>
<event>
 7    1  0.2945316E-011  0.5052886E+02  0.7816164E-02  0.1300439E+00
        -11   -1    0    0    0    0  0.00000000000E+00  0.00000000000E+00  0.45593999997E+02  0.45594000000E+02  0.51100000000E-03 0. -1.
         11   -1    0    0    0    0 -0.00000000000E+00 -0.00000000000E+00 -0.45593999997E+02  0.45594000000E+02  0.51100000000E-03 0.  1.
    9900012    2    1    2    0    0  0.18988565105E+02 -0.27823902256E+01  0.35844926493E+02  0.50528855206E+02  0.29999985884E+02 0.  0.
        -12    1    1    2    0    0 -0.18988565105E+02  0.27823902256E+01 -0.35844926493E+02  0.40659144794E+02  0.00000000000E+00 0.  1.
         11    1    3    3    0    0 -0.53151694813E-01 -0.11900319693E+02  0.10457448412E+02  0.15842306065E+02  0.51100000000E-03 0. -1.
        -11    1    3    3    0    0  0.99921003461E+01 -0.10104464955E+01  0.11293113543E+02  0.15112825190E+02  0.51100000000E-03 0.  1.
        -12    1    3    3    0    0  0.90496164538E+01  0.10128375963E+02  0.14094364538E+02  0.19573723952E+02  0.00000000000E+00 0.  1.
</event>
<event>
 7    1  0.2945316E-011  0.5052886E+02  0.7816164E-02  0.1300439E+00
        -11   -1    0    0    0    0  0.00000000000E+00  0.00000000000E+00  0.45593999997E+02  0.45594000000E+02  0.51100000000E-03 0. -1.
         11   -1    0    0    0    0 -0.00000000000E+00 -0.00000000000E+00 -0.45593999997E+02  0.45594000000E+02  0.51100000000E-03 0.  1.
    9900012    2    1    2    0    0 -0.30329259810E+02 -0.18563570587E+02  0.19715361759E+02  0.50528860279E+02  0.30000001304E+02 0.  0.
        -12    1    1    2    0    0  0.30329259810E+02  0.18563570587E+02 -0.19715361759E+02  0.40659139721E+02  0.00000000000E+00 0.  1.
         11    1    3    3    0    0 -0.19524675365E+02 -0.76423062443E+01  0.13906597399E+02  0.25159714711E+02  0.51100000000E-03 0. -1.
        -11    1    3    3    0    0  0.16822766574E+01  0.28985327026E+01  0.58519065163E+01  0.67436159971E+01  0.51100000000E-03 0.  1.
         12    1    3    3    0    0 -0.12486861102E+02 -0.13819797045E+02 -0.43142155694E-01  0.18625529571E+02  0.00000000000E+00 0. -1.
</event>
<event>
 7    1  0.2945316E-011  0.5052887E+02  0.7816164E-02  0.1300439E+00
        -11   -1    0    0    0    0  0.00000000000E+00  0.00000000000E+00  0.45593999997E+02  0.45594000000E+02  0.51100000000E-03 0.  1.
         11   -1    0    0    0    0 -0.00000000000E+00 -0.00000000000E+00 -0.45593999997E+02  0.45594000000E+02  0.51100000000E-03 0. -1.
    9900012    2    1    2    0    0 -0.89260001116E+01 -0.29687677213E+02 -0.26308429422E+02  0.50528866770E+02  0.30000021036E+02 0.  0.
        -12    1    1    2    0    0  0.89260001116E+01  0.29687677213E+02  0.26308429422E+02  0.40659133230E+02  0.00000000000E+00 0.  1.
         11    1    3    3    0    0 -0.66311497242E+01 -0.21435279234E+02 -0.11061835396E+02  0.25016145688E+02  0.51100000000E-03 0. -1.
        -11    1    3    3    0    0 -0.90502748779E+01 -0.63456090277E+00 -0.11535533873E+02  0.14675785665E+02  0.51100000000E-03 0.  1.
         12    1    3    3    0    0  0.67554244905E+01 -0.76178370766E+01 -0.37110601536E+01  0.10836935417E+02  0.00000000000E+00 0. -1.
</event>
<event>
 7    1  0.2945316E-011  0.5052886E+02  0.7816164E-02  0.1300439E+00
        -11   -1    0    0    0    0  0.00000000000E+00  0.00000000000E+00  0.45593999997E+02  0.45594000000E+02  0.51100000000E-03 0.  1.
         11   -1    0    0    0    0 -0.00000000000E+00 -0.00000000000E+00 -0.45593999997E+02  0.45594000000E+02  0.51100000000E-03 0. -1.
    9900012    2    1    2    0    0 -0.35226619457E+02  0.17393077084E+02 -0.10475278272E+02  0.50528864449E+02  0.30000013980E+02 0.  0.
        -12    1    1    2    0    0  0.35226619457E+02 -0.17393077084E+02  0.10475278272E+02  0.40659135551E+02  0.00000000000E+00 0.  1.
         11    1    3    3    0    0 -0.35386277093E+01  0.11904215390E+01 -0.61085493679E+00  0.37831380520E+01  0.51100000000E-03 0. -1.
        -11    1    3    3    0    0  0.70096202193E+00 -0.62459390476E+01 -0.13574281080E+01  0.64300632713E+01  0.51100000000E-03 0.  1.
        -12    1    3    3    0    0 -0.32388953770E+02  0.22448594593E+02 -0.85069952272E+01  0.40315663126E+02  0.00000000000E+00 0.  1.
</event>
<event>
 7    1  0.2945316E-011  0.5052886E+02  0.7816164E-02  0.1300439E+00
        -11   -1    0    0    0    0  0.00000000000E+00  0.00000000000E+00  0.45593999997E+02  0.45594000000E+02  0.51100000000E-03 0.  1.
         11   -1    0    0    0    0 -0.00000000000E+00 -0.00000000000E+00 -0.45593999997E+02  0.45594000000E+02  0.51100000000E-03 0. -1.
    9900012    2    1    2    0    0  0.37306042814E+02 -0.13723166832E+02 -0.85498081520E+01  0.50528863785E+02  0.30000011959E+02 0.  0.
        -12    1    1    2    0    0 -0.37306042814E+02  0.13723166832E+02  0.85498081520E+01  0.40659136215E+02  0.00000000000E+00 0.  1.
         11    1    3    3    0    0  0.16116397177E+02 -0.70508211197E+01  0.90855780350E+01  0.19798991512E+02  0.51100000000E-03 0.  1.
        -11    1    3    3    0    0  0.13489421670E+02 -0.49571373957E+01 -0.39016976409E+01  0.14891640369E+02  0.51100000000E-03 0. -1.
        -12    1    3    3    0    0  0.77002239676E+01 -0.17152083164E+01 -0.13733688546E+02  0.15838231903E+02  0.00000000000E+00 0.  1.
</event>
<event>
 7    1  0.2945316E-011  0.5052889E+02  0.7816164E-02  0.1300439E+00
        -11   -1    0    0    0    0  0.00000000000E+00  0.00000000000E+00  0.45593999997E+02  0.45594000000E+02  0.51100000000E-03 0.  1.
         11   -1    0    0    0    0 -0.00000000000E+00 -0.00000000000E+00 -0.45593999997E+02  0.45594000000E+02  0.51100000000E-03 0. -1.
    9900012    2    1    2    0    0  0.33686087919E+02 -0.71414044353E+00 -0.22757435830E+02  0.50528887842E+02  0.30000085085E+02 0.  0.
        -12    1    1    2    0    0 -0.33686087919E+02  0.71414044353E+00  0.22757435830E+02  0.40659112158E+02  0.00000000000E+00 0.  1.
         11    1    3    3    0    0  0.10894367636E+02 -0.28187278064E+00 -0.12470028189E+02  0.16561047725E+02  0.51100000000E-03 0. -1.
        -11    1    3    3    0    0  0.12397613521E+02  0.98438834728E+01 -0.11091594498E+02  0.19329416226E+02  0.51100000000E-03 0.  1.
        -12    1    3    3    0    0  0.10394106762E+02 -0.10276151136E+02  0.80418685640E+00  0.14638423892E+02  0.00000000000E+00 0.  1.
</event>
<event>
 7    1  0.2945316E-011  0.5052885E+02  0.7816164E-02  0.1300439E+00
        -11   -1    0    0    0    0  0.00000000000E+00  0.00000000000E+00  0.45593999997E+02  0.45594000000E+02  0.51100000000E-03 0.  1.
         11   -1    0    0    0    0 -0.00000000000E+00 -0.00000000000E+00 -0.45593999997E+02  0.45594000000E+02  0.51100000000E-03 0. -1.
    9900012    2    1    2    0    0 -0.29446173260E+02  0.24904388819E+02 -0.12878698076E+02  0.50528848924E+02  0.29999966790E+02 0.  0.
        -12    1    1    2    0    0  0.29446173260E+02 -0.24904388819E+02  0.12878698076E+02  0.40659151076E+02  0.00000000000E+00 0.  1.
         11    1    3    3    0    0 -0.19147101475E+02  0.11383180632E+02 -0.15359703289E+00  0.22275813980E+02  0.51100000000E-03 0. -1.
        -11    1    3    3    0    0 -0.97667898735E+01 -0.16721261108E+01 -0.63423785522E+01  0.11764861075E+02  0.51100000000E-03 0.  1.
         12    1    3    3    0    0 -0.53228191145E+00  0.15193334298E+02 -0.63827224905E+01  0.16488173869E+02  0.00000000000E+00 0. -1.
</event>
<event>
 7    1  0.2945316E-011  0.5052885E+02  0.7816164E-02  0.1300439E+00
        -11   -1    0    0    0    0  0.00000000000E+00  0.00000000000E+00  0.45593999997E+02  0.45594000000E+02  0.51100000000E-03 0.  1.
         11   -1    0    0    0    0 -0.00000000000E+00 -0.00000000000E+00 -0.45593999997E+02  0.45594000000E+02  0.51100000000E-03 0. -1.
    9900012    2    1    2    0    0  0.83022539095E+01 -0.53843673583E+01 -0.39436624165E+02  0.50528853952E+02  0.29999982072E+02 0.  0.
        -12    1    1    2    0    0 -0.83022539095E+01  0.53843673583E+01  0.39436624165E+02  0.40659146048E+02  0.00000000000E+00 0.  1.
         11    1    3    3    0    0  0.83287120036E+01 -0.53741756496E+01 -0.34096420596E+01  0.10482121292E+02  0.51100000000E-03 0. -1.
        -11    1    3    3    0    0 -0.41586301540E+01  0.69589436988E+01 -0.10503613198E+02  0.13268270145E+02  0.51100000000E-03 0.  1.
         12    1    3    3    0    0  0.41321720599E+01 -0.69691354075E+01 -0.25523368907E+02  0.26778462515E+02  0.00000000000E+00 0. -1.
</event>
<event>
 7    1  0.2945316E-011  0.5052886E+02  0.7816164E-02  0.1300439E+00
        -11   -1    0    0    0    0  0.00000000000E+00  0.00000000000E+00  0.45593999997E+02  0.45594000000E+02  0.51100000000E-03 0. -1.
         11   -1    0    0    0    0 -0.00000000000E+00 -0.00000000000E+00 -0.45593999997E+02  0.45594000000E+02  0.51100000000E-03 0.  1.
    9900012    2    1    2    0    0  0.35761320005E+02  0.17712584102E+02  0.77818935915E+01  0.50528861889E+02  0.30000006198E+02 0.  0.
        -12    1    1    2    0    0 -0.35761320005E+02 -0.17712584102E+02 -0.77818935915E+01  0.40659138111E+02  0.00000000000E+00 0.  1.
         11    1    3    3    0    0  0.13465470040E+02  0.84118638942E+01  0.86388188138E+01  0.18075052651E+02  0.51100000000E-03 0. -1.
        -11    1    3    3    0    0 -0.20640212643E+01  0.59866634693E+01 -0.42644418739E+01  0.76345129531E+01  0.51100000000E-03 0.  1.
         12    1    3    3    0    0  0.24359871229E+02  0.33140567383E+01  0.34075166516E+01  0.24819296285E+02  0.00000000000E+00 0. -1.
</event>
<event>
 7    1  0.2945316E-011  0.5052886E+02  0.7816164E-02  0.1300439E+00
        -11   -1    0    0    0    0  0.00000000000E+00  0.00000000000E+00  0.45593999997E+02  0.45594000000E+02  0.51100000000E-03 0.  1.
         11   -1    0    0    0    0 -0.00000000000E+00 -0.00000000000E+00 -0.45593999997E+02  0.45594000000E+02  0.51100000000E-03 0. -1.
    9900012    2    1    2    0    0  0.54561912867E+01  0.39265309725E+02 -0.90350010712E+01  0.50528858156E+02  0.29999994850E+02 0.  0.
        -12    1    1    2    0    0 -0.54561912867E+01 -0.39265309725E+02  0.90350010712E+01  0.40659141844E+02  0.00000000000E+00 0.  1.
         11    1    3    3    0    0  0.14888122109E+01 -0.21140307729E+01  0.37559712181E+01  0.45599350829E+01  0.51100000000E-03 0. -1.
        -11    1    3    3    0    0 -0.49931298944E+00  0.31922528496E+02 -0.37531084264E+01  0.32146274468E+02  0.51100000000E-03 0.  1.
         12    1    3    3    0    0  0.44666920653E+01  0.94568120015E+01 -0.90378638628E+01  0.13822648604E+02  0.00000000000E+00 0. -1.
</event>
<event>
 7    1  0.2945316E-011  0.5052887E+02  0.7816164E-02  0.1300439E+00
        -11   -1    0    0    0    0  0.00000000000E+00  0.00000000000E+00  0.45593999997E+02  0.45594000000E+02  0.51100000000E-03 0. -1.
         11   -1    0    0    0    0 -0.00000000000E+00 -0.00000000000E+00 -0.45593999997E+02  0.45594000000E+02  0.51100000000E-03 0.  1.
    9900012    2    1    2    0    0 -0.13549017609E+02 -0.38275222801E+02 -0.21439450274E+01  0.50528867460E+02  0.30000023132E+02 0.  0.
        -12    1    1    2    0    0  0.13549017609E+02  0.38275222801E+02  0.21439450274E+01  0.40659132540E+02  0.00000000000E+00 0.  1.
         11    1    3    3    0    0  0.38868921174E+01 -0.22167394058E+02  0.25912915567E+01  0.22654272927E+02  0.51100000000E-03 0. -1.
        -11    1    3    3    0    0 -0.12100000592E+02 -0.14839422692E+02  0.19283857847E+01  0.19244145919E+02  0.51100000000E-03 0.  1.
        -12    1    3    3    0    0 -0.53359091351E+01 -0.12684060504E+01 -0.66636223688E+01  0.86304486141E+01  0.00000000000E+00 0.  1.
</event>
<event>
 7    1  0.2945316E-011  0.5052886E+02  0.7816164E-02  0.1300439E+00
        -11   -1    0    0    0    0  0.00000000000E+00  0.00000000000E+00  0.45593999997E+02  0.45594000000E+02  0.51100000000E-03 0. -1.
         11   -1    0    0    0    0 -0.00000000000E+00 -0.00000000000E+00 -0.45593999997E+02  0.45594000000E+02  0.51100000000E-03 0.  1.
    9900012    2    1    2    0    0 -0.22864111988E+02  0.24608769844E+02 -0.22908662888E+02  0.50528855818E+02  0.29999987746E+02 0.  0.
        -12    1    1    2    0    0  0.22864111988E+02 -0.24608769844E+02  0.22908662888E+02  0.40659144182E+02  0.00000000000E+00 0.  1.
         11    1    3    3    0    0 -0.75466657522E+01  0.20590073608E+02 -0.11259066861E+02  0.24650961077E+02  0.51100000000E-03 0. -1.
        -11    1    3    3    0    0 -0.87590446384E+01  0.10512401380E+02 -0.85831938444E+01  0.16152481623E+02  0.51100000000E-03 0.  1.
        -12    1    3    3    0    0 -0.65584015971E+01 -0.64937051428E+01 -0.30664021826E+01  0.97254131190E+01  0.00000000000E+00 0.  1.
</event>
<event>
 7    1  0.2945316E-011  0.5052887E+02  0.7816164E-02  0.1300439E+00
        -11   -1    0    0    0    0  0.00000000000E+00  0.00000000000E+00  0.45593999997E+02  0.45594000000E+02  0.51100000000E-03 0.  1.
         11   -1    0    0    0    0 -0.00000000000E+00 -0.00000000000E+00 -0.45593999997E+02  0.45594000000E+02  0.51100000000E-03 0. -1.
    9900012    2    1    2    0    0  0.15892425575E+02 -0.32789192276E+02 -0.18040646389E+02  0.50528865197E+02  0.30000016254E+02 0.  0.
        -12    1    1    2    0    0 -0.15892425575E+02  0.32789192276E+02  0.18040646389E+02  0.40659134803E+02  0.00000000000E+00 0.  1.
         11    1    3    3    0    0  0.59059767832E+01 -0.87683723315E+01 -0.12974494358E+02  0.16736260611E+02  0.51100000000E-03 0. -1.
        -11    1    3    3    0    0  0.34624509547E+01 -0.20423306617E+02 -0.11722853794E+02  0.23801792393E+02  0.51100000000E-03 0.  1.
        -12    1    3    3    0    0  0.65239978374E+01 -0.35975133275E+01  0.66567017635E+01  0.99908121938E+01  0.00000000000E+00 0.  1.
</event>
<event>
 7    1  0.2945316E-011  0.5052887E+02  0.7816164E-02  0.1300439E+00
        -11   -1    0    0    0    0  0.00000000000E+00  0.00000000000E+00  0.45593999997E+02  0.45594000000E+02  0.51100000000E-03 0. -1.
         11   -1    0    0    0    0 -0.00000000000E+00 -0.00000000000E+00 -0.45593999997E+02  0.45594000000E+02  0.51100000000E-03 0.  1.
    9900012    2    1    2    0    0 -0.37188197461E+02 -0.63571343439E+01  0.15158817995E+02  0.50528868793E+02  0.30000027185E+02 0.  0.
        -12    1    1    2    0    0  0.37188197461E+02  0.63571343439E+01 -0.15158817995E+02  0.40659131207E+02  0.00000000000E+00 0.  1.
         11    1    3    3    0    0 -0.35188026952E+01 -0.52937461471E+00  0.12405382797E+02  0.12905647310E+02  0.51100000000E-03 0. -1.
        -11    1    3    3    0    0  0.63610820278E+00  0.20473352059E+01 -0.70282145091E+00  0.22561412509E+01  0.51100000000E-03 0.  1.
        -12    1    3    3    0    0 -0.34305502968E+02 -0.78750949351E+01  0.34562566493E+01  0.35367080233E+02  0.00000000000E+00 0.  1.
</event>
<event>
 7    1  0.2945316E-011  0.5052885E+02  0.7816164E-02  0.1300439E+00
        -11   -1    0    0    0    0  0.00000000000E+00  0.00000000000E+00  0.45593999997E+02  0.45594000000E+02  0.51100000000E-03 0. -1.
         11   -1    0    0    0    0 -0.00000000000E+00 -0.00000000000E+00 -0.45593999997E+02  0.45594000000E+02  0.51100000000E-03 0.  1.
    9900012    2    1    2    0    0  0.31743953669E+02  0.62691226911E+01  0.24620837322E+02  0.50528854359E+02  0.29999983310E+02 0.  0.
        -12    1    1    2    0    0 -0.31743953669E+02 -0.62691226911E+01 -0.24620837322E+02  0.40659145641E+02  0.00000000000E+00 0.  1.
         11    1    3    3    0    0  0.14901365511E+02 -0.82524706689E+00  0.18359614086E+02  0.23660244218E+02  0.51100000000E-03 0. -1.
        -11    1    3    3    0    0  0.16676495568E+01 -0.43293962798E+01  0.63621333060E+01  0.78741010697E+01  0.51100000000E-03 0.  1.
         12    1    3    3    0    0  0.15174938601E+02  0.11423766038E+02 -0.10091007017E+00  0.18994509071E+02  0.00000000000E+00 0. -1.
</event>
<event>
 7    1  0.2945316E-011  0.5052886E+02  0.7816164E-02  0.1300439E+00
        -11   -1    0    0    0    0  0.00000000000E+00  0.00000000000E+00  0.45593999997E+02  0.45594000000E+02  0.51100000000E-03 0.  1.
         11   -1    0    0    0    0 -0.00000000000E+00 -0.00000000000E+00 -0.45593999997E+02  0.45594000000E+02  0.51100000000E-03 0. -1.
    9900012    2    1    2    0    0 -0.64323119898E+01  0.10946424831E+01 -0.40132192652E+02  0.50528858755E+02  0.29999996673E+02 0.  0.
        -12    1    1    2    0    0  0.64323119898E+01 -0.10946424831E+01  0.40132192652E+02  0.40659141245E+02  0.00000000000E+00 0.  1.
         11    1    3    3    0    0  0.15314630352E+01  0.40085987905E+01  0.26175380989E+01  0.50265046754E+01  0.51100000000E-03 0. -1.
        -11    1    3    3    0    0 -0.30953066986E+01  0.31268754268E+01 -0.38810828384E+01  0.58669479078E+01  0.51100000000E-03 0.  1.
         12    1    3    3    0    0 -0.48684683264E+01 -0.60408317342E+01 -0.38868647912E+02  0.39635406172E+02  0.00000000000E+00 0. -1.
</event>
<event>
 7    1  0.2945316E-011  0.5052891E+02  0.7816164E-02  0.1300439E+00
        -11   -1    0    0    0    0  0.00000000000E+00  0.00000000000E+00  0.45593999997E+02  0.45594000000E+02  0.51100000000E-03 0. -1.
         11   -1    0    0    0    0 -0.00000000000E+00 -0.00000000000E+00 -0.45593999997E+02  0.45594000000E+02  0.51100000000E-03 0.  1.
    9900012    2    1    2    0    0 -0.46525844021E+01 -0.19758468316E+02 -0.35229508279E+02  0.50528906732E+02  0.30000142501E+02 0.  0.
        -12    1    1    2    0    0  0.46525844021E+01  0.19758468316E+02  0.35229508279E+02  0.40659093268E+02  0.00000000000E+00 0.  1.
         11    1    3    3    0    0 -0.50705000599E+00 -0.10550979897E+02 -0.23731137300E+02  0.25975895641E+02  0.51100000000E-03 0. -1.
        -11    1    3    3    0    0 -0.76345138276E+01  0.32512314609E+01 -0.20938013461E+01  0.85580553710E+01  0.51100000000E-03 0.  1.
         12    1    3    3    0    0  0.34889794314E+01 -0.12458719880E+02 -0.94045696327E+01  0.15994955720E+02  0.00000000000E+00 0. -1.
</event>
<event>
 7    1  0.2945316E-011  0.5052886E+02  0.7816164E-02  0.1300439E+00
        -11   -1    0    0    0    0  0.00000000000E+00  0.00000000000E+00  0.45593999997E+02  0.45594000000E+02  0.51100000000E-03 0.  1.
         11   -1    0    0    0    0 -0.00000000000E+00 -0.00000000000E+00 -0.45593999997E+02  0.45594000000E+02  0.51100000000E-03 0. -1.
    9900012    2    1    2    0    0 -0.26430773858E+02 -0.21739361167E+02 -0.21954045629E+02  0.50528858959E+02  0.29999997293E+02 0.  0.
        -12    1    1    2    0    0  0.26430773858E+02  0.21739361167E+02  0.21954045629E+02  0.40659141041E+02  0.00000000000E+00 0.  1.
         11    1    3    3    0    0 -0.10541009628E+02 -0.12539915487E+02 -0.23810609483E+02  0.28901686605E+02  0.51100000000E-03 0. -1.
        -11    1    3    3    0    0 -0.73128416505E+01  0.11650102929E+00 -0.32113449190E+01  0.79877382246E+01  0.51100000000E-03 0.  1.
         12    1    3    3    0    0 -0.85769225796E+01 -0.93159467094E+01  0.50679087738E+01  0.13639434129E+02  0.00000000000E+00 0. -1.
</event>
<event>
 7    1  0.2945316E-011  0.5052887E+02  0.7816164E-02  0.1300439E+00
        -11   -1    0    0    0    0  0.00000000000E+00  0.00000000000E+00  0.45593999997E+02  0.45594000000E+02  0.51100000000E-03 0. -1.
         11   -1    0    0    0    0 -0.00000000000E+00 -0.00000000000E+00 -0.45593999997E+02  0.45594000000E+02  0.51100000000E-03 0.  1.
    9900012    2    1    2    0    0  0.34165990707E+02 -0.20338657641E+02  0.84964307615E+01  0.50528865093E+02  0.30000015938E+02 0.  0.
        -12    1    1    2    0    0 -0.34165990707E+02  0.20338657641E+02 -0.84964307615E+01  0.40659134907E+02  0.00000000000E+00 0.  1.
         11    1    3    3    0    0  0.78513001051E+01 -0.48460389264E+01 -0.78711446244E+01  0.12127733695E+02  0.51100000000E-03 0. -1.
        -11    1    3    3    0    0  0.20226144375E+01 -0.39010974613E+01 -0.29305847254E+01  0.52818422600E+01  0.51100000000E-03 0.  1.
         12    1    3    3    0    0  0.24292076165E+02 -0.11591521253E+02  0.19298160111E+02  0.33119289139E+02  0.00000000000E+00 0. -1.
</event>
<event>
 7    1  0.2945316E-011  0.5052886E+02  0.7816164E-02  0.1300439E+00
        -11   -1    0    0    0    0  0.00000000000E+00  0.00000000000E+00  0.45593999997E+02  0.45594000000E+02  0.51100000000E-03 0.  1.
         11   -1    0    0    0    0 -0.00000000000E+00 -0.00000000000E+00 -0.45593999997E+02  0.45594000000E+02  0.51100000000E-03 0. -1.
    9900012    2    1    2    0    0 -0.31604678314E+02  0.10364315636E+02 -0.23385701516E+02  0.50528858772E+02  0.29999996724E+02 0.  0.
        -12    1    1    2    0    0  0.31604678314E+02 -0.10364315636E+02  0.23385701516E+02  0.40659141228E+02  0.00000000000E+00 0.  1.
         11    1    3    3    0    0 -0.84404840064E+01 -0.28112620209E+01 -0.33401794520E+01  0.95027240013E+01  0.51100000000E-03 0. -1.
        -11    1    3    3    0    0 -0.67988846490E+01 -0.44753476621E+01  0.20045723243E+01  0.83828324349E+01  0.51100000000E-03 0.  1.
        -12    1    3    3    0    0 -0.16365309659E+02  0.17650925319E+02 -0.22050094389E+02  0.32643302336E+02  0.00000000000E+00 0.  1.
</event>
<event>
 7    1  0.2945316E-011  0.5052885E+02  0.7816164E-02  0.1300439E+00
        -11   -1    0    0    0    0  0.00000000000E+00  0.00000000000E+00  0.45593999997E+02  0.45594000000E+02  0.51100000000E-03 0.  1.
         11   -1    0    0    0    0 -0.00000000000E+00 -0.00000000000E+00 -0.45593999997E+02  0.45594000000E+02  0.51100000000E-03 0. -1.
    9900012    2    1    2    0    0  0.75502642490E+01  0.32285980423E+02 -0.23532435405E+02  0.50528849269E+02  0.29999967837E+02 0.  0.
        -12    1    1    2    0    0 -0.75502642490E+01 -0.32285980423E+02  0.23532435405E+02  0.40659150731E+02  0.00000000000E+00 0.  1.
         11    1    3    3    0    0 -0.59792847817E+01  0.20187155435E+02 -0.15037552964E+02  0.25872786678E+02  0.51100000000E-03 0. -1.
        -11    1    3    3    0    0 -0.58821563739E+00  0.29196665663E+01 -0.71706650657E+01  0.77645919558E+01  0.51100000000E-03 0.  1.
        -12    1    3    3    0    0  0.14117764668E+02  0.91791584223E+01 -0.13242173747E+01  0.16891470635E+02  0.00000000000E+00 0.  1.
</event>
<event>
 7    1  0.2945316E-011  0.5052885E+02  0.7816164E-02  0.1300439E+00
        -11   -1    0    0    0    0  0.00000000000E+00  0.00000000000E+00  0.45593999997E+02  0.45594000000E+02  0.51100000000E-03 0.  1.
         11   -1    0    0    0    0 -0.00000000000E+00 -0.00000000000E+00 -0.45593999997E+02  0.45594000000E+02  0.51100000000E-03 0. -1.
    9900012    2    1    2    0    0 -0.28138947737E+02 -0.68649210960E+01 -0.28534874050E+02  0.50528849020E+02  0.29999967081E+02 0.  0.
        -12    1    1    2    0    0  0.28138947737E+02  0.68649210960E+01  0.28534874050E+02  0.40659150980E+02  0.00000000000E+00 0.  1.
         11    1    3    3    0    0 -0.89037886299E+01 -0.52666353318E+01 -0.21014681010E+02  0.23422888761E+02  0.51100000000E-03 0. -1.
        -11    1    3    3    0    0 -0.20523814636E+02  0.17153685639E+01 -0.98760387571E+01  0.22840875603E+02  0.51100000000E-03 0.  1.
        -12    1    3    3    0    0  0.12886555294E+01 -0.33136543282E+01  0.23558457171E+01  0.42650846560E+01  0.00000000000E+00 0.  1.
</event>
<event>
 7    1  0.2945316E-011  0.5052886E+02  0.7816164E-02  0.1300439E+00
        -11   -1    0    0    0    0  0.00000000000E+00  0.00000000000E+00  0.45593999997E+02  0.45594000000E+02  0.51100000000E-03 0. -1.
         11   -1    0    0    0    0 -0.00000000000E+00 -0.00000000000E+00 -0.45593999997E+02  0.45594000000E+02  0.51100000000E-03 0.  1.
    9900012    2    1    2    0    0 -0.82190356239E+01 -0.27361046559E+02  0.28930720794E+02  0.50528855628E+02  0.29999987168E+02 0.  0.
        -12    1    1    2    0    0  0.82190356239E+01  0.27361046559E+02 -0.28930720794E+02  0.40659144372E+02  0.00000000000E+00 0.  1.
         11    1    3    3    0    0 -0.13978052066E+01 -0.15654461069E+01  0.10901300304E+02  0.11101478707E+02  0.51100000000E-03 0. -1.
        -11    1    3    3    0    0  0.59031331407E+01 -0.22006149207E+01  0.93030396350E+01  0.11235489914E+02  0.51100000000E-03 0.  1.
        -12    1    3    3    0    0 -0.12724363558E+02 -0.23594985531E+02  0.87263808553E+01  0.28191887007E+02  0.00000000000E+00 0.  1.
</event>
<event>
 7    1  0.2945316E-011  0.5052887E+02  0.7816164E-02  0.1300439E+00
        -11   -1    0    0    0    0  0.00000000000E+00  0.00000000000E+00  0.45593999997E+02  0.45594000000E+02  0.51100000000E-03 0. -1.
         11   -1    0    0    0    0 -0.00000000000E+00 -0.00000000000E+00 -0.45593999997E+02  0.45594000000E+02  0.51100000000E-03 0.  1.
    9900012    2    1    2    0    0  0.30253465335E+02 -0.15810557022E+02  0.22088897176E+02  0.50528865030E+02  0.30000015745E+02 0.  0.
        -12    1    1    2    0    0 -0.30253465335E+02  0.15810557022E+02 -0.22088897176E+02  0.40659134970E+02  0.00000000000E+00 0.  1.
         11    1    3    3    0    0  0.17496352578E+02 -0.30965342006E+01  0.11638709948E+02  0.21240773223E+02  0.51100000000E-03 0. -1.
        -11    1    3    3    0    0  0.46011606822E+01  0.65332073401E+00  0.12648743938E+02  0.13475467750E+02  0.51100000000E-03 0.  1.
         12    1    3    3    0    0  0.81559520740E+01 -0.13367343555E+02 -0.21985567106E+01  0.15812624057E+02  0.00000000000E+00 0. -1.
</event>
<event>
 7    1  0.2945316E-011  0.5052886E+02  0.7816164E-02  0.1300439E+00
        -11   -1    0    0    0    0  0.00000000000E+00  0.00000000000E+00  0.45593999997E+02  0.45594000000E+02  0.51100000000E-03 0. -1.
         11   -1    0    0    0    0 -0.00000000000E+00 -0.00000000000E+00 -0.45593999997E+02  0.45594000000E+02  0.51100000000E-03 0.  1.
    9900012    2    1    2    0    0  0.16510541311E+02  0.90952712377E+01  0.36025599694E+02  0.50528858758E+02  0.29999996680E+02 0.  0.
        -12    1    1    2    0    0 -0.16510541311E+02 -0.90952712377E+01 -0.36025599694E+02  0.40659141242E+02  0.00000000000E+00 0.  1.
         11    1    3    3    0    0  0.12158145148E+01  0.43909961411E+01  0.15357739272E+01  0.48080821397E+01  0.51100000000E-03 0. -1.
        -11    1    3    3    0    0 -0.33656695647E+01 -0.28039692794E+01 -0.13828698561E+01  0.45937244844E+01  0.51100000000E-03 0.  1.
         12    1    3    3    0    0  0.18660396361E+02  0.75082443760E+01  0.35872695622E+02  0.41127052134E+02  0.00000000000E+00 0. -1.
</event>
<event>
 7    1  0.2945316E-011  0.5052886E+02  0.7816164E-02  0.1300439E+00
        -11   -1    0    0    0    0  0.00000000000E+00  0.00000000000E+00  0.45593999997E+02  0.45594000000E+02  0.51100000000E-03 0.  1.
         11   -1    0    0    0    0 -0.00000000000E+00 -0.00000000000E+00 -0.45593999997E+02  0.45594000000E+02  0.51100000000E-03 0. -1.
    9900012    2    1    2    0    0 -0.11621379813E+02 -0.34470969576E+02 -0.18162085583E+02  0.50528861236E+02  0.30000004214E+02 0.  0.
        -12    1    1    2    0    0  0.11621379813E+02  0.34470969576E+02  0.18162085583E+02  0.40659138764E+02  0.00000000000E+00 0.  1.
         11    1    3    3    0    0  0.82444280494E+00 -0.14261511443E+02 -0.54234493030E+01  0.15280190352E+02  0.51100000000E-03 0. -1.
        -11    1    3    3    0    0  0.37759257049E+01 -0.10189756670E+02 -0.11969343572E+02  0.16166444931E+02  0.51100000000E-03 0.  1.
        -12    1    3    3    0    0 -0.16221748323E+02 -0.10019701463E+02 -0.76929270754E+00  0.19082225953E+02  0.00000000000E+00 0.  1.
</event>
<event>
 7    1  0.2945316E-011  0.5052886E+02  0.7816164E-02  0.1300439E+00
        -11   -1    0    0    0    0  0.00000000000E+00  0.00000000000E+00  0.45593999997E+02  0.45594000000E+02  0.51100000000E-03 0.  1.
         11   -1    0    0    0    0 -0.00000000000E+00 -0.00000000000E+00 -0.45593999997E+02  0.45594000000E+02  0.51100000000E-03 0. -1.
    9900012    2    1    2    0    0  0.31934629344E+02 -0.11581363728E+01 -0.25139685593E+02  0.50528860524E+02  0.30000002049E+02 0.  0.
        -12    1    1    2    0    0 -0.31934629344E+02  0.11581363728E+01  0.25139685593E+02  0.40659139476E+02  0.00000000000E+00 0.  1.
         11    1    3    3    0    0  0.23970999826E+01 -0.41010612909E+01 -0.68037734095E+01  0.82979590808E+01  0.51100000000E-03 0.  1.
        -11    1    3    3    0    0  0.92413350774E+01 -0.10270403398E+02 -0.62383390701E+01  0.15159166685E+02  0.51100000000E-03 0. -1.
         12    1    3    3    0    0  0.20296194284E+02  0.13213328316E+02 -0.12097573113E+02  0.27071734758E+02  0.00000000000E+00 0. -1.
</event>
<event>
 7    1  0.2945316E-011  0.5052886E+02  0.7816164E-02  0.1300439E+00
        -11   -1    0    0    0    0  0.00000000000E+00  0.00000000000E+00  0.45593999997E+02  0.45594000000E+02  0.51100000000E-03 0.  1.
         11   -1    0    0    0    0 -0.00000000000E+00 -0.00000000000E+00 -0.45593999997E+02  0.45594000000E+02  0.51100000000E-03 0. -1.
    9900012    2    1    2    0    0 -0.69028311854E+01 -0.17093495274E+02 -0.36239882546E+02  0.50528859011E+02  0.29999997449E+02 0.  0.
        -12    1    1    2    0    0  0.69028311854E+01  0.17093495274E+02  0.36239882546E+02  0.40659140989E+02  0.00000000000E+00 0.  1.
         11    1    3    3    0    0 -0.49663267489E+01 -0.18251321015E+02 -0.27125212258E+02  0.33068901712E+02  0.51100000000E-03 0. -1.
        -11    1    3    3    0    0 -0.47920868566E+01 -0.18428767963E+01 -0.11560611253E+02  0.12649427819E+02  0.51100000000E-03 0.  1.
        -12    1    3    3    0    0  0.28555824200E+01  0.30007025370E+01  0.24459409651E+01  0.48105294800E+01  0.00000000000E+00 0.  1.
</event>
<event>
 7    1  0.2945316E-011  0.5052886E+02  0.7816164E-02  0.1300439E+00
        -11   -1    0    0    0    0  0.00000000000E+00  0.00000000000E+00  0.45593999997E+02  0.45594000000E+02  0.51100000000E-03 0.  1.
         11   -1    0    0    0    0 -0.00000000000E+00 -0.00000000000E+00 -0.45593999997E+02  0.45594000000E+02  0.51100000000E-03 0. -1.
    9900012    2    1    2    0    0  0.38192946876E+02  0.10515539770E+02 -0.91590503736E+01  0.50528856238E+02  0.29999989021E+02 0.  0.
        -12    1    1    2    0    0 -0.38192946876E+02 -0.10515539770E+02  0.91590503736E+01  0.40659143762E+02  0.00000000000E+00 0.  1.
         11    1    3    3    0    0  0.23464368811E+02  0.15370359902E+02  0.35435344154E+01  0.28273330253E+02  0.51100000000E-03 0. -1.
        -11    1    3    3    0    0  0.49519443680E+00  0.22924583302E+01 -0.15231146456E+01  0.27965087539E+01  0.51100000000E-03 0.  1.
         12    1    3    3    0    0  0.14233383628E+02 -0.71472784614E+01 -0.11179470143E+02  0.19459017231E+02  0.00000000000E+00 0. -1.
</event>
<event>
 7    1  0.2945316E-011  0.5052886E+02  0.7816164E-02  0.1300439E+00
        -11   -1    0    0    0    0  0.00000000000E+00  0.00000000000E+00  0.45593999997E+02  0.45594000000E+02  0.51100000000E-03 0.  1.
         11   -1    0    0    0    0 -0.00000000000E+00 -0.00000000000E+00 -0.45593999997E+02  0.45594000000E+02  0.51100000000E-03 0. -1.
    9900012    2    1    2    0    0 -0.11883177208E+02  0.21967029046E+02 -0.32084346464E+02  0.50528861376E+02  0.30000004637E+02 0.  0.
        -12    1    1    2    0    0  0.11883177208E+02 -0.21967029046E+02  0.32084346464E+02  0.40659138624E+02  0.00000000000E+00 0.  1.
         11    1    3    3    0    0 -0.25384979857E+01  0.45142612117E+01 -0.13000235519E+02  0.13993879024E+02  0.51100000000E-03 0. -1.
        -11    1    3    3    0    0 -0.11327269358E+02  0.16799541388E+02 -0.23872257862E+02  0.31311600369E+02  0.51100000000E-03 0.  1.
         12    1    3    3    0    0  0.19825901354E+01  0.65322644678E+00  0.47881469178E+01  0.52233819832E+01  0.00000000000E+00 0. -1.
</event>
<event>
 7    1  0.2945316E-011  0.5052885E+02  0.7816164E-02  0.1300439E+00
        -11   -1    0    0    0    0  0.00000000000E+00  0.00000000000E+00  0.45593999997E+02  0.45594000000E+02  0.51100000000E-03 0.  1.
         11   -1    0    0    0    0 -0.00000000000E+00 -0.00000000000E+00 -0.45593999997E+02  0.45594000000E+02  0.51100000000E-03 0. -1.
    9900012    2    1    2    0    0  0.21136492273E+02  0.34036819591E+02 -0.69216902827E+01  0.50528853552E+02  0.29999980858E+02 0.  0.
        -12    1    1    2    0    0 -0.21136492273E+02 -0.34036819591E+02  0.69216902827E+01  0.40659146448E+02  0.00000000000E+00 0.  1.
         11    1    3    3    0    0  0.12903708701E+01  0.16089292542E+01 -0.57417295620E+01  0.61009154191E+01  0.51100000000E-03 0. -1.
        -11    1    3    3    0    0 -0.45572412598E+01  0.77619801564E+01 -0.34889736805E+01  0.96534823485E+01  0.51100000000E-03 0.  1.
         12    1    3    3    0    0  0.24403362663E+02  0.24665910180E+02  0.23090129598E+01  0.34774455785E+02  0.00000000000E+00 0. -1.
</event>
<event>
 7    1  0.2945316E-011  0.5052881E+02  0.7816164E-02  0.1300439E+00
        -11   -1    0    0    0    0  0.00000000000E+00  0.00000000000E+00  0.45593999997E+02  0.45594000000E+02  0.51100000000E-03 0.  1.
         11   -1    0    0    0    0 -0.00000000000E+00 -0.00000000000E+00 -0.45593999997E+02  0.45594000000E+02  0.51100000000E-03 0. -1.
    9900012    2    1    2    0    0  0.52801277914E+01  0.22675110113E+02 -0.33333607287E+02  0.50528809859E+02  0.29999848047E+02 0.  0.
        -12    1    1    2    0    0 -0.52801277914E+01 -0.22675110113E+02  0.33333607287E+02  0.40659190141E+02  0.00000000000E+00 0.  1.
         11    1    3    3    0    0  0.18352835850E+01 -0.79410565170E+00 -0.11757122210E+01  0.23197347071E+01  0.51100000000E-03 0. -1.
        -11    1    3    3    0    0  0.14648571907E+02  0.92872422682E+01 -0.19757577543E+02  0.26290595248E+02  0.51100000000E-03 0.  1.
         12    1    3    3    0    0 -0.11203727700E+02  0.14181973496E+02 -0.12400317524E+02  0.21918479905E+02  0.00000000000E+00 0. -1.
</event>
<event>
 7    1  0.2945316E-011  0.5052887E+02  0.7816164E-02  0.1300439E+00
        -11   -1    0    0    0    0  0.00000000000E+00  0.00000000000E+00  0.45593999997E+02  0.45594000000E+02  0.51100000000E-03 0. -1.
         11   -1    0    0    0    0 -0.00000000000E+00 -0.00000000000E+00 -0.45593999997E+02  0.45594000000E+02  0.51100000000E-03 0.  1.
    9900012    2    1    2    0    0  0.23149756646E+02 -0.42127691271E+01  0.33158802865E+02  0.50528869858E+02  0.30000030419E+02 0.  0.
        -12    1    1    2    0    0 -0.23149756646E+02  0.42127691271E+01 -0.33158802865E+02  0.40659130142E+02  0.00000000000E+00 0.  1.
         11    1    3    3    0    0  0.63892919361E+01  0.11015675572E+01  0.12195098728E+02  0.13811478407E+02  0.51100000000E-03 0. -1.
        -11    1    3    3    0    0  0.99703945776E+01  0.74497298894E+01  0.18119802486E+02  0.21982595066E+02  0.51100000000E-03 0.  1.
        -12    1    3    3    0    0  0.67900701322E+01 -0.12764066574E+02  0.28439016513E+01  0.14734796385E+02  0.00000000000E+00 0.  1.
</event>
<event>
 7    1  0.2945316E-011  0.5052887E+02  0.7816164E-02  0.1300439E+00
        -11   -1    0    0    0    0  0.00000000000E+00  0.00000000000E+00  0.45593999997E+02  0.45594000000E+02  0.51100000000E-03 0. -1.
         11   -1    0    0    0    0 -0.00000000000E+00 -0.00000000000E+00 -0.45593999997E+02  0.45594000000E+02  0.51100000000E-03 0.  1.
    9900012    2    1    2    0    0  0.24846876693E+02 -0.16841761603E+02  0.27425400755E+02  0.50528870375E+02  0.30000031991E+02 0.  0.
        -12    1    1    2    0    0 -0.24846876693E+02  0.16841761603E+02 -0.27425400755E+02  0.40659129625E+02  0.00000000000E+00 0.  1.
         11    1    3    3    0    0  0.22257417680E+01 -0.13289058650E+02  0.13666580564E+02  0.19191884504E+02  0.51100000000E-03 0. -1.
        -11    1    3    3    0    0  0.19260602119E+02 -0.78873375225E+01  0.56832971660E+01  0.21575002992E+02  0.51100000000E-03 0.  1.
        -12    1    3    3    0    0  0.33605328058E+01  0.43346345698E+01  0.80755230250E+01  0.97619828785E+01  0.00000000000E+00 0.  1.
</event>
<event>
 7    1  0.2945316E-011  0.5052886E+02  0.7816164E-02  0.1300439E+00
        -11   -1    0    0    0    0  0.00000000000E+00  0.00000000000E+00  0.45593999997E+02  0.45594000000E+02  0.51100000000E-03 0.  1.
         11   -1    0    0    0    0 -0.00000000000E+00 -0.00000000000E+00 -0.45593999997E+02  0.45594000000E+02  0.51100000000E-03 0. -1.
    9900012    2    1    2    0    0  0.26206993605E+02 -0.24833679155E+02 -0.18698869517E+02  0.50528857665E+02  0.29999993358E+02 0.  0.
        -12    1    1    2    0    0 -0.26206993605E+02  0.24833679155E+02  0.18698869517E+02  0.40659142335E+02  0.00000000000E+00 0.  1.
         11    1    3    3    0    0  0.74825362390E+01 -0.82887289237E+01 -0.28310119902E+01  0.11519809238E+02  0.51100000000E-03 0. -1.
        -11    1    3    3    0    0  0.18115462980E+02 -0.20565776263E+02 -0.19436093266E+02  0.33598852272E+02  0.51100000000E-03 0.  1.
        -12    1    3    3    0    0  0.60899438647E+00  0.40208260323E+01  0.35682357387E+01  0.54101961546E+01  0.00000000000E+00 0.  1.
</event>
<event>
 7    1  0.2945316E-011  0.5052886E+02  0.7816164E-02  0.1300439E+00
        -11   -1    0    0    0    0  0.00000000000E+00  0.00000000000E+00  0.45593999997E+02  0.45594000000E+02  0.51100000000E-03 0.  1.
         11   -1    0    0    0    0 -0.00000000000E+00 -0.00000000000E+00 -0.45593999997E+02  0.45594000000E+02  0.51100000000E-03 0. -1.
    9900012    2    1    2    0    0 -0.23371455062E+02 -0.18634984174E+02 -0.27562258324E+02  0.50528860427E+02  0.30000001754E+02 0.  0.
        -12    1    1    2    0    0  0.23371455062E+02  0.18634984174E+02  0.27562258324E+02  0.40659139573E+02  0.00000000000E+00 0.  1.
         11    1    3    3    0    0 -0.60262322606E+01 -0.16324897256E+02 -0.32692326675E+01  0.17706090143E+02  0.51100000000E-03 0. -1.
        -11    1    3    3    0    0  0.18719815826E+01  0.15661000445E+01 -0.32260639600E+01  0.40453026253E+01  0.51100000000E-03 0.  1.
        -12    1    3    3    0    0 -0.19217204384E+02 -0.38761869624E+01 -0.21066961696E+02  0.28777467659E+02  0.00000000000E+00 0.  1.
</event>
<event>
 7    1  0.2945316E-011  0.5052886E+02  0.7816164E-02  0.1300439E+00
        -11   -1    0    0    0    0  0.00000000000E+00  0.00000000000E+00  0.45593999997E+02  0.45594000000E+02  0.51100000000E-03 0.  1.
         11   -1    0    0    0    0 -0.00000000000E+00 -0.00000000000E+00 -0.45593999997E+02  0.45594000000E+02  0.51100000000E-03 0. -1.
    9900012    2    1    2    0    0 -0.32255001785E+02  0.19618896085E+02 -0.15095672109E+02  0.50528861542E+02  0.30000005143E+02 0.  0.
        -12    1    1    2    0    0  0.32255001785E+02 -0.19618896085E+02  0.15095672109E+02  0.40659138458E+02  0.00000000000E+00 0.  1.
         11    1    3    3    0    0 -0.27355124359E+02  0.11927228631E+02 -0.25541335950E+01  0.29951380773E+02  0.51100000000E-03 0. -1.
        -11    1    3    3    0    0 -0.32481256942E+01 -0.13273333392E+01  0.14929793372E+01  0.38132822976E+01  0.51100000000E-03 0.  1.
        -12    1    3    3    0    0 -0.16517517317E+01  0.90190007933E+01 -0.14034517851E+02  0.16764198472E+02  0.00000000000E+00 0.  1.
</event>
<event>
 7    1  0.2945316E-011  0.5052890E+02  0.7816164E-02  0.1300439E+00
        -11   -1    0    0    0    0  0.00000000000E+00  0.00000000000E+00  0.45593999997E+02  0.45594000000E+02  0.51100000000E-03 0.  1.
         11   -1    0    0    0    0 -0.00000000000E+00 -0.00000000000E+00 -0.45593999997E+02  0.45594000000E+02  0.51100000000E-03 0. -1.
    9900012    2    1    2    0    0  0.26788487664E+02  0.27191636239E+02 -0.14005500872E+02  0.50528902526E+02  0.30000129718E+02 0.  0.
        -12    1    1    2    0    0 -0.26788487664E+02 -0.27191636239E+02  0.14005500872E+02  0.40659097474E+02  0.00000000000E+00 0.  1.
         11    1    3    3    0    0  0.87685226912E+00  0.11211595633E+02  0.42214661520E+01  0.12012057412E+02  0.51100000000E-03 0. -1.
        -11    1    3    3    0    0 -0.75018115130E+00  0.43186323036E+01 -0.46976482019E+01  0.64250490756E+01  0.51100000000E-03 0.  1.
         12    1    3    3    0    0  0.26661816547E+02  0.11661408303E+02 -0.13529318822E+02  0.32091796038E+02  0.00000000000E+00 0. -1.
</event>
<event>
 7    1  0.2945316E-011  0.5052888E+02  0.7816164E-02  0.1300439E+00
        -11   -1    0    0    0    0  0.00000000000E+00  0.00000000000E+00  0.45593999997E+02  0.45594000000E+02  0.51100000000E-03 0.  1.
         11   -1    0    0    0    0 -0.00000000000E+00 -0.00000000000E+00 -0.45593999997E+02  0.45594000000E+02  0.51100000000E-03 0. -1.
    9900012    2    1    2    0    0  0.25875558689E+02  0.21079385274E+02 -0.23222373188E+02  0.50528884939E+02  0.30000076261E+02 0.  0.
        -12    1    1    2    0    0 -0.25875558689E+02 -0.21079385274E+02  0.23222373188E+02  0.40659115061E+02  0.00000000000E+00 0.  1.
         11    1    3    3    0    0  0.16902920120E+02  0.27500006012E+01 -0.19564287837E+02  0.26000626353E+02  0.51100000000E-03 0. -1.
        -11    1    3    3    0    0  0.10874622548E+01 -0.44289701589E+00  0.29067862284E+01  0.31349861819E+01  0.51100000000E-03 0.  1.
        -12    1    3    3    0    0  0.78851763141E+01  0.18772281689E+02 -0.65648715795E+01  0.21393272404E+02  0.00000000000E+00 0.  1.
</event>
<event>
 7    1  0.2945316E-011  0.5052887E+02  0.7816164E-02  0.1300439E+00
        -11   -1    0    0    0    0  0.00000000000E+00  0.00000000000E+00  0.45593999997E+02  0.45594000000E+02  0.51100000000E-03 0.  1.
         11   -1    0    0    0    0 -0.00000000000E+00 -0.00000000000E+00 -0.45593999997E+02  0.45594000000E+02  0.51100000000E-03 0. -1.
    9900012    2    1    2    0    0 -0.28073460176E+02 -0.66936880151E+01 -0.28639840422E+02  0.50528867141E+02  0.30000022160E+02 0.  0.
        -12    1    1    2    0    0  0.28073460176E+02  0.66936880151E+01  0.28639840422E+02  0.40659132859E+02  0.00000000000E+00 0.  1.
         11    1    3    3    0    0 -0.19239062748E+02 -0.86043212317E+01 -0.17927340180E+02  0.27668852623E+02  0.51100000000E-03 0. -1.
        -11    1    3    3    0    0 -0.75018144570E+01 -0.46437536759E+01  0.14870736413E+01  0.89472373739E+01  0.51100000000E-03 0.  1.
         12    1    3    3    0    0 -0.13325829707E+01  0.65543868925E+01 -0.12199573883E+02  0.13912777144E+02  0.00000000000E+00 0. -1.
</event>
<event>
 7    1  0.2945316E-011  0.5052886E+02  0.7816164E-02  0.1300439E+00
        -11   -1    0    0    0    0  0.00000000000E+00  0.00000000000E+00  0.45593999997E+02  0.45594000000E+02  0.51100000000E-03 0.  1.
         11   -1    0    0    0    0 -0.00000000000E+00 -0.00000000000E+00 -0.45593999997E+02  0.45594000000E+02  0.51100000000E-03 0. -1.
    9900012    2    1    2    0    0 -0.16388403343E+02 -0.27768776975E+02 -0.24768545286E+02  0.50528861121E+02  0.30000003863E+02 0.  0.
        -12    1    1    2    0    0  0.16388403343E+02  0.27768776975E+02  0.24768545286E+02  0.40659138879E+02  0.00000000000E+00 0.  1.
         11    1    3    3    0    0 -0.14859992099E+02 -0.22490942976E+02 -0.25313055774E+02  0.36978543428E+02  0.51100000000E-03 0. -1.
        -11    1    3    3    0    0  0.17398661653E+01 -0.80271154137E+00 -0.52161631285E+01  0.55569630317E+01  0.51100000000E-03 0.  1.
        -12    1    3    3    0    0 -0.32682774088E+01 -0.44751224572E+01  0.57606736163E+01  0.79933546613E+01  0.00000000000E+00 0.  1.
</event>
<event>
 7    1  0.2945316E-011  0.5052886E+02  0.7816164E-02  0.1300439E+00
        -11   -1    0    0    0    0  0.00000000000E+00  0.00000000000E+00  0.45593999997E+02  0.45594000000E+02  0.51100000000E-03 0.  1.
         11   -1    0    0    0    0 -0.00000000000E+00 -0.00000000000E+00 -0.45593999997E+02  0.45594000000E+02  0.51100000000E-03 0. -1.
    9900012    2    1    2    0    0 -0.26177267855E+02 -0.36371474023E+01 -0.30898018623E+02  0.50528858981E+02  0.29999997360E+02 0.  0.
        -12    1    1    2    0    0  0.26177267855E+02  0.36371474023E+01  0.30898018623E+02  0.40659141019E+02  0.00000000000E+00 0.  1.
         11    1    3    3    0    0 -0.55657982392E+01  0.19610337535E+01  0.21952954160E+01  0.62962755377E+01  0.51100000000E-03 0.  1.
        -11    1    3    3    0    0 -0.89785444932E+01  0.68904636520E+01 -0.78993890972E+01  0.13801923740E+02  0.51100000000E-03 0. -1.
         12    1    3    3    0    0 -0.11632925122E+02 -0.12488644808E+02 -0.25193924942E+02  0.30430659704E+02  0.00000000000E+00 0. -1.
</event>
<event>
 7    1  0.2945316E-011  0.5052886E+02  0.7816164E-02  0.1300439E+00
        -11   -1    0    0    0    0  0.00000000000E+00  0.00000000000E+00  0.45593999997E+02  0.45594000000E+02  0.51100000000E-03 0.  1.
         11   -1    0    0    0    0 -0.00000000000E+00 -0.00000000000E+00 -0.45593999997E+02  0.45594000000E+02  0.51100000000E-03 0. -1.
    9900012    2    1    2    0    0 -0.17703032412E+02 -0.35388129001E+02  0.93514031319E+01  0.50528858700E+02  0.29999996503E+02 0.  0.
        -12    1    1    2    0    0  0.17703032412E+02  0.35388129001E+02 -0.93514031319E+01  0.40659141300E+02  0.00000000000E+00 0.  1.
         11    1    3    3    0    0 -0.14344921493E+02 -0.20486676657E+02  0.27223975125E+01  0.25157347665E+02  0.51100000000E-03 0. -1.
        -11    1    3    3    0    0 -0.76008368868E+01 -0.16573897540E+02  0.11884023640E+01  0.18272358947E+02  0.51100000000E-03 0.  1.
        -12    1    3    3    0    0  0.42427259675E+01  0.16724451965E+01  0.54406032554E+01  0.70991520869E+01  0.00000000000E+00 0.  1.
</event>
<event>
 7    1  0.2945316E-011  0.5052888E+02  0.7816164E-02  0.1300439E+00
        -11   -1    0    0    0    0  0.00000000000E+00  0.00000000000E+00  0.45593999997E+02  0.45594000000E+02  0.51100000000E-03 0. -1.
         11   -1    0    0    0    0 -0.00000000000E+00 -0.00000000000E+00 -0.45593999997E+02  0.45594000000E+02  0.51100000000E-03 0.  1.
    9900012    2    1    2    0    0 -0.35586684989E+02 -0.16377396077E+02  0.10887258051E+02  0.50528884926E+02  0.30000076221E+02 0.  0.
        -12    1    1    2    0    0  0.35586684989E+02  0.16377396077E+02 -0.10887258051E+02  0.40659115074E+02  0.00000000000E+00 0.  1.
         11    1    3    3    0    0 -0.36123623742E+01  0.45633836685E+01 -0.53739072615E+00  0.58448628283E+01  0.51100000000E-03 0. -1.
        -11    1    3    3    0    0 -0.76418812961E+00  0.31239347516E+01 -0.98912943021E+00  0.33647182825E+01  0.51100000000E-03 0.  1.
        -12    1    3    3    0    0 -0.31210134485E+02 -0.24064714497E+02  0.12413778207E+02  0.41319303815E+02  0.00000000000E+00 0.  1.
</event>
<event>
 7    1  0.2945316E-011  0.5052886E+02  0.7816164E-02  0.1300439E+00
        -11   -1    0    0    0    0  0.00000000000E+00  0.00000000000E+00  0.45593999997E+02  0.45594000000E+02  0.51100000000E-03 0.  1.
         11   -1    0    0    0    0 -0.00000000000E+00 -0.00000000000E+00 -0.45593999997E+02  0.45594000000E+02  0.51100000000E-03 0. -1.
    9900012    2    1    2    0    0  0.27007974590E+02  0.30311389924E+02 -0.22258516974E+01  0.50528862450E+02  0.30000007902E+02 0.  0.
        -12    1    1    2    0    0 -0.27007974590E+02 -0.30311389924E+02  0.22258516974E+01  0.40659137550E+02  0.00000000000E+00 0.  1.
         11    1    3    3    0    0  0.94980373170E+00 -0.16306825861E+01  0.56123792587E+01  0.59211530997E+01  0.51100000000E-03 0. -1.
        -11    1    3    3    0    0 -0.17589162316E+01  0.62947526259E+00  0.42615552124E+00  0.19161508827E+01  0.51100000000E-03 0.  1.
         12    1    3    3    0    0  0.27817087090E+02  0.31312597247E+02 -0.82643864773E+01  0.42691558467E+02  0.00000000000E+00 0. -1.
</event>
<event>
 7    1  0.2945316E-011  0.5052883E+02  0.7816164E-02  0.1300439E+00
        -11   -1    0    0    0    0  0.00000000000E+00  0.00000000000E+00  0.45593999997E+02  0.45594000000E+02  0.51100000000E-03 0.  1.
         11   -1    0    0    0    0 -0.00000000000E+00 -0.00000000000E+00 -0.45593999997E+02  0.45594000000E+02  0.51100000000E-03 0. -1.
    9900012    2    1    2    0    0  0.70421597700E+01 -0.32009041649E+02 -0.24062359982E+02  0.50528832160E+02  0.29999915834E+02 0.  0.
        -12    1    1    2    0    0 -0.70421597700E+01  0.32009041649E+02  0.24062359982E+02  0.40659167840E+02  0.00000000000E+00 0.  1.
         11    1    3    3    0    0 -0.18817253145E+01  0.14785510848E+01 -0.37378581773E+01  0.44383090794E+01  0.51100000000E-03 0. -1.
        -11    1    3    3    0    0 -0.23900772071E+00 -0.30281445369E+02 -0.99324836441E+01  0.31869692341E+02  0.51100000000E-03 0.  1.
         12    1    3    3    0    0  0.91628928052E+01 -0.32061473653E+01 -0.10392018161E+02  0.14220830740E+02  0.00000000000E+00 0. -1.
</event>
<event>
 7    1  0.2945316E-011  0.5052886E+02  0.7816164E-02  0.1300439E+00
        -11   -1    0    0    0    0  0.00000000000E+00  0.00000000000E+00  0.45593999997E+02  0.45594000000E+02  0.51100000000E-03 0. -1.
         11   -1    0    0    0    0 -0.00000000000E+00 -0.00000000000E+00 -0.45593999997E+02  0.45594000000E+02  0.51100000000E-03 0.  1.
    9900012    2    1    2    0    0 -0.30541082965E+02 -0.22505846314E+02  0.14625139447E+02  0.50528861164E+02  0.30000003995E+02 0.  0.
        -12    1    1    2    0    0  0.30541082965E+02  0.22505846314E+02 -0.14625139447E+02  0.40659138836E+02  0.00000000000E+00 0.  1.
         11    1    3    3    0    0 -0.13607011542E+02 -0.63916890749E+01  0.48444139225E+01  0.15794707938E+02  0.51100000000E-03 0. -1.
        -11    1    3    3    0    0 -0.52723623491E+01  0.53299932588E+00  0.13107565661E+02  0.14138252043E+02  0.51100000000E-03 0.  1.
        -12    1    3    3    0    0 -0.11661709074E+02 -0.16647156565E+02 -0.33268401364E+01  0.20595901183E+02  0.00000000000E+00 0.  1.
</event>
<event>
 7    1  0.2945316E-011  0.5052887E+02  0.7816164E-02  0.1300439E+00
        -11   -1    0    0    0    0  0.00000000000E+00  0.00000000000E+00  0.45593999997E+02  0.45594000000E+02  0.51100000000E-03 0.  1.
         11   -1    0    0    0    0 -0.00000000000E+00 -0.00000000000E+00 -0.45593999997E+02  0.45594000000E+02  0.51100000000E-03 0. -1.
    9900012    2    1    2    0    0  0.39364191854E+02 -0.44324990718E+01  0.91639667528E+01  0.50528868984E+02  0.30000027765E+02 0.  0.
        -12    1    1    2    0    0 -0.39364191854E+02  0.44324990718E+01 -0.91639667528E+01  0.40659131016E+02  0.00000000000E+00 0.  1.
         11    1    3    3    0    0  0.13531543274E+02  0.86569171404E+01  0.92524776458E+01  0.18537886088E+02  0.51100000000E-03 0. -1.
        -11    1    3    3    0    0 -0.26656841323E+00 -0.39896904078E+01 -0.16065245392E+01  0.43092469905E+01  0.51100000000E-03 0.  1.
        -12    1    3    3    0    0  0.26099216992E+02 -0.90997258045E+01  0.15180136462E+01  0.27681735906E+02  0.00000000000E+00 0.  1.
</event>
<event>
 7    1  0.2945316E-011  0.5052886E+02  0.7816164E-02  0.1300439E+00
        -11   -1    0    0    0    0  0.00000000000E+00  0.00000000000E+00  0.45593999997E+02  0.45594000000E+02  0.51100000000E-03 0.  1.
         11   -1    0    0    0    0 -0.00000000000E+00 -0.00000000000E+00 -0.45593999997E+02  0.45594000000E+02  0.51100000000E-03 0. -1.
    9900012    2    1    2    0    0 -0.33698372586E+01 -0.15626273436E+02 -0.37384879500E+02  0.50528862776E+02  0.30000008893E+02 0.  0.
        -12    1    1    2    0    0  0.33698372586E+01  0.15626273436E+02  0.37384879500E+02  0.40659137224E+02  0.00000000000E+00 0.  1.
         11    1    3    3    0    0 -0.76069694498E+01  0.46391536246E+01 -0.26184028983E+01  0.92867520997E+01  0.51100000000E-03 0.  1.
        -11    1    3    3    0    0  0.28452841336E+01 -0.38680086579E+01 -0.13653635848E+02  0.14473386090E+02  0.51100000000E-03 0. -1.
        -12    1    3    3    0    0  0.13918480576E+01 -0.16397418402E+02 -0.21112840753E+02  0.26768724585E+02  0.00000000000E+00 0.  1.
</event>
<event>
 7    1  0.2945316E-011  0.5052886E+02  0.7816164E-02  0.1300439E+00
        -11   -1    0    0    0    0  0.00000000000E+00  0.00000000000E+00  0.45593999997E+02  0.45594000000E+02  0.51100000000E-03 0.  1.
         11   -1    0    0    0    0 -0.00000000000E+00 -0.00000000000E+00 -0.45593999997E+02  0.45594000000E+02  0.51100000000E-03 0. -1.
    9900012    2    1    2    0    0 -0.21416413092E+01 -0.18654941838E+02 -0.36063446465E+02  0.50528860149E+02  0.30000000910E+02 0.  0.
        -12    1    1    2    0    0  0.21416413092E+01  0.18654941838E+02  0.36063446465E+02  0.40659139851E+02  0.00000000000E+00 0.  1.
         11    1    3    3    0    0 -0.65214026965E+01 -0.16075181378E+01 -0.10729174037E+02  0.12658119271E+02  0.51100000000E-03 0. -1.
        -11    1    3    3    0    0  0.31973837025E+01 -0.14822611308E+02 -0.29404341966E+02  0.33083959787E+02  0.51100000000E-03 0.  1.
        -12    1    3    3    0    0  0.11823776848E+01 -0.22248123925E+01  0.40700695380E+01  0.47867810912E+01  0.00000000000E+00 0.  1.
</event>
<event>
 7    1  0.2945316E-011  0.5052886E+02  0.7816164E-02  0.1300439E+00
        -11   -1    0    0    0    0  0.00000000000E+00  0.00000000000E+00  0.45593999997E+02  0.45594000000E+02  0.51100000000E-03 0. -1.
         11   -1    0    0    0    0 -0.00000000000E+00 -0.00000000000E+00 -0.45593999997E+02  0.45594000000E+02  0.51100000000E-03 0.  1.
    9900012    2    1    2    0    0  0.24324281902E+02 -0.30997615221E+02  0.10032107301E+02  0.50528855687E+02  0.29999987345E+02 0.  0.
        -12    1    1    2    0    0 -0.24324281902E+02  0.30997615221E+02 -0.10032107301E+02  0.40659144313E+02  0.00000000000E+00 0.  1.
         11    1    3    3    0    0 -0.53053754980E+00 -0.24240923216E+01  0.37764213492E+01  0.45187445318E+01  0.51100000000E-03 0. -1.
        -11    1    3    3    0    0  0.13170110627E+02 -0.99565493727E+00  0.89246542583E+01  0.15940282199E+02  0.51100000000E-03 0.  1.
         12    1    3    3    0    0  0.11684708824E+02 -0.27577867962E+02 -0.26689683061E+01  0.30069828956E+02  0.00000000000E+00 0. -1.
</event>
<event>
 7    1  0.2945316E-011  0.5052887E+02  0.7816164E-02  0.1300439E+00
        -11   -1    0    0    0    0  0.00000000000E+00  0.00000000000E+00  0.45593999997E+02  0.45594000000E+02  0.51100000000E-03 0.  1.
         11   -1    0    0    0    0 -0.00000000000E+00 -0.00000000000E+00 -0.45593999997E+02  0.45594000000E+02  0.51100000000E-03 0. -1.
    9900012    2    1    2    0    0 -0.22693848328E+02  0.14622167051E+02 -0.30403065080E+02  0.50528869569E+02  0.30000029541E+02 0.  0.
        -12    1    1    2    0    0  0.22693848328E+02 -0.14622167051E+02  0.30403065080E+02  0.40659130431E+02  0.00000000000E+00 0.  1.
         11    1    3    3    0    0 -0.19087650407E+01  0.16011250523E-01 -0.26557000661E+00  0.19272176914E+01  0.51100000000E-03 0. -1.
        -11    1    3    3    0    0 -0.58591610928E+01  0.12813507686E+02  0.89669418409E+00  0.14118066746E+02  0.51100000000E-03 0.  1.
         12    1    3    3    0    0 -0.14925922194E+02  0.17926481140E+01 -0.31034189258E+02  0.34483585131E+02  0.00000000000E+00 0. -1.
</event>
<event>
 7    1  0.2945316E-011  0.5052886E+02  0.7816164E-02  0.1300439E+00
        -11   -1    0    0    0    0  0.00000000000E+00  0.00000000000E+00  0.45593999997E+02  0.45594000000E+02  0.51100000000E-03 0.  1.
         11   -1    0    0    0    0 -0.00000000000E+00 -0.00000000000E+00 -0.45593999997E+02  0.45594000000E+02  0.51100000000E-03 0. -1.
    9900012    2    1    2    0    0 -0.27302580563E+02 -0.12847221327E+02 -0.27252216637E+02  0.50528864337E+02  0.30000013639E+02 0.  0.
        -12    1    1    2    0    0  0.27302580563E+02  0.12847221327E+02  0.27252216637E+02  0.40659135663E+02  0.00000000000E+00 0.  1.
         11    1    3    3    0    0 -0.89945707395E+01 -0.29682166249E+01 -0.62231488671E+01  0.11333145848E+02  0.51100000000E-03 0. -1.
        -11    1    3    3    0    0 -0.12186424693E+02  0.48417588153E+01 -0.19055113404E+02  0.23131124536E+02  0.51100000000E-03 0.  1.
        -12    1    3    3    0    0 -0.61215851312E+01 -0.14720763517E+02 -0.19739543655E+01  0.16064593953E+02  0.00000000000E+00 0.  1.
</event>
<event>
 7    1  0.2945316E-011  0.5052886E+02  0.7816164E-02  0.1300439E+00
        -11   -1    0    0    0    0  0.00000000000E+00  0.00000000000E+00  0.45593999997E+02  0.45594000000E+02  0.51100000000E-03 0.  1.
         11   -1    0    0    0    0 -0.00000000000E+00 -0.00000000000E+00 -0.45593999997E+02  0.45594000000E+02  0.51100000000E-03 0. -1.
    9900012    2    1    2    0    0  0.34968178270E+02  0.20492112374E+02 -0.32350010490E+01  0.50528863353E+02  0.30000010648E+02 0.  0.
        -12    1    1    2    0    0 -0.34968178270E+02 -0.20492112374E+02  0.32350010490E+01  0.40659136647E+02  0.00000000000E+00 0.  1.
         11    1    3    3    0    0  0.22313938608E+02  0.56714664217E+01  0.21689121312E+01  0.23125344704E+02  0.51100000000E-03 0. -1.
        -11    1    3    3    0    0  0.12722868109E+00 -0.36126374604E+00  0.50856084991E+01  0.51000110489E+01  0.51100000000E-03 0.  1.
        -12    1    3    3    0    0  0.12527010981E+02  0.15181909698E+02 -0.10489521679E+02  0.22303507600E+02  0.00000000000E+00 0.  1.
</event>
<event>
 7    1  0.2945316E-011  0.5052886E+02  0.7816164E-02  0.1300439E+00
        -11   -1    0    0    0    0  0.00000000000E+00  0.00000000000E+00  0.45593999997E+02  0.45594000000E+02  0.51100000000E-03 0. -1.
         11   -1    0    0    0    0 -0.00000000000E+00 -0.00000000000E+00 -0.45593999997E+02  0.45594000000E+02  0.51100000000E-03 0.  1.
    9900012    2    1    2    0    0  0.91870075119E+01 -0.28419895098E+02  0.27587573305E+02  0.50528859020E+02  0.29999997476E+02 0.  0.
        -12    1    1    2    0    0 -0.91870075119E+01  0.28419895098E+02 -0.27587573305E+02  0.40659140980E+02  0.00000000000E+00 0.  1.
         11    1    3    3    0    0 -0.27062719470E+01 -0.13687874399E+02 -0.79280294726E+00  0.13975347945E+02  0.51100000000E-03 0. -1.
        -11    1    3    3    0    0  0.37316387684E+01 -0.13998819241E+02  0.21081697490E+02  0.25579875632E+02  0.51100000000E-03 0.  1.
        -12    1    3    3    0    0  0.81616406905E+01 -0.73320145753E+00  0.72986787627E+01  0.10973635442E+02  0.00000000000E+00 0.  1.
</event>
<event>
 7    1  0.2945316E-011  0.5052887E+02  0.7816164E-02  0.1300439E+00
        -11   -1    0    0    0    0  0.00000000000E+00  0.00000000000E+00  0.45593999997E+02  0.45594000000E+02  0.51100000000E-03 0. -1.
         11   -1    0    0    0    0 -0.00000000000E+00 -0.00000000000E+00 -0.45593999997E+02  0.45594000000E+02  0.51100000000E-03 0.  1.
    9900012    2    1    2    0    0  0.21313074046E+02 -0.20200717495E+01  0.34566413880E+02  0.50528870844E+02  0.30000033418E+02 0.  0.
        -12    1    1    2    0    0 -0.21313074046E+02  0.20200717495E+01 -0.34566413880E+02  0.40659129156E+02  0.00000000000E+00 0.  1.
         11    1    3    3    0    0  0.98357542440E+01  0.58824709232E+01  0.56481376852E+01  0.12776814364E+02  0.51100000000E-03 0. -1.
        -11    1    3    3    0    0  0.36143750516E+01  0.54113971351E+01  0.21765161763E+01  0.68617890447E+01  0.51100000000E-03 0.  1.
        -12    1    3    3    0    0  0.78629447508E+01 -0.13313939808E+02  0.26741760019E+02  0.30890267436E+02  0.00000000000E+00 0.  1.
</event>
<event>
 7    1  0.2945316E-011  0.5052886E+02  0.7816164E-02  0.1300439E+00
        -11   -1    0    0    0    0  0.00000000000E+00  0.00000000000E+00  0.45593999997E+02  0.45594000000E+02  0.51100000000E-03 0.  1.
         11   -1    0    0    0    0 -0.00000000000E+00 -0.00000000000E+00 -0.45593999997E+02  0.45594000000E+02  0.51100000000E-03 0. -1.
    9900012    2    1    2    0    0 -0.31654335493E+02  0.41596468517E+01 -0.25176702513E+02  0.50528856294E+02  0.29999989192E+02 0.  0.
        -12    1    1    2    0    0  0.31654335493E+02 -0.41596468517E+01  0.25176702513E+02  0.40659143706E+02  0.00000000000E+00 0.  1.
         11    1    3    3    0    0 -0.26700016365E+02 -0.87410821670E+01 -0.19284615260E+02  0.34076293480E+02  0.51100000000E-03 0. -1.
        -11    1    3    3    0    0 -0.14610091859E+01  0.82492305204E+01 -0.65002680335E+01  0.10603670911E+02  0.51100000000E-03 0.  1.
        -12    1    3    3    0    0 -0.34933099422E+01  0.46514984983E+01  0.60818078027E+00  0.58488919030E+01  0.00000000000E+00 0.  1.
</event>
<event>
 7    1  0.2945316E-011  0.5052886E+02  0.7816164E-02  0.1300439E+00
        -11   -1    0    0    0    0  0.00000000000E+00  0.00000000000E+00  0.45593999997E+02  0.45594000000E+02  0.51100000000E-03 0.  1.
         11   -1    0    0    0    0 -0.00000000000E+00 -0.00000000000E+00 -0.45593999997E+02  0.45594000000E+02  0.51100000000E-03 0. -1.
    9900012    2    1    2    0    0  0.52719258088E+01 -0.38436171679E+02 -0.12166878462E+02  0.50528862939E+02  0.30000009389E+02 0.  0.
        -12    1    1    2    0    0 -0.52719258088E+01  0.38436171679E+02  0.12166878462E+02  0.40659137061E+02  0.00000000000E+00 0.  1.
         11    1    3    3    0    0  0.16238965241E+01 -0.89140595810E+01 -0.73088431835E+00  0.90901974832E+01  0.51100000000E-03 0. -1.
        -11    1    3    3    0    0 -0.39200353582E+00 -0.14966234589E+02  0.78789356891E+01  0.16918022119E+02  0.51100000000E-03 0.  1.
         12    1    3    3    0    0  0.40400328205E+01 -0.14555877509E+02 -0.19314929832E+02  0.24520643337E+02  0.00000000000E+00 0. -1.
</event>
<event>
 7    1  0.2945316E-011  0.5052886E+02  0.7816164E-02  0.1300439E+00
        -11   -1    0    0    0    0  0.00000000000E+00  0.00000000000E+00  0.45593999997E+02  0.45594000000E+02  0.51100000000E-03 0.  1.
         11   -1    0    0    0    0 -0.00000000000E+00 -0.00000000000E+00 -0.45593999997E+02  0.45594000000E+02  0.51100000000E-03 0. -1.
    9900012    2    1    2    0    0 -0.21179079275E+02 -0.16231468505E+02 -0.30678192069E+02  0.50528862806E+02  0.30000008984E+02 0.  0.
        -12    1    1    2    0    0  0.21179079275E+02  0.16231468505E+02  0.30678192069E+02  0.40659137194E+02  0.00000000000E+00 0.  1.
         11    1    3    3    0    0 -0.91099734443E+01 -0.16815136775E+02 -0.19010752104E+02  0.26965702971E+02  0.51100000000E-03 0. -1.
        -11    1    3    3    0    0 -0.15991478216E+02 -0.13949733766E+01 -0.86603374202E+01  0.18239374188E+02  0.51100000000E-03 0.  1.
        -12    1    3    3    0    0  0.39223723860E+01  0.19786416460E+01 -0.30071025448E+01  0.53237856468E+01  0.00000000000E+00 0.  1.
</event>
<event>
 7    1  0.2945316E-011  0.5052886E+02  0.7816164E-02  0.1300439E+00
        -11   -1    0    0    0    0  0.00000000000E+00  0.00000000000E+00  0.45593999997E+02  0.45594000000E+02  0.51100000000E-03 0. -1.
         11   -1    0    0    0    0 -0.00000000000E+00 -0.00000000000E+00 -0.45593999997E+02  0.45594000000E+02  0.51100000000E-03 0.  1.
    9900012    2    1    2    0    0  0.27327418059E+02 -0.29897819888E+02  0.35352867341E+01  0.50528860018E+02  0.30000000509E+02 0.  0.
        -12    1    1    2    0    0 -0.27327418059E+02  0.29897819888E+02 -0.35352867341E+01  0.40659139982E+02  0.00000000000E+00 0.  1.
         11    1    3    3    0    0  0.12214827719E+02 -0.19774900876E+02  0.81438807858E+01  0.24628672627E+02  0.51100000000E-03 0. -1.
        -11    1    3    3    0    0  0.10788945807E+02 -0.12301786003E+02  0.32381461424E+01  0.16679954472E+02  0.51100000000E-03 0.  1.
        -12    1    3    3    0    0  0.43236445331E+01  0.21788669900E+01 -0.78467401941E+01  0.92202329191E+01  0.00000000000E+00 0.  1.
</event>
<event>
 7    1  0.2945316E-011  0.5052883E+02  0.7816164E-02  0.1300439E+00
        -11   -1    0    0    0    0  0.00000000000E+00  0.00000000000E+00  0.45593999997E+02  0.45594000000E+02  0.51100000000E-03 0. -1.
         11   -1    0    0    0    0 -0.00000000000E+00 -0.00000000000E+00 -0.45593999997E+02  0.45594000000E+02  0.51100000000E-03 0.  1.
    9900012    2    1    2    0    0  0.14412897112E+02 -0.38017043074E+02 -0.37572933977E+00  0.50528827113E+02  0.29999900494E+02 0.  0.
        -12    1    1    2    0    0 -0.14412897112E+02  0.38017043074E+02  0.37572933977E+00  0.40659172887E+02  0.00000000000E+00 0.  1.
         11    1    3    3    0    0  0.35046954241E+00 -0.55647552169E+00 -0.47005032758E+01  0.47462854121E+01  0.51100000000E-03 0. -1.
        -11    1    3    3    0    0  0.91396746532E+01 -0.48134456577E+01 -0.49980709058E+01  0.11475348574E+02  0.51100000000E-03 0.  1.
         12    1    3    3    0    0  0.49227529166E+01 -0.32647121895E+02  0.93228448418E+01  0.34307193127E+02  0.00000000000E+00 0. -1.
</event>
<event>
 7    1  0.2945316E-011  0.5052886E+02  0.7816164E-02  0.1300439E+00
        -11   -1    0    0    0    0  0.00000000000E+00  0.00000000000E+00  0.45593999997E+02  0.45594000000E+02  0.51100000000E-03 0.  1.
         11   -1    0    0    0    0 -0.00000000000E+00 -0.00000000000E+00 -0.45593999997E+02  0.45594000000E+02  0.51100000000E-03 0. -1.
    9900012    2    1    2    0    0  0.28036907078E+02  0.29372176001E+02  0.20911006849E+01  0.50528861007E+02  0.30000003517E+02 0.  0.
        -12    1    1    2    0    0 -0.28036907078E+02 -0.29372176001E+02 -0.20911006849E+01  0.40659138993E+02  0.00000000000E+00 0.  1.
         11    1    3    3    0    0 -0.19160833432E+01 -0.33912503711E+00 -0.29623557126E+01  0.35442817041E+01  0.51100000000E-03 0. -1.
        -11    1    3    3    0    0  0.48467677618E+01 -0.27492376211E+01  0.16281274893E+01  0.58051929009E+01  0.51100000000E-03 0.  1.
         12    1    3    3    0    0  0.25106222660E+02  0.32460538660E+02  0.34253289082E+01  0.41179386402E+02  0.00000000000E+00 0. -1.
</event>
<event>
 7    1  0.2945316E-011  0.5052888E+02  0.7816164E-02  0.1300439E+00
        -11   -1    0    0    0    0  0.00000000000E+00  0.00000000000E+00  0.45593999997E+02  0.45594000000E+02  0.51100000000E-03 0.  1.
         11   -1    0    0    0    0 -0.00000000000E+00 -0.00000000000E+00 -0.45593999997E+02  0.45594000000E+02  0.51100000000E-03 0. -1.
    9900012    2    1    2    0    0  0.22114326639E+02  0.21315755465E+02 -0.26641303521E+02  0.50528881379E+02  0.30000065441E+02 0.  0.
        -12    1    1    2    0    0 -0.22114326639E+02 -0.21315755465E+02  0.26641303521E+02  0.40659118621E+02  0.00000000000E+00 0.  1.
         11    1    3    3    0    0  0.11584026910E+02  0.39938993502E+01 -0.47194100367E+00  0.12262285270E+02  0.51100000000E-03 0. -1.
        -11    1    3    3    0    0  0.77754225124E+01  0.17994215828E+02 -0.10295644395E+02  0.22141573844E+02  0.51100000000E-03 0.  1.
         12    1    3    3    0    0  0.27548772168E+01 -0.67235971340E+00 -0.15873718122E+02  0.16125022266E+02  0.00000000000E+00 0. -1.
</event>
<event>
 7    1  0.2945316E-011  0.5052885E+02  0.7816164E-02  0.1300439E+00
        -11   -1    0    0    0    0  0.00000000000E+00  0.00000000000E+00  0.45593999997E+02  0.45594000000E+02  0.51100000000E-03 0. -1.
         11   -1    0    0    0    0 -0.00000000000E+00 -0.00000000000E+00 -0.45593999997E+02  0.45594000000E+02  0.51100000000E-03 0.  1.
    9900012    2    1    2    0    0  0.10793132650E+02 -0.39190348528E+02  0.88938139847E+00  0.50528854295E+02  0.29999983116E+02 0.  0.
        -12    1    1    2    0    0 -0.10793132650E+02  0.39190348528E+02 -0.88938139847E+00  0.40659145705E+02  0.00000000000E+00 0.  1.
         11    1    3    3    0    0 -0.13012507565E+01 -0.78208389927E+00  0.86239224780E+01  0.87565374392E+01  0.51100000000E-03 0. -1.
        -11    1    3    3    0    0  0.10419912563E+01 -0.14647542537E+02 -0.10180674188E+01  0.14719806713E+02  0.51100000000E-03 0.  1.
        -12    1    3    3    0    0  0.11052392150E+02 -0.23760722092E+02 -0.67164736607E+01  0.27052510143E+02  0.00000000000E+00 0.  1.
</event>
<event>
 7    1  0.2945316E-011  0.5052885E+02  0.7816164E-02  0.1300439E+00
        -11   -1    0    0    0    0  0.00000000000E+00  0.00000000000E+00  0.45593999997E+02  0.45594000000E+02  0.51100000000E-03 0. -1.
         11   -1    0    0    0    0 -0.00000000000E+00 -0.00000000000E+00 -0.45593999997E+02  0.45594000000E+02  0.51100000000E-03 0.  1.
    9900012    2    1    2    0    0  0.11486561738E+02 -0.14580664588E+02  0.36174983119E+02  0.50528852394E+02  0.29999977336E+02 0.  0.
        -12    1    1    2    0    0 -0.11486561738E+02  0.14580664588E+02 -0.36174983119E+02  0.40659147606E+02  0.00000000000E+00 0.  1.
         11    1    3    3    0    0  0.26636524390E+01 -0.10988883101E+02  0.31596133730E+02  0.33558400782E+02  0.51100000000E-03 0. -1.
        -11    1    3    3    0    0  0.46472376200E+01 -0.71439402218E+01 -0.16414534032E+01  0.86791168287E+01  0.51100000000E-03 0.  1.
        -12    1    3    3    0    0  0.41756716794E+01  0.35521587348E+01  0.62203027922E+01  0.82913347827E+01  0.00000000000E+00 0.  1.
</event>
<event>
 7    1  0.2977397E-011  0.5052891E+02  0.7816164E-02  0.1300439E+00
        -11   -1    0    0    0    0  0.00000000000E+00  0.00000000000E+00  0.45593999997E+02  0.45594000000E+02  0.51100000000E-03 0. -1.
         11   -1    0    0    0    0 -0.00000000000E+00 -0.00000000000E+00 -0.45593999997E+02  0.45594000000E+02  0.51100000000E-03 0.  1.
    9900012    2    1    2    0    0 -0.54462999612E+01  0.27170881089E+02  0.29753025408E+02  0.50528911430E+02  0.30000156782E+02 0.  0.
        -12    1    1    2    0    0  0.54462999612E+01 -0.27170881089E+02 -0.29753025408E+02  0.40659088570E+02  0.00000000000E+00 0.  1.
         11    1    3    3    0    0 -0.20639956835E+01  0.19066174334E+02  0.11080328109E+02  0.22148425524E+02  0.51100000000E-03 0. -1.
        -11    1    3    3    0    0  0.58662088396E+01 -0.34197828888E-01 -0.16880188398E+00  0.58687366595E+01  0.51100000000E-03 0.  1.
         12    1    3    3    0    0 -0.92485131173E+01  0.81389045844E+01  0.18841499182E+02  0.22511749247E+02  0.00000000000E+00 0. -1.
</event>
<event>
 7    1  0.2945316E-011  0.5052889E+02  0.7816164E-02  0.1300439E+00
        -11   -1    0    0    0    0  0.00000000000E+00  0.00000000000E+00  0.45593999997E+02  0.45594000000E+02  0.51100000000E-03 0.  1.
         11   -1    0    0    0    0 -0.00000000000E+00 -0.00000000000E+00 -0.45593999997E+02  0.45594000000E+02  0.51100000000E-03 0. -1.
    9900012    2    1    2    0    0 -0.14477090483E+02 -0.95218047807E+01 -0.36781960876E+02  0.50528885880E+02  0.30000079120E+02 0.  0.
        -12    1    1    2    0    0  0.14477090483E+02  0.95218047807E+01  0.36781960876E+02  0.40659114120E+02  0.00000000000E+00 0.  1.
         11    1    3    3    0    0 -0.45592510485E+01  0.13407207228E+01 -0.26300338101E+02  0.26726243407E+02  0.51100000000E-03 0. -1.
        -11    1    3    3    0    0  0.10530982675E+00 -0.95495679237E-01  0.35029460059E+01  0.35058295118E+01  0.51100000000E-03 0.  1.
        -12    1    3    3    0    0 -0.10023149262E+02 -0.10767029824E+02 -0.13984568782E+02  0.20296812961E+02  0.00000000000E+00 0.  1.
</event>
<event>
 7    1  0.2945316E-011  0.5052887E+02  0.7816164E-02  0.1300439E+00
        -11   -1    0    0    0    0  0.00000000000E+00  0.00000000000E+00  0.45593999997E+02  0.45594000000E+02  0.51100000000E-03 0. -1.
         11   -1    0    0    0    0 -0.00000000000E+00 -0.00000000000E+00 -0.45593999997E+02  0.45594000000E+02  0.51100000000E-03 0.  1.
    9900012    2    1    2    0    0  0.35216788042E+02  0.18234161184E+02  0.89698388533E+01  0.50528870605E+02  0.30000032692E+02 0.  0.
        -12    1    1    2    0    0 -0.35216788042E+02 -0.18234161184E+02 -0.89698388533E+01  0.40659129395E+02  0.00000000000E+00 0.  1.
         11    1    3    3    0    0  0.97833850803E+01 -0.19288098506E+01  0.49641668480E+01  0.11139025264E+02  0.51100000000E-03 0. -1.
        -11    1    3    3    0    0  0.14081445121E+02 -0.15257646209E+01 -0.16658415623E+01  0.14261489500E+02  0.51100000000E-03 0.  1.
        -12    1    3    3    0    0  0.11351957840E+02  0.21688735656E+02  0.56715135676E+01  0.25128355842E+02  0.00000000000E+00 0.  1.
</event>
<event>
 7    1  0.2945316E-011  0.5052886E+02  0.7816164E-02  0.1300439E+00
        -11   -1    0    0    0    0  0.00000000000E+00  0.00000000000E+00  0.45593999997E+02  0.45594000000E+02  0.51100000000E-03 0.  1.
         11   -1    0    0    0    0 -0.00000000000E+00 -0.00000000000E+00 -0.45593999997E+02  0.45594000000E+02  0.51100000000E-03 0. -1.
    9900012    2    1    2    0    0 -0.23027818268E+02  0.20692042298E+02 -0.26357623530E+02  0.50528863920E+02  0.30000012370E+02 0.  0.
        -12    1    1    2    0    0  0.23027818268E+02 -0.20692042298E+02  0.26357623530E+02  0.40659136080E+02  0.00000000000E+00 0.  1.
         11    1    3    3    0    0  0.36323546402E+00  0.47732348552E+01 -0.16177045016E+01  0.50529871463E+01  0.51100000000E-03 0. -1.
        -11    1    3    3    0    0 -0.81338209890E+01  0.87486218809E+01  0.36214790916E+01  0.12482489326E+02  0.51100000000E-03 0.  1.
         12    1    3    3    0    0 -0.15257232743E+02  0.71701855623E+01 -0.28361398120E+02  0.32993387448E+02  0.00000000000E+00 0. -1.
</event>
<event>
 7    1  0.2945316E-011  0.5052886E+02  0.7816164E-02  0.1300439E+00
        -11   -1    0    0    0    0  0.00000000000E+00  0.00000000000E+00  0.45593999997E+02  0.45594000000E+02  0.51100000000E-03 0.  1.
         11   -1    0    0    0    0 -0.00000000000E+00 -0.00000000000E+00 -0.45593999997E+02  0.45594000000E+02  0.51100000000E-03 0. -1.
    9900012    2    1    2    0    0  0.93614202188E+01 -0.19387618998E+02 -0.34491296829E+02  0.50528861841E+02  0.30000006051E+02 0.  0.
        -12    1    1    2    0    0 -0.93614202188E+01  0.19387618998E+02  0.34491296829E+02  0.40659138159E+02  0.00000000000E+00 0.  1.
         11    1    3    3    0    0 -0.32800989661E+00  0.12795765959E+01  0.18914481932E+01  0.23070507766E+01  0.51100000000E-03 0. -1.
        -11    1    3    3    0    0  0.43490395083E+01  0.43004685022E+01 -0.69985813104E+01  0.92945314353E+01  0.51100000000E-03 0.  1.
         12    1    3    3    0    0  0.53403906070E+01 -0.24967664096E+02 -0.29384163712E+02  0.38927279629E+02  0.00000000000E+00 0. -1.
</event>
<event>
 7    1  0.2945316E-011  0.5052886E+02  0.7816164E-02  0.1300439E+00
        -11   -1    0    0    0    0  0.00000000000E+00  0.00000000000E+00  0.45593999997E+02  0.45594000000E+02  0.51100000000E-03 0. -1.
         11   -1    0    0    0    0 -0.00000000000E+00 -0.00000000000E+00 -0.45593999997E+02  0.45594000000E+02  0.51100000000E-03 0.  1.
    9900012    2    1    2    0    0 -0.37673340632E+02 -0.12802647868E+02  0.83652583163E+01  0.50528856704E+02  0.29999990439E+02 0.  0.
        -12    1    1    2    0    0  0.37673340632E+02  0.12802647868E+02 -0.83652583163E+01  0.40659143296E+02  0.00000000000E+00 0.  1.
         11    1    3    3    0    0 -0.69941212336E+01 -0.76834821004E+01  0.12962042295E+01  0.10470614819E+02  0.51100000000E-03 0. -1.
        -11    1    3    3    0    0 -0.97716661354E+01 -0.12198020668E+02  0.87657668620E+01  0.17919705249E+02  0.51100000000E-03 0.  1.
        -12    1    3    3    0    0 -0.20907553263E+02  0.70788549003E+01 -0.16967127753E+01  0.22138536637E+02  0.00000000000E+00 0.  1.
</event>
<event>
 7    1  0.2945316E-011  0.5052884E+02  0.7816164E-02  0.1300439E+00
        -11   -1    0    0    0    0  0.00000000000E+00  0.00000000000E+00  0.45593999997E+02  0.45594000000E+02  0.51100000000E-03 0. -1.
         11   -1    0    0    0    0 -0.00000000000E+00 -0.00000000000E+00 -0.45593999997E+02  0.45594000000E+02  0.51100000000E-03 0.  1.
    9900012    2    1    2    0    0 -0.25859418084E+02  0.24785717957E+02  0.19238653910E+02  0.50528842083E+02  0.29999945994E+02 0.  0.
        -12    1    1    2    0    0  0.25859418084E+02 -0.24785717957E+02 -0.19238653910E+02  0.40659157917E+02  0.00000000000E+00 0.  1.
         11    1    3    3    0    0  0.39082631983E+01 -0.16088454422E+01 -0.42550610814E+00  0.42478183334E+01  0.51100000000E-03 0. -1.
        -11    1    3    3    0    0 -0.42449721844E+00 -0.12135172402E+01  0.17923344294E+01  0.22057390935E+01  0.51100000000E-03 0.  1.
         12    1    3    3    0    0 -0.29343184064E+02  0.27608080639E+02  0.17871825589E+02  0.44075284656E+02  0.00000000000E+00 0. -1.
</event>
<event>
 7    1  0.2945316E-011  0.5052886E+02  0.7816164E-02  0.1300439E+00
        -11   -1    0    0    0    0  0.00000000000E+00  0.00000000000E+00  0.45593999997E+02  0.45594000000E+02  0.51100000000E-03 0.  1.
         11   -1    0    0    0    0 -0.00000000000E+00 -0.00000000000E+00 -0.45593999997E+02  0.45594000000E+02  0.51100000000E-03 0. -1.
    9900012    2    1    2    0    0 -0.23332724942E+01 -0.24554871932E+02 -0.32323056800E+02  0.50528857153E+02  0.29999991802E+02 0.  0.
        -12    1    1    2    0    0  0.23332724942E+01  0.24554871932E+02  0.32323056800E+02  0.40659142847E+02  0.00000000000E+00 0.  1.
         11    1    3    3    0    0 -0.15283366611E+01 -0.16836062488E+01  0.13183820730E+01  0.26283977063E+01  0.51100000000E-03 0. -1.
        -11    1    3    3    0    0  0.55774924694E+01 -0.28009357614E+01  0.19550182877E+01  0.65403180467E+01  0.51100000000E-03 0.  1.
         12    1    3    3    0    0 -0.63824283025E+01 -0.20070329922E+02 -0.35596457161E+02  0.41360141400E+02  0.00000000000E+00 0. -1.
</event>
<event>
 7    1  0.2945316E-011  0.5052887E+02  0.7816164E-02  0.1300439E+00
        -11   -1    0    0    0    0  0.00000000000E+00  0.00000000000E+00  0.45593999997E+02  0.45594000000E+02  0.51100000000E-03 0.  1.
         11   -1    0    0    0    0 -0.00000000000E+00 -0.00000000000E+00 -0.45593999997E+02  0.45594000000E+02  0.51100000000E-03 0. -1.
    9900012    2    1    2    0    0  0.22631798351E+02  0.17654706575E+02  0.28797182546E+02  0.50528872077E+02  0.30000037167E+02 0.  0.
        -12    1    1    2    0    0 -0.22631798351E+02 -0.17654706575E+02 -0.28797182546E+02  0.40659127923E+02  0.00000000000E+00 0.  1.
         11    1    3    3    0    0 -0.14610232157E+01  0.31823710369E+01  0.35677471956E+01  0.49990893737E+01  0.51100000000E-03 0. -1.
        -11    1    3    3    0    0 -0.26718356749E+01 -0.32992388137E+01 -0.62490591035E+00  0.42911758623E+01  0.51100000000E-03 0.  1.
         12    1    3    3    0    0  0.26764657242E+02  0.17771574352E+02  0.25854341260E+02  0.41238606841E+02  0.00000000000E+00 0. -1.
</event>
<event>
 7    1  0.2945316E-011  0.5052886E+02  0.7816164E-02  0.1300439E+00
        -11   -1    0    0    0    0  0.00000000000E+00  0.00000000000E+00  0.45593999997E+02  0.45594000000E+02  0.51100000000E-03 0.  1.
         11   -1    0    0    0    0 -0.00000000000E+00 -0.00000000000E+00 -0.45593999997E+02  0.45594000000E+02  0.51100000000E-03 0. -1.
    9900012    2    1    2    0    0  0.17197807291E+02 -0.17182974238E+02 -0.32590584591E+02  0.50528863472E+02  0.30000011008E+02 0.  0.
        -12    1    1    2    0    0 -0.17197807291E+02  0.17182974238E+02  0.32590584591E+02  0.40659136528E+02  0.00000000000E+00 0.  1.
         11    1    3    3    0    0  0.12494680268E+02 -0.28556886571E+01 -0.24988730187E+01  0.13058191273E+02  0.51100000000E-03 0. -1.
        -11    1    3    3    0    0  0.91724834065E+01 -0.57291704939E+01 -0.83364192955E+01  0.13654806235E+02  0.51100000000E-03 0.  1.
         12    1    3    3    0    0 -0.44693563837E+01 -0.85981150868E+01 -0.21755292277E+02  0.23815865963E+02  0.00000000000E+00 0. -1.
</event>
<event>
 7    1  0.2945316E-011  0.5052885E+02  0.7816164E-02  0.1300439E+00
        -11   -1    0    0    0    0  0.00000000000E+00  0.00000000000E+00  0.45593999997E+02  0.45594000000E+02  0.51100000000E-03 0.  1.
         11   -1    0    0    0    0 -0.00000000000E+00 -0.00000000000E+00 -0.45593999997E+02  0.45594000000E+02  0.51100000000E-03 0. -1.
    9900012    2    1    2    0    0 -0.22542532373E+02 -0.28654407575E+02 -0.17997926244E+02  0.50528853571E+02  0.29999980913E+02 0.  0.
        -12    1    1    2    0    0  0.22542532373E+02  0.28654407575E+02  0.17997926244E+02  0.40659146429E+02  0.00000000000E+00 0.  1.
         11    1    3    3    0    0 -0.13852315851E+02 -0.24397021031E+02 -0.45936594985E+01  0.28428911296E+02  0.51100000000E-03 0. -1.
        -11    1    3    3    0    0 -0.87780411134E+01 -0.89677704489E+01 -0.77872572363E+01  0.14768760548E+02  0.51100000000E-03 0.  1.
        -12    1    3    3    0    0  0.87824591353E-01  0.47103839041E+01 -0.56170095091E+01  0.73311817266E+01  0.00000000000E+00 0.  1.
</event>
<event>
 7    1  0.2945316E-011  0.5052887E+02  0.7816164E-02  0.1300439E+00
        -11   -1    0    0    0    0  0.00000000000E+00  0.00000000000E+00  0.45593999997E+02  0.45594000000E+02  0.51100000000E-03 0.  1.
         11   -1    0    0    0    0 -0.00000000000E+00 -0.00000000000E+00 -0.45593999997E+02  0.45594000000E+02  0.51100000000E-03 0. -1.
    9900012    2    1    2    0    0  0.10287884525E+02  0.13512209658E+02 -0.36942450685E+02  0.50528867687E+02  0.30000023821E+02 0.  0.
        -12    1    1    2    0    0 -0.10287884525E+02 -0.13512209658E+02  0.36942450685E+02  0.40659132313E+02  0.00000000000E+00 0.  1.
         11    1    3    3    0    0  0.44619291472E+01  0.47197603187E+01 -0.44122733533E+01  0.78519491584E+01  0.51100000000E-03 0. -1.
        -11    1    3    3    0    0 -0.19830283407E+00  0.11611229656E+02 -0.24478651402E+01  0.11868109459E+02  0.51100000000E-03 0.  1.
        -12    1    3    3    0    0  0.60242582123E+01 -0.28187803164E+01 -0.30082312191E+02  0.30808809069E+02  0.00000000000E+00 0.  1.
</event>
<event>
 7    1  0.2945316E-011  0.5052887E+02  0.7816164E-02  0.1300439E+00
        -11   -1    0    0    0    0  0.00000000000E+00  0.00000000000E+00  0.45593999997E+02  0.45594000000E+02  0.51100000000E-03 0. -1.
         11   -1    0    0    0    0 -0.00000000000E+00 -0.00000000000E+00 -0.45593999997E+02  0.45594000000E+02  0.51100000000E-03 0.  1.
    9900012    2    1    2    0    0  0.39935855013E+02  0.30909685037E+01  0.69812798802E+01  0.50528869775E+02  0.30000030168E+02 0.  0.
        -12    1    1    2    0    0 -0.39935855013E+02 -0.30909685037E+01 -0.69812798802E+01  0.40659130225E+02  0.00000000000E+00 0.  1.
         11    1    3    3    0    0  0.32930257696E+02  0.51076556467E+01  0.15959318269E+02  0.36948475720E+02  0.51100000000E-03 0. -1.
        -11    1    3    3    0    0  0.13912929479E+01 -0.94053293777E+00  0.10903972741E+01  0.20023148480E+01  0.51100000000E-03 0.  1.
        -12    1    3    3    0    0  0.56143043690E+01 -0.10761542053E+01 -0.10068435663E+02  0.11578079207E+02  0.00000000000E+00 0.  1.
</event>
<event>
 7    1  0.2945316E-011  0.5052886E+02  0.7816164E-02  0.1300439E+00
        -11   -1    0    0    0    0  0.00000000000E+00  0.00000000000E+00  0.45593999997E+02  0.45594000000E+02  0.51100000000E-03 0. -1.
         11   -1    0    0    0    0 -0.00000000000E+00 -0.00000000000E+00 -0.45593999997E+02  0.45594000000E+02  0.51100000000E-03 0.  1.
    9900012    2    1    2    0    0  0.17628067468E+02 -0.35476610452E+02 -0.91557058758E+01  0.50528860783E+02  0.30000002835E+02 0.  0.
        -12    1    1    2    0    0 -0.17628067468E+02  0.35476610452E+02  0.91557058758E+01  0.40659139217E+02  0.00000000000E+00 0.  1.
         11    1    3    3    0    0  0.97252389315E+01 -0.26708194361E+02 -0.96189313410E+01  0.30007195116E+02  0.51100000000E-03 0. -1.
        -11    1    3    3    0    0  0.10498305955E+02 -0.11857388522E+02 -0.17269045691E+01  0.15930922451E+02  0.51100000000E-03 0.  1.
        -12    1    3    3    0    0 -0.25954774180E+01  0.30889724313E+01  0.21901300343E+01  0.45907432160E+01  0.00000000000E+00 0.  1.
</event>
<event>
 7    1  0.2945316E-011  0.5052886E+02  0.7816164E-02  0.1300439E+00
        -11   -1    0    0    0    0  0.00000000000E+00  0.00000000000E+00  0.45593999997E+02  0.45594000000E+02  0.51100000000E-03 0.  1.
         11   -1    0    0    0    0 -0.00000000000E+00 -0.00000000000E+00 -0.45593999997E+02  0.45594000000E+02  0.51100000000E-03 0. -1.
    9900012    2    1    2    0    0  0.25047255901E+02  0.15671598376E+02 -0.27932092636E+02  0.50528858065E+02  0.29999994575E+02 0.  0.
        -12    1    1    2    0    0 -0.25047255901E+02 -0.15671598376E+02  0.27932092636E+02  0.40659141935E+02  0.00000000000E+00 0.  1.
         11    1    3    3    0    0  0.73856553109E+00  0.62712135664E+01 -0.18116428291E+02  0.19185373932E+02  0.51100000000E-03 0. -1.
        -11    1    3    3    0    0 -0.10080045444E+01  0.31496586879E+01  0.41194010022E+00  0.33325842704E+01  0.51100000000E-03 0.  1.
        -12    1    3    3    0    0  0.25316694914E+02  0.62507261217E+01 -0.10227604446E+02  0.28010899863E+02  0.00000000000E+00 0.  1.
</event>
<event>
 7    1  0.2945316E-011  0.5052886E+02  0.7816164E-02  0.1300439E+00
        -11   -1    0    0    0    0  0.00000000000E+00  0.00000000000E+00  0.45593999997E+02  0.45594000000E+02  0.51100000000E-03 0. -1.
         11   -1    0    0    0    0 -0.00000000000E+00 -0.00000000000E+00 -0.45593999997E+02  0.45594000000E+02  0.51100000000E-03 0.  1.
    9900012    2    1    2    0    0  0.43741308417E+01 -0.23017508534E+02  0.33229913234E+02  0.50528857691E+02  0.29999993438E+02 0.  0.
        -12    1    1    2    0    0 -0.43741308417E+01  0.23017508534E+02 -0.33229913234E+02  0.40659142309E+02  0.00000000000E+00 0.  1.
         11    1    3    3    0    0 -0.93024574277E+01 -0.23938965097E+01  0.10070002683E+02  0.13916587548E+02  0.51100000000E-03 0. -1.
        -11    1    3    3    0    0 -0.22066858992E+01 -0.57300829734E+01  0.26085233457E+01  0.66714097345E+01  0.51100000000E-03 0.  1.
         12    1    3    3    0    0  0.15883274169E+02 -0.14893529051E+02  0.20551387206E+02  0.29940860408E+02  0.00000000000E+00 0. -1.
</event>
<event>
 7    1  0.3231330E-011  0.5052886E+02  0.7816164E-02  0.1300439E+00
        -11   -1    0    0    0    0  0.00000000000E+00  0.00000000000E+00  0.45593999997E+02  0.45594000000E+02  0.51100000000E-03 0. -1.
         11   -1    0    0    0    0 -0.00000000000E+00 -0.00000000000E+00 -0.45593999997E+02  0.45594000000E+02  0.51100000000E-03 0.  1.
    9900012    2    1    2    0    0  0.18530607791E+02  0.21952030831E+02  0.28773089907E+02  0.50528858525E+02  0.29999995972E+02 0.  0.
        -12    1    1    2    0    0 -0.18530607791E+02 -0.21952030831E+02 -0.28773089907E+02  0.40659141475E+02  0.00000000000E+00 0.  1.
         11    1    3    3    0    0  0.17124164747E+02  0.97425806622E+01  0.16861039173E+02  0.25931632006E+02  0.51100000000E-03 0. -1.
        -11    1    3    3    0    0 -0.16448044515E+01  0.67552570547E+01  0.15782552281E+02  0.17246096263E+02  0.51100000000E-03 0.  1.
        -12    1    3    3    0    0  0.30512474952E+01  0.54541931143E+01 -0.38705015472E+01  0.73511302553E+01  0.00000000000E+00 0.  1.
</event>
<event>
 7    1  0.2945316E-011  0.5052890E+02  0.7816164E-02  0.1300439E+00
        -11   -1    0    0    0    0  0.00000000000E+00  0.00000000000E+00  0.45593999997E+02  0.45594000000E+02  0.51100000000E-03 0.  1.
         11   -1    0    0    0    0 -0.00000000000E+00 -0.00000000000E+00 -0.45593999997E+02  0.45594000000E+02  0.51100000000E-03 0. -1.
    9900012    2    1    2    0    0  0.32203116317E+02 -0.24624032507E+02 -0.31271070072E+01  0.50528899227E+02  0.30000119691E+02 0.  0.
        -12    1    1    2    0    0 -0.32203116317E+02  0.24624032507E+02  0.31271070072E+01  0.40659100773E+02  0.00000000000E+00 0.  1.
         11    1    3    3    0    0  0.88551042078E+01 -0.79047542878E+01  0.61171168852E+01  0.13353543729E+02  0.51100000000E-03 0. -1.
        -11    1    3    3    0    0 -0.29904509308E+01  0.16997346163E+01 -0.27073658229E+01  0.43774107067E+01  0.51100000000E-03 0.  1.
        -12    1    3    3    0    0  0.26338463040E+02 -0.18419012835E+02 -0.65368580695E+01  0.32797944791E+02  0.00000000000E+00 0.  1.
</event>
<event>
 7    1  0.2945316E-011  0.5052884E+02  0.7816164E-02  0.1300439E+00
        -11   -1    0    0    0    0  0.00000000000E+00  0.00000000000E+00  0.45593999997E+02  0.45594000000E+02  0.51100000000E-03 0. -1.
         11   -1    0    0    0    0 -0.00000000000E+00 -0.00000000000E+00 -0.45593999997E+02  0.45594000000E+02  0.51100000000E-03 0.  1.
    9900012    2    1    2    0    0  0.32761204023E+02  0.21582123413E+02  0.10680935420E+02  0.50528844555E+02  0.29999953510E+02 0.  0.
        -12    1    1    2    0    0 -0.32761204023E+02 -0.21582123413E+02 -0.10680935420E+02  0.40659155445E+02  0.00000000000E+00 0.  1.
         11    1    3    3    0    0  0.18371031913E+02  0.18154804261E+02  0.10421956919E+02  0.27851551439E+02  0.51100000000E-03 0. -1.
        -11    1    3    3    0    0  0.40025909722E+01 -0.18945104649E+01  0.76665291883E+01  0.88535628110E+01  0.51100000000E-03 0.  1.
         12    1    3    3    0    0  0.10387581138E+02  0.53218296169E+01 -0.74075506872E+01  0.13823730305E+02  0.00000000000E+00 0. -1.
</event>
<event>
 7    1  0.2945316E-011  0.5052886E+02  0.7816164E-02  0.1300439E+00
        -11   -1    0    0    0    0  0.00000000000E+00  0.00000000000E+00  0.45593999997E+02  0.45594000000E+02  0.51100000000E-03 0.  1.
         11   -1    0    0    0    0 -0.00000000000E+00 -0.00000000000E+00 -0.45593999997E+02  0.45594000000E+02  0.51100000000E-03 0. -1.
    9900012    2    1    2    0    0  0.34223091810E+02  0.21907286969E+02 -0.14198897953E+01  0.50528864220E+02  0.30000013282E+02 0.  0.
        -12    1    1    2    0    0 -0.34223091810E+02 -0.21907286969E+02  0.14198897953E+01  0.40659135780E+02  0.00000000000E+00 0.  1.
         11    1    3    3    0    0  0.13232808034E+02  0.11738330178E+02  0.10236794429E+02  0.20437406007E+02  0.51100000000E-03 0. -1.
        -11    1    3    3    0    0  0.16459505544E+02  0.13716009554E+02 -0.65663777085E+01  0.22408961541E+02  0.51100000000E-03 0.  1.
        -12    1    3    3    0    0  0.45307782314E+01 -0.35470527640E+01 -0.50903065158E+01  0.76824966721E+01  0.00000000000E+00 0.  1.
</event>
<event>
 7    1  0.2945316E-011  0.5052886E+02  0.7816164E-02  0.1300439E+00
        -11   -1    0    0    0    0  0.00000000000E+00  0.00000000000E+00  0.45593999997E+02  0.45594000000E+02  0.51100000000E-03 0.  1.
         11   -1    0    0    0    0 -0.00000000000E+00 -0.00000000000E+00 -0.45593999997E+02  0.45594000000E+02  0.51100000000E-03 0. -1.
    9900012    2    1    2    0    0 -0.40159718130E+01  0.94930826867E+00 -0.40449180677E+02  0.50528862856E+02  0.30000009138E+02 0.  0.
        -12    1    1    2    0    0  0.40159718130E+01 -0.94930826867E+00  0.40449180677E+02  0.40659137144E+02  0.00000000000E+00 0.  1.
         11    1    3    3    0    0 -0.55611213778E+01 -0.20815804200E+01 -0.38219328167E+02  0.38677850171E+02  0.51100000000E-03 0. -1.
        -11    1    3    3    0    0 -0.15521343646E+01  0.22107686724E+01 -0.61919618768E+01  0.67555171048E+01  0.51100000000E-03 0.  1.
        -12    1    3    3    0    0  0.30972839294E+01  0.82012001629E+00  0.39621093665E+01  0.50954955807E+01  0.00000000000E+00 0.  1.
</event>
<event>
 7    1  0.2945316E-011  0.5052885E+02  0.7816164E-02  0.1300439E+00
        -11   -1    0    0    0    0  0.00000000000E+00  0.00000000000E+00  0.45593999997E+02  0.45594000000E+02  0.51100000000E-03 0.  1.
         11   -1    0    0    0    0 -0.00000000000E+00 -0.00000000000E+00 -0.45593999997E+02  0.45594000000E+02  0.51100000000E-03 0. -1.
    9900012    2    1    2    0    0 -0.14688543786E+02 -0.37284092568E+02 -0.68782047669E+01  0.50528848780E+02  0.29999966351E+02 0.  0.
        -12    1    1    2    0    0  0.14688543786E+02  0.37284092568E+02  0.68782047669E+01  0.40659151220E+02  0.00000000000E+00 0.  1.
         11    1    3    3    0    0 -0.14730761626E+02 -0.20343063885E+02 -0.87568339686E+01  0.26599205396E+02  0.51100000000E-03 0. -1.
        -11    1    3    3    0    0  0.25922990086E+01 -0.18134685058E+02  0.56978892418E+01  0.19184701154E+02  0.51100000000E-03 0.  1.
         12    1    3    3    0    0 -0.25500811680E+01  0.11936563749E+01 -0.38192600400E+01  0.47449422292E+01  0.00000000000E+00 0. -1.
</event>
<event>
 7    1  0.2945316E-011  0.5052884E+02  0.7816164E-02  0.1300439E+00
        -11   -1    0    0    0    0  0.00000000000E+00  0.00000000000E+00  0.45593999997E+02  0.45594000000E+02  0.51100000000E-03 0.  1.
         11   -1    0    0    0    0 -0.00000000000E+00 -0.00000000000E+00 -0.45593999997E+02  0.45594000000E+02  0.51100000000E-03 0. -1.
    9900012    2    1    2    0    0  0.19152931058E+02 -0.35816994503E+02 -0.18642565548E+01  0.50528839706E+02  0.29999938771E+02 0.  0.
        -12    1    1    2    0    0 -0.19152931058E+02  0.35816994503E+02  0.18642565548E+01  0.40659160294E+02  0.00000000000E+00 0.  1.
         11    1    3    3    0    0  0.10170128589E+02 -0.22171709418E+02 -0.49707084124E+01  0.24894259507E+02  0.51100000000E-03 0. -1.
        -11    1    3    3    0    0  0.10324205599E+02 -0.13925027435E+02 -0.44970201494E+01  0.17908623643E+02  0.51100000000E-03 0.  1.
        -12    1    3    3    0    0 -0.13414031304E+01  0.27974234984E+00  0.76034720071E+01  0.77259565559E+01  0.00000000000E+00 0.  1.
</event>
<event>
 7    1  0.2945316E-011  0.5052886E+02  0.7816164E-02  0.1300439E+00
        -11   -1    0    0    0    0  0.00000000000E+00  0.00000000000E+00  0.45593999997E+02  0.45594000000E+02  0.51100000000E-03 0. -1.
         11   -1    0    0    0    0 -0.00000000000E+00 -0.00000000000E+00 -0.45593999997E+02  0.45594000000E+02  0.51100000000E-03 0.  1.
    9900012    2    1    2    0    0  0.40143419015E+02 -0.63386870034E+01  0.12218733491E+01  0.50528855670E+02  0.29999987294E+02 0.  0.
        -12    1    1    2    0    0 -0.40143419015E+02  0.63386870034E+01 -0.12218733491E+01  0.40659144330E+02  0.00000000000E+00 0.  1.
         11    1    3    3    0    0  0.13137823278E+02  0.61582759805E+00 -0.39168810825E+01  0.13723104670E+02  0.51100000000E-03 0. -1.
        -11    1    3    3    0    0  0.15379952543E+02  0.81169301895E+01  0.30704624303E+01  0.17659423426E+02  0.51100000000E-03 0.  1.
        -12    1    3    3    0    0  0.11625643194E+02 -0.15071444791E+02  0.20682920013E+01  0.19146327574E+02  0.00000000000E+00 0.  1.
</event>
<event>
 7    1  0.2945316E-011  0.5052886E+02  0.7816164E-02  0.1300439E+00
        -11   -1    0    0    0    0  0.00000000000E+00  0.00000000000E+00  0.45593999997E+02  0.45594000000E+02  0.51100000000E-03 0.  1.
         11   -1    0    0    0    0 -0.00000000000E+00 -0.00000000000E+00 -0.45593999997E+02  0.45594000000E+02  0.51100000000E-03 0. -1.
    9900012    2    1    2    0    0  0.36656362161E+02 -0.14262952211E+02 -0.10297800706E+02  0.50528863363E+02  0.30000010679E+02 0.  0.
        -12    1    1    2    0    0 -0.36656362161E+02  0.14262952211E+02  0.10297800706E+02  0.40659136637E+02  0.00000000000E+00 0.  1.
         11    1    3    3    0    0 -0.12766813319E+01 -0.24867619984E+01 -0.60794631730E+00  0.28606816401E+01  0.51100000000E-03 0. -1.
        -11    1    3    3    0    0  0.71179431101E+01 -0.95761417751E+01  0.56200955522E+01  0.13189127329E+02  0.51100000000E-03 0.  1.
         12    1    3    3    0    0  0.30815100383E+02 -0.22000484375E+01 -0.15309949941E+02  0.34479054394E+02  0.00000000000E+00 0. -1.
</event>
<event>
 7    1  0.2945316E-011  0.5052886E+02  0.7816164E-02  0.1300439E+00
        -11   -1    0    0    0    0  0.00000000000E+00  0.00000000000E+00  0.45593999997E+02  0.45594000000E+02  0.51100000000E-03 0. -1.
         11   -1    0    0    0    0 -0.00000000000E+00 -0.00000000000E+00 -0.45593999997E+02  0.45594000000E+02  0.51100000000E-03 0.  1.
    9900012    2    1    2    0    0  0.27371472383E+02 -0.26825649273E+02  0.13577655778E+02  0.50528859628E+02  0.29999999326E+02 0.  0.
        -12    1    1    2    0    0 -0.27371472383E+02  0.26825649273E+02 -0.13577655778E+02  0.40659140372E+02  0.00000000000E+00 0.  1.
         11    1    3    3    0    0  0.11024786557E+02 -0.81228320847E+01  0.17751746527E+01  0.13808604746E+02  0.51100000000E-03 0. -1.
        -11    1    3    3    0    0  0.11019798026E+02 -0.30400538465E+00 -0.41637281305E+01  0.11784099457E+02  0.51100000000E-03 0.  1.
        -12    1    3    3    0    0  0.53268877998E+01 -0.18398811803E+02  0.15966209256E+02  0.24936155426E+02  0.00000000000E+00 0.  1.
</event>
<event>
 7    1  0.2945316E-011  0.5052886E+02  0.7816164E-02  0.1300439E+00
        -11   -1    0    0    0    0  0.00000000000E+00  0.00000000000E+00  0.45593999997E+02  0.45594000000E+02  0.51100000000E-03 0.  1.
         11   -1    0    0    0    0 -0.00000000000E+00 -0.00000000000E+00 -0.45593999997E+02  0.45594000000E+02  0.51100000000E-03 0. -1.
    9900012    2    1    2    0    0 -0.27627730443E+02  0.21130429972E+02 -0.21056573765E+02  0.50528857621E+02  0.29999993225E+02 0.  0.
        -12    1    1    2    0    0  0.27627730443E+02 -0.21130429972E+02  0.21056573765E+02  0.40659142379E+02  0.00000000000E+00 0.  1.
         11    1    3    3    0    0 -0.17969010889E+01  0.23136937729E+01 -0.50170282575E+01  0.58096992346E+01  0.51100000000E-03 0. -1.
        -11    1    3    3    0    0  0.37997173772E+01  0.24262328248E+01 -0.90973022466E+01  0.10153096390E+02  0.51100000000E-03 0.  1.
        -12    1    3    3    0    0 -0.29630546732E+02  0.16390503375E+02 -0.69422432610E+01  0.34566061997E+02  0.00000000000E+00 0.  1.
</event>
<event>
 7    1  0.2945316E-011  0.5052887E+02  0.7816164E-02  0.1300439E+00
        -11   -1    0    0    0    0  0.00000000000E+00  0.00000000000E+00  0.45593999997E+02  0.45594000000E+02  0.51100000000E-03 0.  1.
         11   -1    0    0    0    0 -0.00000000000E+00 -0.00000000000E+00 -0.45593999997E+02  0.45594000000E+02  0.51100000000E-03 0. -1.
    9900012    2    1    2    0    0  0.24466876142E+02  0.19235569541E+02 -0.26163525727E+02  0.50528865206E+02  0.30000016279E+02 0.  0.
        -12    1    1    2    0    0 -0.24466876142E+02 -0.19235569541E+02  0.26163525727E+02  0.40659134794E+02  0.00000000000E+00 0.  1.
         11    1    3    3    0    0  0.11726517207E+02  0.43710729632E+01 -0.13397827599E+02  0.18333555828E+02  0.51100000000E-03 0. -1.
        -11    1    3    3    0    0  0.17890883506E+02  0.88434433195E+01 -0.13714531197E+02  0.24215254874E+02  0.51100000000E-03 0.  1.
        -12    1    3    3    0    0 -0.51505245706E+01  0.60210532585E+01  0.94883306925E+00  0.79800545040E+01  0.00000000000E+00 0.  1.
</event>
<event>
 7    1  0.2945316E-011  0.5052888E+02  0.7816164E-02  0.1300439E+00
        -11   -1    0    0    0    0  0.00000000000E+00  0.00000000000E+00  0.45593999997E+02  0.45594000000E+02  0.51100000000E-03 0.  1.
         11   -1    0    0    0    0 -0.00000000000E+00 -0.00000000000E+00 -0.45593999997E+02  0.45594000000E+02  0.51100000000E-03 0. -1.
    9900012    2    1    2    0    0 -0.38985272043E+02 -0.51651548370E+00 -0.11534546368E+02  0.50528880673E+02  0.30000063293E+02 0.  0.
        -12    1    1    2    0    0  0.38985272043E+02  0.51651548370E+00  0.11534546368E+02  0.40659119327E+02  0.00000000000E+00 0.  1.
         11    1    3    3    0    0 -0.28458506930E+02 -0.90397162031E+01 -0.11946156937E+02  0.32160748616E+02  0.51100000000E-03 0. -1.
        -11    1    3    3    0    0 -0.22226641066E+01 -0.26490881039E+01 -0.23440012039E+01  0.41775884692E+01  0.51100000000E-03 0.  1.
        -12    1    3    3    0    0 -0.83041010071E+01  0.11172288823E+02  0.27556117722E+01  0.14190543588E+02  0.00000000000E+00 0.  1.
</event>
<event>
 7    1  0.2945316E-011  0.5052897E+02  0.7816164E-02  0.1300438E+00
        -11   -1    0    0    0    0  0.00000000000E+00  0.00000000000E+00  0.45593999997E+02  0.45594000000E+02  0.51100000000E-03 0.  1.
         11   -1    0    0    0    0 -0.00000000000E+00 -0.00000000000E+00 -0.45593999997E+02  0.45594000000E+02  0.51100000000E-03 0. -1.
    9900012    2    1    2    0    0 -0.10012721992E+02 -0.12878069284E+02 -0.37243223525E+02  0.50528966948E+02  0.30000325533E+02 0.  0.
        -12    1    1    2    0    0  0.10012721992E+02  0.12878069284E+02  0.37243223525E+02  0.40659033052E+02  0.00000000000E+00 0.  1.
         11    1    3    3    0    0 -0.14035468568E+02 -0.76967971465E+01 -0.26994247391E+02  0.31383506125E+02  0.51100000000E-03 0. -1.
        -11    1    3    3    0    0 -0.36693346321E+01 -0.58421416871E+01 -0.80246249590E+00  0.69454000931E+01  0.51100000000E-03 0.  1.
         12    1    3    3    0    0  0.76920812086E+01  0.66086954928E+00 -0.94465136384E+01  0.12200060729E+02  0.00000000000E+00 0. -1.
</event>
<event>
 7    1  0.2945316E-011  0.5052886E+02  0.7816164E-02  0.1300439E+00
        -11   -1    0    0    0    0  0.00000000000E+00  0.00000000000E+00  0.45593999997E+02  0.45594000000E+02  0.51100000000E-03 0.  1.
         11   -1    0    0    0    0 -0.00000000000E+00 -0.00000000000E+00 -0.45593999997E+02  0.45594000000E+02  0.51100000000E-03 0. -1.
    9900012    2    1    2    0    0 -0.21221448440E+02  0.25283093375E+01 -0.34589350209E+02  0.50528863636E+02  0.30000011506E+02 0.  0.
        -12    1    1    2    0    0  0.21221448440E+02 -0.25283093375E+01  0.34589350209E+02  0.40659136364E+02  0.00000000000E+00 0.  1.
         11    1    3    3    0    0 -0.71515627728E+01  0.85773291308E+01 -0.88769924834E+01  0.14265918159E+02  0.51100000000E-03 0. -1.
        -11    1    3    3    0    0 -0.16220883971E+01 -0.13472472252E+01  0.35434051157E+01  0.41233440226E+01  0.51100000000E-03 0.  1.
         12    1    3    3    0    0 -0.12447797270E+02 -0.47017725681E+01 -0.29255762842E+02  0.32139601454E+02  0.00000000000E+00 0. -1.
</event>
<event>
 7    1  0.2945316E-011  0.5052885E+02  0.7816164E-02  0.1300439E+00
        -11   -1    0    0    0    0  0.00000000000E+00  0.00000000000E+00  0.45593999997E+02  0.45594000000E+02  0.51100000000E-03 0.  1.
         11   -1    0    0    0    0 -0.00000000000E+00 -0.00000000000E+00 -0.45593999997E+02  0.45594000000E+02  0.51100000000E-03 0. -1.
    9900012    2    1    2    0    0 -0.34020240914E+02 -0.14264429196E+02 -0.17097237366E+02  0.50528852718E+02  0.29999978323E+02 0.  0.
        -12    1    1    2    0    0  0.34020240914E+02  0.14264429196E+02  0.17097237366E+02  0.40659147282E+02  0.00000000000E+00 0.  1.
         11    1    3    3    0    0 -0.17583337962E+02 -0.48039811573E+01 -0.64939747905E+01  0.19350031465E+02  0.51100000000E-03 0. -1.
        -11    1    3    3    0    0 -0.20800786181E+02 -0.12241941313E+02 -0.90345968146E+01  0.25771336262E+02  0.51100000000E-03 0.  1.
        -12    1    3    3    0    0  0.43638832285E+01  0.27814932751E+01 -0.15686657607E+01  0.54074849921E+01  0.00000000000E+00 0.  1.
</event>
<event>
 7    1  0.2945316E-011  0.5052886E+02  0.7816164E-02  0.1300439E+00
        -11   -1    0    0    0    0  0.00000000000E+00  0.00000000000E+00  0.45593999997E+02  0.45594000000E+02  0.51100000000E-03 0.  1.
         11   -1    0    0    0    0 -0.00000000000E+00 -0.00000000000E+00 -0.45593999997E+02  0.45594000000E+02  0.51100000000E-03 0. -1.
    9900012    2    1    2    0    0  0.34657263566E+02 -0.98178654377E+01 -0.18858656508E+02  0.50528864189E+02  0.30000013188E+02 0.  0.
        -12    1    1    2    0    0 -0.34657263566E+02  0.98178654377E+01  0.18858656508E+02  0.40659135811E+02  0.00000000000E+00 0.  1.
         11    1    3    3    0    0  0.18517228534E+02 -0.10022801573E+02 -0.12405456831E+02  0.24438487339E+02  0.51100000000E-03 0. -1.
        -11    1    3    3    0    0  0.11209846907E+02 -0.87204602624E+01 -0.34966580656E+00  0.14206666087E+02  0.51100000000E-03 0.  1.
         12    1    3    3    0    0  0.49301881254E+01  0.89253963975E+01 -0.61035338702E+01  0.11883710763E+02  0.00000000000E+00 0. -1.
</event>
<event>
 7    1  0.2945316E-011  0.5052887E+02  0.7816164E-02  0.1300439E+00
        -11   -1    0    0    0    0  0.00000000000E+00  0.00000000000E+00  0.45593999997E+02  0.45594000000E+02  0.51100000000E-03 0. -1.
         11   -1    0    0    0    0 -0.00000000000E+00 -0.00000000000E+00 -0.45593999997E+02  0.45594000000E+02  0.51100000000E-03 0.  1.
    9900012    2    1    2    0    0  0.13673817053E+02  0.20682469261E+02 -0.32224632931E+02  0.50528870950E+02  0.30000033741E+02 0.  0.
        -12    1    1    2    0    0 -0.13673817053E+02 -0.20682469261E+02  0.32224632931E+02  0.40659129050E+02  0.00000000000E+00 0.  1.
         11    1    3    3    0    0 -0.36142864316E+01  0.53954161321E+01 -0.59008434084E+01  0.87745959930E+01  0.51100000000E-03 0.  1.
        -11    1    3    3    0    0 -0.28988284322E+01  0.11417930680E+02 -0.82268804797E+01  0.14368504096E+02  0.51100000000E-03 0. -1.
        -12    1    3    3    0    0  0.20186931917E+02  0.38691224497E+01 -0.18096909043E+02  0.27385770861E+02  0.00000000000E+00 0.  1.
</event>
<event>
 7    1  0.2945316E-011  0.5052885E+02  0.7816164E-02  0.1300439E+00
        -11   -1    0    0    0    0  0.00000000000E+00  0.00000000000E+00  0.45593999997E+02  0.45594000000E+02  0.51100000000E-03 0.  1.
         11   -1    0    0    0    0 -0.00000000000E+00 -0.00000000000E+00 -0.45593999997E+02  0.45594000000E+02  0.51100000000E-03 0. -1.
    9900012    2    1    2    0    0  0.10953097094E+02  0.24511105348E+02 -0.30535252908E+02  0.50528852302E+02  0.29999977058E+02 0.  0.
        -12    1    1    2    0    0 -0.10953097094E+02 -0.24511105348E+02  0.30535252908E+02  0.40659147698E+02  0.00000000000E+00 0.  1.
         11    1    3    3    0    0  0.14066905891E+01  0.76079006248E+01 -0.85596306059E+01  0.11538033052E+02  0.51100000000E-03 0. -1.
        -11    1    3    3    0    0  0.89955257272E+01  0.65556805356E+01 -0.25678290727E+02  0.27986979925E+02  0.51100000000E-03 0.  1.
        -12    1    3    3    0    0  0.55088077796E+00  0.10347524188E+02  0.37026684248E+01  0.11003839326E+02  0.00000000000E+00 0.  1.
</event>
<event>
 7    1  0.2945316E-011  0.5052875E+02  0.7816164E-02  0.1300439E+00
        -11   -1    0    0    0    0  0.00000000000E+00  0.00000000000E+00  0.45593999997E+02  0.45594000000E+02  0.51100000000E-03 0.  1.
         11   -1    0    0    0    0 -0.00000000000E+00 -0.00000000000E+00 -0.45593999997E+02  0.45594000000E+02  0.51100000000E-03 0. -1.
    9900012    2    1    2    0    0  0.27468581106E+02  0.31836881737E+01 -0.29807985329E+02  0.50528747575E+02  0.29999658727E+02 0.  0.
        -12    1    1    2    0    0 -0.27468581106E+02 -0.31836881737E+01  0.29807985329E+02  0.40659252425E+02  0.00000000000E+00 0.  1.
         11    1    3    3    0    0  0.16772035741E+02  0.10814251071E+02 -0.20813142491E+02  0.28834633859E+02  0.51100000000E-03 0. -1.
        -11    1    3    3    0    0 -0.39799311395E-01  0.39437767120E+01 -0.15194478774E+01  0.42265447889E+01  0.51100000000E-03 0.  1.
        -12    1    3    3    0    0  0.10736344676E+02 -0.11574339610E+02 -0.74753949606E+01  0.17467568927E+02  0.00000000000E+00 0.  1.
</event>
<event>
 7    1  0.2945316E-011  0.5052886E+02  0.7816164E-02  0.1300439E+00
        -11   -1    0    0    0    0  0.00000000000E+00  0.00000000000E+00  0.45593999997E+02  0.45594000000E+02  0.51100000000E-03 0.  1.
         11   -1    0    0    0    0 -0.00000000000E+00 -0.00000000000E+00 -0.45593999997E+02  0.45594000000E+02  0.51100000000E-03 0. -1.
    9900012    2    1    2    0    0 -0.34722944905E+02 -0.83563417560E+01  0.19433323092E+02  0.50528863304E+02  0.30000010500E+02 0.  0.
        -12    1    1    2    0    0  0.34722944905E+02  0.83563417560E+01 -0.19433323092E+02  0.40659136696E+02  0.00000000000E+00 0.  1.
         11    1    3    3    0    0  0.17241848927E+01  0.20480990976E+01  0.67638812720E+01  0.72744493662E+01  0.51100000000E-03 0. -1.
        -11    1    3    3    0    0  0.15281460189E+01 -0.18728359988E+01  0.10482828643E+01  0.26346996334E+01  0.51100000000E-03 0.  1.
         12    1    3    3    0    0 -0.37975275816E+02 -0.85316048548E+01  0.11621158956E+02  0.40619714305E+02  0.00000000000E+00 0. -1.
</event>
<event>
 7    1  0.2945316E-011  0.5052886E+02  0.7816164E-02  0.1300439E+00
        -11   -1    0    0    0    0  0.00000000000E+00  0.00000000000E+00  0.45593999997E+02  0.45594000000E+02  0.51100000000E-03 0.  1.
         11   -1    0    0    0    0 -0.00000000000E+00 -0.00000000000E+00 -0.45593999997E+02  0.45594000000E+02  0.51100000000E-03 0. -1.
    9900012    2    1    2    0    0  0.59797796785E+00 -0.29287227353E+02 -0.28196920565E+02  0.50528860892E+02  0.30000003168E+02 0.  0.
        -12    1    1    2    0    0 -0.59797796785E+00  0.29287227353E+02  0.28196920565E+02  0.40659139108E+02  0.00000000000E+00 0.  1.
         11    1    3    3    0    0  0.23639189219E+01 -0.19577016266E+02 -0.77507149128E+01  0.21187762045E+02  0.51100000000E-03 0. -1.
        -11    1    3    3    0    0 -0.46150970730E+01  0.42572193127E+01 -0.34708687561E+01  0.71742572754E+01  0.51100000000E-03 0.  1.
         12    1    3    3    0    0  0.28491561189E+01 -0.13967430399E+02 -0.16975336896E+02  0.22166841572E+02  0.00000000000E+00 0. -1.
</event>
<event>
 7    1  0.2945316E-011  0.5052885E+02  0.7816164E-02  0.1300439E+00
        -11   -1    0    0    0    0  0.00000000000E+00  0.00000000000E+00  0.45593999997E+02  0.45594000000E+02  0.51100000000E-03 0. -1.
         11   -1    0    0    0    0 -0.00000000000E+00 -0.00000000000E+00 -0.45593999997E+02  0.45594000000E+02  0.51100000000E-03 0.  1.
    9900012    2    1    2    0    0  0.28862188250E+02 -0.23884950840E+02 -0.15800294806E+02  0.50528854619E+02  0.29999984098E+02 0.  0.
        -12    1    1    2    0    0 -0.28862188250E+02  0.23884950840E+02  0.15800294806E+02  0.40659145381E+02  0.00000000000E+00 0.  1.
         11    1    3    3    0    0  0.17190488317E+02 -0.13962298297E+02 -0.29516267462E+01  0.22342129778E+02  0.51100000000E-03 0. -1.
        -11    1    3    3    0    0  0.11270085803E+02  0.24411243807E+01 -0.19397708757E+01  0.11693444042E+02  0.51100000000E-03 0.  1.
        -12    1    3    3    0    0  0.40161412985E+00 -0.12363776924E+02 -0.10908897184E+02  0.16493280799E+02  0.00000000000E+00 0.  1.
</event>
<event>
 7    1  0.2945316E-011  0.5052886E+02  0.7816164E-02  0.1300439E+00
        -11   -1    0    0    0    0  0.00000000000E+00  0.00000000000E+00  0.45593999997E+02  0.45594000000E+02  0.51100000000E-03 0.  1.
         11   -1    0    0    0    0 -0.00000000000E+00 -0.00000000000E+00 -0.45593999997E+02  0.45594000000E+02  0.51100000000E-03 0. -1.
    9900012    2    1    2    0    0  0.37966132792E+01 -0.71451472830E+01 -0.39845929903E+02  0.50528861643E+02  0.30000005451E+02 0.  0.
        -12    1    1    2    0    0 -0.37966132792E+01  0.71451472830E+01  0.39845929903E+02  0.40659138357E+02  0.00000000000E+00 0.  1.
         11    1    3    3    0    0 -0.91467795998E+00  0.53899261352E+01 -0.35237700229E+02  0.35659268882E+02  0.51100000000E-03 0. -1.
        -11    1    3    3    0    0  0.15285607610E+01 -0.16220077728E+01 -0.24259090297E+01  0.32943044936E+01  0.51100000000E-03 0.  1.
         12    1    3    3    0    0  0.31827304782E+01 -0.10913065645E+02 -0.21823206438E+01  0.11575288267E+02  0.00000000000E+00 0. -1.
</event>
<event>
 7    1  0.2945316E-011  0.5052886E+02  0.7816164E-02  0.1300439E+00
        -11   -1    0    0    0    0  0.00000000000E+00  0.00000000000E+00  0.45593999997E+02  0.45594000000E+02  0.51100000000E-03 0.  1.
         11   -1    0    0    0    0 -0.00000000000E+00 -0.00000000000E+00 -0.45593999997E+02  0.45594000000E+02  0.51100000000E-03 0. -1.
    9900012    2    1    2    0    0  0.15677617669E+02  0.33998535972E+02 -0.15858033177E+02  0.50528863755E+02  0.30000011869E+02 0.  0.
        -12    1    1    2    0    0 -0.15677617669E+02 -0.33998535972E+02  0.15858033177E+02  0.40659136245E+02  0.00000000000E+00 0.  1.
         11    1    3    3    0    0  0.15765419970E+02  0.21696657006E+02 -0.14941611655E+02  0.30700898215E+02  0.51100000000E-03 0. -1.
        -11    1    3    3    0    0  0.39560294960E+01  0.11798924578E+01 -0.57214974902E+01  0.70553419036E+01  0.51100000000E-03 0.  1.
        -12    1    3    3    0    0 -0.40438317978E+01  0.11121986508E+02  0.48050759687E+01  0.12772623636E+02  0.00000000000E+00 0.  1.
</event>
<event>
 7    1  0.2945316E-011  0.5052886E+02  0.7816164E-02  0.1300439E+00
        -11   -1    0    0    0    0  0.00000000000E+00  0.00000000000E+00  0.45593999997E+02  0.45594000000E+02  0.51100000000E-03 0.  1.
         11   -1    0    0    0    0 -0.00000000000E+00 -0.00000000000E+00 -0.45593999997E+02  0.45594000000E+02  0.51100000000E-03 0. -1.
    9900012    2    1    2    0    0 -0.12883523027E+02 -0.20481614651E+02 -0.32675429529E+02  0.50528863275E+02  0.30000010412E+02 0.  0.
        -12    1    1    2    0    0  0.12883523027E+02  0.20481614651E+02  0.32675429529E+02  0.40659136725E+02  0.00000000000E+00 0.  1.
         11    1    3    3    0    0  0.42340026375E+01 -0.37571965966E+01 -0.52116704395E+01  0.76944664292E+01  0.51100000000E-03 0. -1.
        -11    1    3    3    0    0  0.32276006137E+01 -0.99461819825E+01 -0.14144811954E+02  0.17590328230E+02  0.51100000000E-03 0.  1.
        -12    1    3    3    0    0 -0.20345126278E+02 -0.67782360718E+01 -0.13318947135E+02  0.25244068617E+02  0.00000000000E+00 0.  1.
</event>
<event>
 7    1  0.2945316E-011  0.5052888E+02  0.7816164E-02  0.1300439E+00
        -11   -1    0    0    0    0  0.00000000000E+00  0.00000000000E+00  0.45593999997E+02  0.45594000000E+02  0.51100000000E-03 0.  1.
         11   -1    0    0    0    0 -0.00000000000E+00 -0.00000000000E+00 -0.45593999997E+02  0.45594000000E+02  0.51100000000E-03 0. -1.
    9900012    2    1    2    0    0 -0.41153352707E+01  0.13754888695E+02 -0.38039859783E+02  0.50528881961E+02  0.30000067208E+02 0.  0.
        -12    1    1    2    0    0  0.41153352707E+01 -0.13754888695E+02  0.38039859783E+02  0.40659118039E+02  0.00000000000E+00 0.  1.
         11    1    3    3    0    0  0.17057611680E+01 -0.57753589117E+00  0.36884288669E+01  0.41045921399E+01  0.51100000000E-03 0. -1.
        -11    1    3    3    0    0  0.49844506676E+00 -0.12691523707E+01  0.68504245592E-01  0.13652429518E+01  0.51100000000E-03 0.  1.
         12    1    3    3    0    0 -0.63195415055E+01  0.15601576957E+02 -0.41796792896E+02  0.45059046869E+02  0.00000000000E+00 0. -1.
</event>
<event>
 7    1  0.2945316E-011  0.5052883E+02  0.7816164E-02  0.1300439E+00
        -11   -1    0    0    0    0  0.00000000000E+00  0.00000000000E+00  0.45593999997E+02  0.45594000000E+02  0.51100000000E-03 0. -1.
         11   -1    0    0    0    0 -0.00000000000E+00 -0.00000000000E+00 -0.45593999997E+02  0.45594000000E+02  0.51100000000E-03 0.  1.
    9900012    2    1    2    0    0  0.38356462560E+01  0.21851251115E+02  0.34073138344E+02  0.50528829889E+02  0.29999908931E+02 0.  0.
        -12    1    1    2    0    0 -0.38356462560E+01 -0.21851251115E+02 -0.34073138344E+02  0.40659170111E+02  0.00000000000E+00 0.  1.
         11    1    3    3    0    0 -0.36912313978E+01 -0.48269968378E+00  0.30043915479E+01  0.47837806232E+01  0.51100000000E-03 0. -1.
        -11    1    3    3    0    0 -0.58426810387E+01 -0.16038274066E+01  0.43281834084E+01  0.74459623923E+01  0.51100000000E-03 0.  1.
         12    1    3    3    0    0  0.13369558693E+02  0.23937778205E+02  0.26740563388E+02  0.38299086873E+02  0.00000000000E+00 0. -1.
</event>
<event>
 7    1  0.2945316E-011  0.5052885E+02  0.7816164E-02  0.1300439E+00
        -11   -1    0    0    0    0  0.00000000000E+00  0.00000000000E+00  0.45593999997E+02  0.45594000000E+02  0.51100000000E-03 0.  1.
         11   -1    0    0    0    0 -0.00000000000E+00 -0.00000000000E+00 -0.45593999997E+02  0.45594000000E+02  0.51100000000E-03 0. -1.
    9900012    2    1    2    0    0  0.33867939576E+02  0.21489603954E+02  0.66577891784E+01  0.50528848927E+02  0.29999966799E+02 0.  0.
        -12    1    1    2    0    0 -0.33867939576E+02 -0.21489603954E+02 -0.66577891784E+01  0.40659151073E+02  0.00000000000E+00 0.  1.
         11    1    3    3    0    0  0.74448191161E+01 -0.89329301763E+00  0.84325879112E+01  0.11284141227E+02  0.51100000000E-03 0. -1.
        -11    1    3    3    0    0  0.33269719084E+01  0.80292515576E+01  0.64634958118E+01  0.10831177269E+02  0.51100000000E-03 0.  1.
         12    1    3    3    0    0  0.23096148552E+02  0.14353645414E+02 -0.82382945446E+01  0.28413530432E+02  0.00000000000E+00 0. -1.
</event>
<event>
 7    1  0.2945316E-011  0.5052886E+02  0.7816164E-02  0.1300439E+00
        -11   -1    0    0    0    0  0.00000000000E+00  0.00000000000E+00  0.45593999997E+02  0.45594000000E+02  0.51100000000E-03 0.  1.
         11   -1    0    0    0    0 -0.00000000000E+00 -0.00000000000E+00 -0.45593999997E+02  0.45594000000E+02  0.51100000000E-03 0. -1.
    9900012    2    1    2    0    0  0.23513111096E+02  0.17429282510E+01 -0.33124939842E+02  0.50528857955E+02  0.29999994239E+02 0.  0.
        -12    1    1    2    0    0 -0.23513111096E+02 -0.17429282510E+01  0.33124939842E+02  0.40659142045E+02  0.00000000000E+00 0.  1.
         11    1    3    3    0    0  0.17915754484E+02 -0.63893718798E+01 -0.24349697520E+02  0.30898318746E+02  0.51100000000E-03 0. -1.
        -11    1    3    3    0    0  0.75575425001E+01 -0.13622083293E+01 -0.24742762972E+01  0.80680916969E+01  0.51100000000E-03 0.  1.
        -12    1    3    3    0    0 -0.19601858882E+01  0.94945084601E+01 -0.63009660257E+01  0.11562447512E+02  0.00000000000E+00 0.  1.
</event>
<event>
 7    1  0.2945316E-011  0.5052886E+02  0.7816164E-02  0.1300439E+00
        -11   -1    0    0    0    0  0.00000000000E+00  0.00000000000E+00  0.45593999997E+02  0.45594000000E+02  0.51100000000E-03 0. -1.
         11   -1    0    0    0    0 -0.00000000000E+00 -0.00000000000E+00 -0.45593999997E+02  0.45594000000E+02  0.51100000000E-03 0.  1.
    9900012    2    1    2    0    0 -0.12490451824E+02 -0.35782386363E+02 -0.14723279580E+02  0.50528861763E+02  0.30000005814E+02 0.  0.
        -12    1    1    2    0    0  0.12490451824E+02  0.35782386363E+02  0.14723279580E+02  0.40659138237E+02  0.00000000000E+00 0.  1.
         11    1    3    3    0    0 -0.13042670776E+01  0.87092682375E+00  0.15012517649E+01  0.21710327646E+01  0.51100000000E-03 0. -1.
        -11    1    3    3    0    0 -0.44787471925E+01  0.10056609542E+01  0.30632509424E+01  0.55185176421E+01  0.51100000000E-03 0.  1.
         12    1    3    3    0    0 -0.67074375541E+01 -0.37658974141E+02 -0.19287782287E+02  0.42839311356E+02  0.00000000000E+00 0. -1.
</event>
<event>
 7    1  0.2945316E-011  0.5052884E+02  0.7816164E-02  0.1300439E+00
        -11   -1    0    0    0    0  0.00000000000E+00  0.00000000000E+00  0.45593999997E+02  0.45594000000E+02  0.51100000000E-03 0.  1.
         11   -1    0    0    0    0 -0.00000000000E+00 -0.00000000000E+00 -0.45593999997E+02  0.45594000000E+02  0.51100000000E-03 0. -1.
    9900012    2    1    2    0    0 -0.22183081615E+02  0.10764451851E+02 -0.32329621249E+02  0.50528844282E+02  0.29999952678E+02 0.  0.
        -12    1    1    2    0    0  0.22183081615E+02 -0.10764451851E+02  0.32329621249E+02  0.40659155718E+02  0.00000000000E+00 0.  1.
         11    1    3    3    0    0 -0.19794138037E+02  0.42975526393E+01 -0.25830633521E+02  0.32825272088E+02  0.51100000000E-03 0. -1.
        -11    1    3    3    0    0 -0.31686112202E+01 -0.17737827560E+01 -0.84517823358E+01  0.91988601057E+01  0.51100000000E-03 0.  1.
        -12    1    3    3    0    0  0.77966764154E+00  0.82406819676E+01  0.19527946072E+01  0.85047120881E+01  0.00000000000E+00 0.  1.
</event>
<event>
 7    1  0.2945316E-011  0.5052886E+02  0.7816164E-02  0.1300439E+00
        -11   -1    0    0    0    0  0.00000000000E+00  0.00000000000E+00  0.45593999997E+02  0.45594000000E+02  0.51100000000E-03 0.  1.
         11   -1    0    0    0    0 -0.00000000000E+00 -0.00000000000E+00 -0.45593999997E+02  0.45594000000E+02  0.51100000000E-03 0. -1.
    9900012    2    1    2    0    0 -0.28466947721E+02  0.11613221604E+02 -0.26606987935E+02  0.50528857909E+02  0.29999994102E+02 0.  0.
        -12    1    1    2    0    0  0.28466947721E+02 -0.11613221604E+02  0.26606987935E+02  0.40659142091E+02  0.00000000000E+00 0.  1.
         11    1    3    3    0    0 -0.13236721229E+02  0.15737355295E+02 -0.20718800883E+02  0.29191503059E+02  0.51100000000E-03 0. -1.
        -11    1    3    3    0    0 -0.15366833387E+02 -0.15601050664E+01 -0.85372046789E+01  0.17648154582E+02  0.51100000000E-03 0.  1.
        -12    1    3    3    0    0  0.13660689543E+00 -0.25640286244E+01  0.26490176267E+01  0.36892002679E+01  0.00000000000E+00 0.  1.
</event>
<event>
 7    1  0.2945316E-011  0.5052886E+02  0.7816164E-02  0.1300439E+00
        -11   -1    0    0    0    0  0.00000000000E+00  0.00000000000E+00  0.45593999997E+02  0.45594000000E+02  0.51100000000E-03 0.  1.
         11   -1    0    0    0    0 -0.00000000000E+00 -0.00000000000E+00 -0.45593999997E+02  0.45594000000E+02  0.51100000000E-03 0. -1.
    9900012    2    1    2    0    0 -0.38532042986E+02  0.12611304901E+02  0.30663337591E+01  0.50528858953E+02  0.29999997273E+02 0.  0.
        -12    1    1    2    0    0  0.38532042986E+02 -0.12611304901E+02 -0.30663337591E+01  0.40659141047E+02  0.00000000000E+00 0.  1.
         11    1    3    3    0    0 -0.15686178799E+02  0.23949788030E+01 -0.22981041908E+01  0.16033509033E+02  0.51100000000E-03 0. -1.
        -11    1    3    3    0    0 -0.10563014183E+02  0.19372055397E+01 -0.88875209755E+01  0.13939801407E+02  0.51100000000E-03 0.  1.
         12    1    3    3    0    0 -0.12282850004E+02  0.82791205579E+01  0.14251958925E+02  0.20555548512E+02  0.00000000000E+00 0. -1.
</event>
<event>
 7    1  0.2945316E-011  0.5052887E+02  0.7816164E-02  0.1300439E+00
        -11   -1    0    0    0    0  0.00000000000E+00  0.00000000000E+00  0.45593999997E+02  0.45594000000E+02  0.51100000000E-03 0. -1.
         11   -1    0    0    0    0 -0.00000000000E+00 -0.00000000000E+00 -0.45593999997E+02  0.45594000000E+02  0.51100000000E-03 0.  1.
    9900012    2    1    2    0    0  0.98307791864E+01  0.37966905791E+02 -0.10725410469E+02  0.50528873294E+02  0.30000040864E+02 0.  0.
        -12    1    1    2    0    0 -0.98307791864E+01 -0.37966905791E+02  0.10725410469E+02  0.40659126706E+02  0.00000000000E+00 0.  1.
         11    1    3    3    0    0  0.24921362024E+01  0.70569760817E+00  0.25316711540E+01  0.36218932975E+01  0.51100000000E-03 0. -1.
        -11    1    3    3    0    0  0.13139961136E+02  0.91090216188E+01 -0.71857802970E+01  0.17529069920E+02  0.51100000000E-03 0.  1.
        -12    1    3    3    0    0 -0.58013181524E+01  0.28152186564E+02 -0.60713013260E+01  0.29377910076E+02  0.00000000000E+00 0.  1.
</event>
<event>
 7    1  0.2945316E-011  0.5052886E+02  0.7816164E-02  0.1300439E+00
        -11   -1    0    0    0    0  0.00000000000E+00  0.00000000000E+00  0.45593999997E+02  0.45594000000E+02  0.51100000000E-03 0. -1.
         11   -1    0    0    0    0 -0.00000000000E+00 -0.00000000000E+00 -0.45593999997E+02  0.45594000000E+02  0.51100000000E-03 0.  1.
    9900012    2    1    2    0    0  0.24202994598E+02 -0.30711812241E+02 -0.11142943703E+02  0.50528861384E+02  0.30000004662E+02 0.  0.
        -12    1    1    2    0    0 -0.24202994598E+02  0.30711812241E+02  0.11142943703E+02  0.40659138616E+02  0.00000000000E+00 0.  1.
         11    1    3    3    0    0  0.22363848483E+02 -0.18323766650E+02 -0.12408471281E+02  0.31462236141E+02  0.51100000000E-03 0. -1.
        -11    1    3    3    0    0  0.36333243438E+01 -0.14700357208E+02  0.33052426541E+01  0.15499231500E+02  0.51100000000E-03 0.  1.
        -12    1    3    3    0    0 -0.17941782288E+01  0.23123116160E+01 -0.20397150764E+01  0.35673937432E+01  0.00000000000E+00 0.  1.
</event>
<event>
 7    1  0.2945316E-011  0.5052886E+02  0.7816164E-02  0.1300439E+00
        -11   -1    0    0    0    0  0.00000000000E+00  0.00000000000E+00  0.45593999997E+02  0.45594000000E+02  0.51100000000E-03 0.  1.
         11   -1    0    0    0    0 -0.00000000000E+00 -0.00000000000E+00 -0.45593999997E+02  0.45594000000E+02  0.51100000000E-03 0. -1.
    9900012    2    1    2    0    0 -0.29178816606E+02  0.14844904020E+02 -0.24112060780E+02  0.50528856023E+02  0.29999988368E+02 0.  0.
        -12    1    1    2    0    0  0.29178816606E+02 -0.14844904020E+02  0.24112060780E+02  0.40659143977E+02  0.00000000000E+00 0.  1.
         11    1    3    3    0    0 -0.65584672699E+01  0.86926861095E+01 -0.23076175800E+02  0.25516390312E+02  0.51100000000E-03 0.  1.
        -11    1    3    3    0    0 -0.10840249400E+02  0.80207495904E-01 -0.37757747555E+01  0.11479282015E+02  0.51100000000E-03 0. -1.
        -12    1    3    3    0    0 -0.11780099936E+02  0.60720104142E+01  0.27398897761E+01  0.13533183696E+02  0.00000000000E+00 0.  1.
</event>
<event>
 7    1  0.2945316E-011  0.5052886E+02  0.7816164E-02  0.1300439E+00
        -11   -1    0    0    0    0  0.00000000000E+00  0.00000000000E+00  0.45593999997E+02  0.45594000000E+02  0.51100000000E-03 0. -1.
         11   -1    0    0    0    0 -0.00000000000E+00 -0.00000000000E+00 -0.45593999997E+02  0.45594000000E+02  0.51100000000E-03 0.  1.
    9900012    2    1    2    0    0  0.27436859685E+01 -0.37728344481E+02 -0.14906693628E+02  0.50528864435E+02  0.30000013936E+02 0.  0.
        -12    1    1    2    0    0 -0.27436859685E+01  0.37728344481E+02  0.14906693628E+02  0.40659135565E+02  0.00000000000E+00 0.  1.
         11    1    3    3    0    0 -0.71062674999E+00 -0.14739577736E+02 -0.62953571310E+01  0.16043430552E+02  0.51100000000E-03 0. -1.
        -11    1    3    3    0    0 -0.83664530352E+01 -0.11116646819E+02 -0.10768495454E+02  0.17593688286E+02  0.51100000000E-03 0.  1.
         12    1    3    3    0    0  0.11820765754E+02 -0.11872119926E+02  0.21571589568E+01  0.16891745597E+02  0.00000000000E+00 0. -1.
</event>
<event>
 7    1  0.2945316E-011  0.5052885E+02  0.7816164E-02  0.1300439E+00
        -11   -1    0    0    0    0  0.00000000000E+00  0.00000000000E+00  0.45593999997E+02  0.45594000000E+02  0.51100000000E-03 0.  1.
         11   -1    0    0    0    0 -0.00000000000E+00 -0.00000000000E+00 -0.45593999997E+02  0.45594000000E+02  0.51100000000E-03 0. -1.
    9900012    2    1    2    0    0  0.35742538365E+02 -0.60753519669E+01 -0.18404545452E+02  0.50528852891E+02  0.29999978849E+02 0.  0.
        -12    1    1    2    0    0 -0.35742538365E+02  0.60753519669E+01  0.18404545452E+02  0.40659147109E+02  0.00000000000E+00 0.  1.
         11    1    3    3    0    0  0.21771228042E+02 -0.72842561674E+01 -0.70298260433E+01  0.24009689977E+02  0.51100000000E-03 0. -1.
        -11    1    3    3    0    0  0.16717592369E+02  0.16125767043E+01 -0.22059622260E+01  0.16939438239E+02  0.51100000000E-03 0.  1.
         12    1    3    3    0    0 -0.27462820460E+01 -0.40367250383E+00 -0.91687571831E+01  0.95797246750E+01  0.00000000000E+00 0. -1.
</event>
<event>
 7    1  0.2945316E-011  0.5052887E+02  0.7816164E-02  0.1300439E+00
        -11   -1    0    0    0    0  0.00000000000E+00  0.00000000000E+00  0.45593999997E+02  0.45594000000E+02  0.51100000000E-03 0. -1.
         11   -1    0    0    0    0 -0.00000000000E+00 -0.00000000000E+00 -0.45593999997E+02  0.45594000000E+02  0.51100000000E-03 0.  1.
    9900012    2    1    2    0    0  0.22386397921E+02 -0.31861825778E+02 -0.11697785833E+02  0.50528868834E+02  0.30000027308E+02 0.  0.
        -12    1    1    2    0    0 -0.22386397921E+02  0.31861825778E+02  0.11697785833E+02  0.40659131166E+02  0.00000000000E+00 0.  1.
         11    1    3    3    0    0  0.13995487573E+02 -0.10183373219E+02 -0.10261771356E+02  0.20121598201E+02  0.51100000000E-03 0. -1.
        -11    1    3    3    0    0  0.14600099581E+01 -0.19512840292E+02 -0.74913665760E+01  0.20952401742E+02  0.51100000000E-03 0.  1.
        -12    1    3    3    0    0  0.69309003900E+01 -0.21656122665E+01  0.60553520990E+01  0.94548688911E+01  0.00000000000E+00 0.  1.
</event>
<event>
 7    1  0.2945316E-011  0.5052885E+02  0.7816164E-02  0.1300439E+00
        -11   -1    0    0    0    0  0.00000000000E+00  0.00000000000E+00  0.45593999997E+02  0.45594000000E+02  0.51100000000E-03 0.  1.
         11   -1    0    0    0    0 -0.00000000000E+00 -0.00000000000E+00 -0.45593999997E+02  0.45594000000E+02  0.51100000000E-03 0. -1.
    9900012    2    1    2    0    0 -0.31139654724E+02 -0.23231899922E+02 -0.11990283737E+02  0.50528853742E+02  0.29999981435E+02 0.  0.
        -12    1    1    2    0    0  0.31139654724E+02  0.23231899922E+02  0.11990283737E+02  0.40659146258E+02  0.00000000000E+00 0.  1.
         11    1    3    3    0    0  0.13647877769E+01 -0.12825355223E+01 -0.52619292985E+01  0.55852881077E+01  0.51100000000E-03 0. -1.
        -11    1    3    3    0    0  0.77312507752E+00 -0.20684963608E+01 -0.57585797308E+01  0.61674662834E+01  0.51100000000E-03 0.  1.
         12    1    3    3    0    0 -0.33277567578E+02 -0.19880868039E+02 -0.96977470808E+00  0.38776099351E+02  0.00000000000E+00 0. -1.
</event>
<event>
 7    1  0.2945316E-011  0.5052886E+02  0.7816164E-02  0.1300439E+00
        -11   -1    0    0    0    0  0.00000000000E+00  0.00000000000E+00  0.45593999997E+02  0.45594000000E+02  0.51100000000E-03 0. -1.
         11   -1    0    0    0    0 -0.00000000000E+00 -0.00000000000E+00 -0.45593999997E+02  0.45594000000E+02  0.51100000000E-03 0.  1.
    9900012    2    1    2    0    0  0.20262628067E+01  0.19223727158E+02  0.35770210382E+02  0.50528863541E+02  0.30000011219E+02 0.  0.
        -12    1    1    2    0    0 -0.20262628067E+01 -0.19223727158E+02 -0.35770210382E+02  0.40659136459E+02  0.00000000000E+00 0.  1.
         11    1    3    3    0    0 -0.23510269913E+01  0.31176846930E+01  0.10709790501E+02  0.11399425362E+02  0.51100000000E-03 0. -1.
        -11    1    3    3    0    0 -0.39413406965E-01 -0.63101888387E+01  0.97949028891E+01  0.11651616174E+02  0.51100000000E-03 0.  1.
        -12    1    3    3    0    0  0.44167032049E+01  0.22416231304E+02  0.15265516992E+02  0.27477822005E+02  0.00000000000E+00 0.  1.
</event>
<event>
 7    1  0.2945316E-011  0.5052887E+02  0.7816164E-02  0.1300439E+00
        -11   -1    0    0    0    0  0.00000000000E+00  0.00000000000E+00  0.45593999997E+02  0.45594000000E+02  0.51100000000E-03 0.  1.
         11   -1    0    0    0    0 -0.00000000000E+00 -0.00000000000E+00 -0.45593999997E+02  0.45594000000E+02  0.51100000000E-03 0. -1.
    9900012    2    1    2    0    0  0.14937131304E+02  0.27323839484E+02 -0.26142974094E+02  0.50528865845E+02  0.30000018222E+02 0.  0.
        -12    1    1    2    0    0 -0.14937131304E+02 -0.27323839484E+02  0.26142974094E+02  0.40659134155E+02  0.00000000000E+00 0.  1.
         11    1    3    3    0    0  0.68216021885E+01  0.96604233675E+01 -0.18008001738E+02  0.21544051683E+02  0.51100000000E-03 0. -1.
        -11    1    3    3    0    0  0.51846133355E+01  0.55711317492E+01 -0.13450730259E+02  0.15454444965E+02  0.51100000000E-03 0.  1.
        -12    1    3    3    0    0  0.29309157797E+01  0.12092284368E+02  0.53157579029E+01  0.13530369197E+02  0.00000000000E+00 0.  1.
</event>
<event>
 7    1  0.2945316E-011  0.5052889E+02  0.7816164E-02  0.1300439E+00
        -11   -1    0    0    0    0  0.00000000000E+00  0.00000000000E+00  0.45593999997E+02  0.45594000000E+02  0.51100000000E-03 0.  1.
         11   -1    0    0    0    0 -0.00000000000E+00 -0.00000000000E+00 -0.45593999997E+02  0.45594000000E+02  0.51100000000E-03 0. -1.
    9900012    2    1    2    0    0  0.36774800366E+02 -0.46863538834E+01 -0.16697770179E+02  0.50528888062E+02  0.30000085752E+02 0.  0.
        -12    1    1    2    0    0 -0.36774800366E+02  0.46863538834E+01  0.16697770179E+02  0.40659111938E+02  0.00000000000E+00 0.  1.
         11    1    3    3    0    0  0.20322169698E+01 -0.88086674521E+00 -0.82316897504E+01  0.85244676340E+01  0.51100000000E-03 0. -1.
        -11    1    3    3    0    0  0.33573756101E+01  0.56231526689E+01  0.31086177129E+01  0.72495048983E+01  0.51100000000E-03 0.  1.
        -12    1    3    3    0    0  0.31385207786E+02 -0.94286398071E+01 -0.11574698142E+02  0.34754915529E+02  0.00000000000E+00 0.  1.
</event>
<event>
 7    1  0.2945316E-011  0.5052886E+02  0.7816164E-02  0.1300439E+00
        -11   -1    0    0    0    0  0.00000000000E+00  0.00000000000E+00  0.45593999997E+02  0.45594000000E+02  0.51100000000E-03 0.  1.
         11   -1    0    0    0    0 -0.00000000000E+00 -0.00000000000E+00 -0.45593999997E+02  0.45594000000E+02  0.51100000000E-03 0. -1.
    9900012    2    1    2    0    0 -0.30468902931E+02  0.25777988520E+02  0.77657503557E+01  0.50528860602E+02  0.30000002287E+02 0.  0.
        -12    1    1    2    0    0  0.30468902931E+02 -0.25777988520E+02 -0.77657503557E+01  0.40659139398E+02  0.00000000000E+00 0.  1.
         11    1    3    3    0    0 -0.18566595905E+02  0.42363938628E+01  0.78467111361E+01  0.20596999597E+02  0.51100000000E-03 0. -1.
        -11    1    3    3    0    0 -0.11176632142E+02  0.61890328496E+01  0.50363211593E+01  0.13732653230E+02  0.51100000000E-03 0.  1.
        -12    1    3    3    0    0 -0.72567488302E+00  0.15352561808E+02 -0.51172819397E+01  0.16199207775E+02  0.00000000000E+00 0.  1.
</event>
<event>
 7    1  0.2945316E-011  0.5052886E+02  0.7816164E-02  0.1300439E+00
        -11   -1    0    0    0    0  0.00000000000E+00  0.00000000000E+00  0.45593999997E+02  0.45594000000E+02  0.51100000000E-03 0.  1.
         11   -1    0    0    0    0 -0.00000000000E+00 -0.00000000000E+00 -0.45593999997E+02  0.45594000000E+02  0.51100000000E-03 0. -1.
    9900012    2    1    2    0    0 -0.21106451858E+02 -0.11523033589E+01 -0.34732629787E+02  0.50528859761E+02  0.29999999728E+02 0.  0.
        -12    1    1    2    0    0  0.21106451858E+02  0.11523033589E+01  0.34732629787E+02  0.40659140239E+02  0.00000000000E+00 0.  1.
         11    1    3    3    0    0 -0.10555948426E+01 -0.62325516678E+01  0.52101173729E+00  0.63427465861E+01  0.51100000000E-03 0. -1.
        -11    1    3    3    0    0 -0.35432621018E+01  0.23543958975E+01  0.90037172795E+00  0.43483969315E+01  0.51100000000E-03 0.  1.
         12    1    3    3    0    0 -0.16507594914E+02  0.27258524114E+01 -0.36154013253E+02  0.39837716243E+02  0.00000000000E+00 0. -1.
</event>
<event>
 7    1  0.2945316E-011  0.5052886E+02  0.7816164E-02  0.1300439E+00
        -11   -1    0    0    0    0  0.00000000000E+00  0.00000000000E+00  0.45593999997E+02  0.45594000000E+02  0.51100000000E-03 0. -1.
         11   -1    0    0    0    0 -0.00000000000E+00 -0.00000000000E+00 -0.45593999997E+02  0.45594000000E+02  0.51100000000E-03 0.  1.
    9900012    2    1    2    0    0  0.24778606395E+02  0.27618275715E+02  0.16625791034E+02  0.50528863070E+02  0.30000009788E+02 0.  0.
        -12    1    1    2    0    0 -0.24778606395E+02 -0.27618275715E+02 -0.16625791034E+02  0.40659136930E+02  0.00000000000E+00 0.  1.
         11    1    3    3    0    0 -0.13579474028E+01  0.27874163258E+01  0.11141460752E+01  0.32946976584E+01  0.51100000000E-03 0. -1.
        -11    1    3    3    0    0  0.76352945131E+01  0.21708601212E+02  0.19436623169E+00  0.23013015174E+02  0.51100000000E-03 0.  1.
         12    1    3    3    0    0  0.18501259285E+02  0.31222581771E+01  0.15317278727E+02  0.24221150238E+02  0.00000000000E+00 0. -1.
</event>
<event>
 7    1  0.2945316E-011  0.5052885E+02  0.7816164E-02  0.1300439E+00
        -11   -1    0    0    0    0  0.00000000000E+00  0.00000000000E+00  0.45593999997E+02  0.45594000000E+02  0.51100000000E-03 0.  1.
         11   -1    0    0    0    0 -0.00000000000E+00 -0.00000000000E+00 -0.45593999997E+02  0.45594000000E+02  0.51100000000E-03 0. -1.
    9900012    2    1    2    0    0 -0.70251966686E+00  0.40652483874E+02 -0.22085041026E+00  0.50528846616E+02  0.29999959774E+02 0.  0.
        -12    1    1    2    0    0  0.70251966686E+00 -0.40652483874E+02  0.22085041026E+00  0.40659153384E+02  0.00000000000E+00 0.  1.
         11    1    3    3    0    0  0.44748235428E+00  0.10114514583E+02  0.12254582176E+02  0.15895862049E+02  0.51100000000E-03 0.  1.
        -11    1    3    3    0    0  0.39925964238E+01  0.10853720093E+02 -0.19547342134E+01  0.11728812905E+02  0.51100000000E-03 0. -1.
        -12    1    3    3    0    0 -0.51425984449E+01  0.19684249198E+02 -0.10520698373E+02  0.22904171662E+02  0.00000000000E+00 0.  1.
</event>
<event>
 7    1  0.2945316E-011  0.5052886E+02  0.7816164E-02  0.1300439E+00
        -11   -1    0    0    0    0  0.00000000000E+00  0.00000000000E+00  0.45593999997E+02  0.45594000000E+02  0.51100000000E-03 0.  1.
         11   -1    0    0    0    0 -0.00000000000E+00 -0.00000000000E+00 -0.45593999997E+02  0.45594000000E+02  0.51100000000E-03 0. -1.
    9900012    2    1    2    0    0  0.97342101874E+01  0.75141961471E+01 -0.38754972934E+02  0.50528856885E+02  0.29999990987E+02 0.  0.
        -12    1    1    2    0    0 -0.97342101874E+01 -0.75141961471E+01  0.38754972934E+02  0.40659143115E+02  0.00000000000E+00 0.  1.
         11    1    3    3    0    0  0.11379738156E+02  0.24312040586E+01 -0.11805153385E+02  0.16576213089E+02  0.51100000000E-03 0. -1.
        -11    1    3    3    0    0  0.75576347899E+01  0.67960487377E+01 -0.19496123782E+02  0.21986426832E+02  0.51100000000E-03 0.  1.
        -12    1    3    3    0    0 -0.92031627580E+01 -0.17130566492E+01 -0.74536957683E+01  0.11966216964E+02  0.00000000000E+00 0.  1.
</event>
<event>
 7    1  0.2945316E-011  0.5052886E+02  0.7816164E-02  0.1300439E+00
        -11   -1    0    0    0    0  0.00000000000E+00  0.00000000000E+00  0.45593999997E+02  0.45594000000E+02  0.51100000000E-03 0.  1.
         11   -1    0    0    0    0 -0.00000000000E+00 -0.00000000000E+00 -0.45593999997E+02  0.45594000000E+02  0.51100000000E-03 0. -1.
    9900012    2    1    2    0    0  0.18011463828E+02 -0.33871116826E+02 -0.13472200384E+02  0.50528861206E+02  0.30000004121E+02 0.  0.
        -12    1    1    2    0    0 -0.18011463828E+02  0.33871116826E+02  0.13472200384E+02  0.40659138794E+02  0.00000000000E+00 0.  1.
         11    1    3    3    0    0  0.48421292376E+00 -0.20349395147E+02 -0.28340386112E+01  0.20551499219E+02  0.51100000000E-03 0. -1.
        -11    1    3    3    0    0  0.20861431832E+01 -0.82720626145E+01  0.26575751775E+01  0.89354193726E+01  0.51100000000E-03 0.  1.
         12    1    3    3    0    0  0.15441107721E+02 -0.52496590646E+01 -0.13295736950E+02  0.21041942615E+02  0.00000000000E+00 0. -1.
</event>
<event>
 7    1  0.2945316E-011  0.5052886E+02  0.7816164E-02  0.1300439E+00
        -11   -1    0    0    0    0  0.00000000000E+00  0.00000000000E+00  0.45593999997E+02  0.45594000000E+02  0.51100000000E-03 0.  1.
         11   -1    0    0    0    0 -0.00000000000E+00 -0.00000000000E+00 -0.45593999997E+02  0.45594000000E+02  0.51100000000E-03 0. -1.
    9900012    2    1    2    0    0  0.54002372521E+01 -0.62139916766E+01 -0.39816951351E+02  0.50528857488E+02  0.29999992820E+02 0.  0.
        -12    1    1    2    0    0 -0.54002372521E+01  0.62139916766E+01  0.39816951351E+02  0.40659142512E+02  0.00000000000E+00 0.  1.
         11    1    3    3    0    0 -0.70267692265E+01 -0.21202853557E+01 -0.11916478238E+02  0.13995483186E+02  0.51100000000E-03 0. -1.
        -11    1    3    3    0    0  0.38441000474E+01  0.51776004956E+01 -0.21348732375E+02  0.22301413102E+02  0.51100000000E-03 0.  1.
        -12    1    3    3    0    0  0.85829064312E+01 -0.92713068165E+01 -0.65517407374E+01  0.14231961199E+02  0.00000000000E+00 0.  1.
</event>
<event>
 7    1  0.2945316E-011  0.5052886E+02  0.7816164E-02  0.1300439E+00
        -11   -1    0    0    0    0  0.00000000000E+00  0.00000000000E+00  0.45593999997E+02  0.45594000000E+02  0.51100000000E-03 0.  1.
         11   -1    0    0    0    0 -0.00000000000E+00 -0.00000000000E+00 -0.45593999997E+02  0.45594000000E+02  0.51100000000E-03 0. -1.
    9900012    2    1    2    0    0 -0.28384593376E+02 -0.86729593883E+01 -0.27789569970E+02  0.50528861239E+02  0.30000004222E+02 0.  0.
        -12    1    1    2    0    0  0.28384593376E+02  0.86729593883E+01  0.27789569970E+02  0.40659138761E+02  0.00000000000E+00 0.  1.
         11    1    3    3    0    0 -0.13218580791E+02 -0.10025184838E-01 -0.13642766172E+02  0.18996211404E+02  0.51100000000E-03 0. -1.
        -11    1    3    3    0    0 -0.19419238962E+02 -0.30530151873E+01 -0.14587307970E+02  0.24478915370E+02  0.51100000000E-03 0.  1.
         12    1    3    3    0    0  0.42532263767E+01 -0.56099190161E+01  0.44050417229E+00  0.70537344651E+01  0.00000000000E+00 0. -1.
</event>
<event>
 7    1  0.2945316E-011  0.5052885E+02  0.7816164E-02  0.1300439E+00
        -11   -1    0    0    0    0  0.00000000000E+00  0.00000000000E+00  0.45593999997E+02  0.45594000000E+02  0.51100000000E-03 0. -1.
         11   -1    0    0    0    0 -0.00000000000E+00 -0.00000000000E+00 -0.45593999997E+02  0.45594000000E+02  0.51100000000E-03 0.  1.
    9900012    2    1    2    0    0 -0.34245393288E+02 -0.20783852931E+02  0.69606769132E+01  0.50528849404E+02  0.29999968248E+02 0.  0.
        -12    1    1    2    0    0  0.34245393288E+02  0.20783852931E+02 -0.69606769132E+01  0.40659150596E+02  0.00000000000E+00 0.  1.
         11    1    3    3    0    0 -0.44499285140E+00  0.37447569992E+01 -0.28870344006E+01  0.47493359022E+01  0.51100000000E-03 0. -1.
        -11    1    3    3    0    0 -0.78795748976E-01  0.58766190087E+00 -0.20072358091E+01  0.20929766206E+01  0.51100000000E-03 0.  1.
         12    1    3    3    0    0 -0.33721604688E+02 -0.25116271831E+02  0.11854947123E+02  0.43686536881E+02  0.00000000000E+00 0. -1.
</event>
<event>
 7    1  0.2945316E-011  0.5052886E+02  0.7816164E-02  0.1300439E+00
        -11   -1    0    0    0    0  0.00000000000E+00  0.00000000000E+00  0.45593999997E+02  0.45594000000E+02  0.51100000000E-03 0.  1.
         11   -1    0    0    0    0 -0.00000000000E+00 -0.00000000000E+00 -0.45593999997E+02  0.45594000000E+02  0.51100000000E-03 0. -1.
    9900012    2    1    2    0    0  0.34381535024E+01 -0.35322709948E+02 -0.19840646503E+02  0.50528855995E+02  0.29999988282E+02 0.  0.
        -12    1    1    2    0    0 -0.34381535024E+01  0.35322709948E+02  0.19840646503E+02  0.40659144005E+02  0.00000000000E+00 0.  1.
         11    1    3    3    0    0  0.32216018598E+01 -0.24601249414E+01 -0.77163261271E+01  0.87162275344E+01  0.51100000000E-03 0. -1.
        -11    1    3    3    0    0  0.35413653265E+01  0.81450432244E+00 -0.65854957938E+01  0.75215318107E+01  0.51100000000E-03 0.  1.
         12    1    3    3    0    0 -0.33248136839E+01 -0.33677089329E+02 -0.55388245824E+01  0.34291096650E+02  0.00000000000E+00 0. -1.
</event>
<event>
 7    1  0.2945316E-011  0.5052881E+02  0.7816164E-02  0.1300439E+00
        -11   -1    0    0    0    0  0.00000000000E+00  0.00000000000E+00  0.45593999997E+02  0.45594000000E+02  0.51100000000E-03 0.  1.
         11   -1    0    0    0    0 -0.00000000000E+00 -0.00000000000E+00 -0.45593999997E+02  0.45594000000E+02  0.51100000000E-03 0. -1.
    9900012    2    1    2    0    0 -0.89237384235E+01 -0.33294581024E+02 -0.21564041649E+02  0.50528805157E+02  0.29999833755E+02 0.  0.
        -12    1    1    2    0    0  0.89237384235E+01  0.33294581024E+02  0.21564041649E+02  0.40659194843E+02  0.00000000000E+00 0.  1.
         11    1    3    3    0    0 -0.75472900458E+01 -0.17979684671E+02 -0.17635697148E+01  0.19579091559E+02  0.51100000000E-03 0. -1.
        -11    1    3    3    0    0 -0.65614371128E+01 -0.66184558341E+01 -0.71766902845E+00  0.93472703881E+01  0.51100000000E-03 0.  1.
         12    1    3    3    0    0  0.51849887351E+01 -0.86964405196E+01 -0.19082802906E+02  0.21602443210E+02  0.00000000000E+00 0. -1.
</event>
<event>
 7    1  0.2945316E-011  0.5052884E+02  0.7816164E-02  0.1300439E+00
        -11   -1    0    0    0    0  0.00000000000E+00  0.00000000000E+00  0.45593999997E+02  0.45594000000E+02  0.51100000000E-03 0.  1.
         11   -1    0    0    0    0 -0.00000000000E+00 -0.00000000000E+00 -0.45593999997E+02  0.45594000000E+02  0.51100000000E-03 0. -1.
    9900012    2    1    2    0    0  0.15904546787E+02  0.41149566226E+01 -0.37192468468E+02  0.50528841287E+02  0.29999943576E+02 0.  0.
        -12    1    1    2    0    0 -0.15904546787E+02 -0.41149566226E+01  0.37192468468E+02  0.40659158713E+02  0.00000000000E+00 0.  1.
         11    1    3    3    0    0  0.58762452461E+01  0.12286394488E+01 -0.21307603031E+02  0.22137157908E+02  0.51100000000E-03 0. -1.
        -11    1    3    3    0    0  0.17975607095E+01  0.37977815100E+01 -0.19063861158E+02  0.19521402906E+02  0.51100000000E-03 0.  1.
        -12    1    3    3    0    0  0.82307408311E+01 -0.91146433610E+00  0.31789957211E+01  0.88702804725E+01  0.00000000000E+00 0.  1.
</event>
<event>
 7    1  0.2945316E-011  0.5052886E+02  0.7816164E-02  0.1300439E+00
        -11   -1    0    0    0    0  0.00000000000E+00  0.00000000000E+00  0.45593999997E+02  0.45594000000E+02  0.51100000000E-03 0.  1.
         11   -1    0    0    0    0 -0.00000000000E+00 -0.00000000000E+00 -0.45593999997E+02  0.45594000000E+02  0.51100000000E-03 0. -1.
    9900012    2    1    2    0    0  0.15038708479E+02  0.36410290608E+02  0.10064459097E+02  0.50528863859E+02  0.30000012185E+02 0.  0.
        -12    1    1    2    0    0 -0.15038708479E+02 -0.36410290608E+02 -0.10064459097E+02  0.40659136141E+02  0.00000000000E+00 0.  1.
         11    1    3    3    0    0  0.14910778068E+02  0.10956801174E+02 -0.63445649028E+01  0.19561091447E+02  0.51100000000E-03 0.  1.
        -11    1    3    3    0    0  0.29750343584E+01  0.76081842842E+01  0.57122381072E+01  0.99681975297E+01  0.51100000000E-03 0. -1.
        -12    1    3    3    0    0 -0.28471039472E+01  0.17845305150E+02  0.10696785893E+02  0.20999574882E+02  0.00000000000E+00 0.  1.
</event>
<event>
 7    1  0.2945316E-011  0.5052887E+02  0.7816164E-02  0.1300439E+00
        -11   -1    0    0    0    0  0.00000000000E+00  0.00000000000E+00  0.45593999997E+02  0.45594000000E+02  0.51100000000E-03 0.  1.
         11   -1    0    0    0    0 -0.00000000000E+00 -0.00000000000E+00 -0.45593999997E+02  0.45594000000E+02  0.51100000000E-03 0. -1.
    9900012    2    1    2    0    0  0.11551477618E+02  0.15576833160E+01 -0.38952554210E+02  0.50528874432E+02  0.30000044324E+02 0.  0.
        -12    1    1    2    0    0 -0.11551477618E+02 -0.15576833160E+01  0.38952554210E+02  0.40659125568E+02  0.00000000000E+00 0.  1.
         11    1    3    3    0    0  0.12360862310E+02 -0.41624772517E+01 -0.21225108828E+02  0.24912293732E+02  0.51100000000E-03 0. -1.
        -11    1    3    3    0    0  0.47389210768E+01 -0.40011126830E+01 -0.24294669750E+01  0.66609748324E+01  0.51100000000E-03 0.  1.
        -12    1    3    3    0    0 -0.55483057689E+01  0.97212732508E+01 -0.15297978406E+02  0.18955605868E+02  0.00000000000E+00 0.  1.
</event>
<event>
 7    1  0.2945316E-011  0.5052884E+02  0.7816164E-02  0.1300439E+00
        -11   -1    0    0    0    0  0.00000000000E+00  0.00000000000E+00  0.45593999997E+02  0.45594000000E+02  0.51100000000E-03 0.  1.
         11   -1    0    0    0    0 -0.00000000000E+00 -0.00000000000E+00 -0.45593999997E+02  0.45594000000E+02  0.51100000000E-03 0. -1.
    9900012    2    1    2    0    0 -0.48792309872E+01 -0.25969689319E+02 -0.30902032585E+02  0.50528840192E+02  0.29999940248E+02 0.  0.
        -12    1    1    2    0    0  0.48792309872E+01  0.25969689319E+02  0.30902032585E+02  0.40659159808E+02  0.00000000000E+00 0.  1.
         11    1    3    3    0    0 -0.52032401145E+01 -0.17570410172E+02 -0.21034831829E+02  0.27897261006E+02  0.51100000000E-03 0. -1.
        -11    1    3    3    0    0  0.35986897525E+01 -0.99099165910E+01 -0.13753615889E+02  0.17329713358E+02  0.51100000000E-03 0.  1.
        -12    1    3    3    0    0 -0.32746806252E+01  0.15106374435E+01  0.38864151327E+01  0.53018658288E+01  0.00000000000E+00 0.  1.
</event>
<event>
 7    1  0.2945316E-011  0.5052885E+02  0.7816164E-02  0.1300439E+00
        -11   -1    0    0    0    0  0.00000000000E+00  0.00000000000E+00  0.45593999997E+02  0.45594000000E+02  0.51100000000E-03 0. -1.
         11   -1    0    0    0    0 -0.00000000000E+00 -0.00000000000E+00 -0.45593999997E+02  0.45594000000E+02  0.51100000000E-03 0.  1.
    9900012    2    1    2    0    0  0.12888252321E+02 -0.35753239218E+02 -0.14448713002E+02  0.50528850108E+02  0.29999970390E+02 0.  0.
        -12    1    1    2    0    0 -0.12888252321E+02  0.35753239218E+02  0.14448713002E+02  0.40659149892E+02  0.00000000000E+00 0.  1.
         11    1    3    3    0    0 -0.71965683915E+00 -0.23849900981E+02  0.35929371008E+00  0.23863461086E+02  0.51100000000E-03 0. -1.
        -11    1    3    3    0    0  0.13822932548E+01 -0.25494953319E+01  0.22632372472E+01  0.36787095819E+01  0.51100000000E-03 0.  1.
        -12    1    3    3    0    0  0.12225615906E+02 -0.93538429048E+01 -0.17071243960E+02  0.22986679440E+02  0.00000000000E+00 0.  1.
</event>
<event>
 7    1  0.2945316E-011  0.5052887E+02  0.7816164E-02  0.1300439E+00
        -11   -1    0    0    0    0  0.00000000000E+00  0.00000000000E+00  0.45593999997E+02  0.45594000000E+02  0.51100000000E-03 0. -1.
         11   -1    0    0    0    0 -0.00000000000E+00 -0.00000000000E+00 -0.45593999997E+02  0.45594000000E+02  0.51100000000E-03 0.  1.
    9900012    2    1    2    0    0 -0.28828058405E+02  0.24684225183E+02 -0.14587571926E+02  0.50528865983E+02  0.30000018643E+02 0.  0.
        -12    1    1    2    0    0  0.28828058405E+02 -0.24684225183E+02  0.14587571926E+02  0.40659134017E+02  0.00000000000E+00 0.  1.
         11    1    3    3    0    0 -0.25688405267E+02  0.14114621880E+02 -0.16588481650E+02  0.33679287993E+02  0.51100000000E-03 0. -1.
        -11    1    3    3    0    0 -0.28815679863E+01  0.43084220223E+01 -0.51738024248E+01  0.73235350872E+01  0.51100000000E-03 0.  1.
         12    1    3    3    0    0 -0.25808515145E+00  0.62611812803E+01  0.71747121487E+01  0.95260429028E+01  0.00000000000E+00 0. -1.
</event>
<event>
 7    1  0.2945316E-011  0.5052887E+02  0.7816164E-02  0.1300439E+00
        -11   -1    0    0    0    0  0.00000000000E+00  0.00000000000E+00  0.45593999997E+02  0.45594000000E+02  0.51100000000E-03 0. -1.
         11   -1    0    0    0    0 -0.00000000000E+00 -0.00000000000E+00 -0.45593999997E+02  0.45594000000E+02  0.51100000000E-03 0.  1.
    9900012    2    1    2    0    0 -0.21333190210E+02  0.28995805104E+02  0.18902467297E+02  0.50528868331E+02  0.30000025778E+02 0.  0.
        -12    1    1    2    0    0  0.21333190210E+02 -0.28995805104E+02 -0.18902467297E+02  0.40659131669E+02  0.00000000000E+00 0.  1.
         11    1    3    3    0    0  0.22664263244E+01  0.10385121861E+02 -0.11954194008E+00  0.10630227414E+02  0.51100000000E-03 0. -1.
        -11    1    3    3    0    0 -0.72982247241E+00 -0.12420081399E+01 -0.24029407754E+01  0.28016690904E+01  0.51100000000E-03 0.  1.
         12    1    3    3    0    0 -0.22869794062E+02  0.19852691384E+02  0.21424950012E+02  0.37096971826E+02  0.00000000000E+00 0. -1.
</event>
<event>
 7    1  0.2945316E-011  0.5052886E+02  0.7816164E-02  0.1300439E+00
        -11   -1    0    0    0    0  0.00000000000E+00  0.00000000000E+00  0.45593999997E+02  0.45594000000E+02  0.51100000000E-03 0. -1.
         11   -1    0    0    0    0 -0.00000000000E+00 -0.00000000000E+00 -0.45593999997E+02  0.45594000000E+02  0.51100000000E-03 0.  1.
    9900012    2    1    2    0    0  0.15213626666E+02  0.67342595564E+01  0.37099338247E+02  0.50528860972E+02  0.30000003411E+02 0.  0.
        -12    1    1    2    0    0 -0.15213626666E+02 -0.67342595564E+01 -0.37099338247E+02  0.40659139028E+02  0.00000000000E+00 0.  1.
         11    1    3    3    0    0 -0.17277390029E+00  0.35518426843E+01  0.10791228117E+02  0.11362043909E+02  0.51100000000E-03 0. -1.
        -11    1    3    3    0    0  0.11416828367E+01  0.11518117011E+02  0.61267669702E+01  0.13096096095E+02  0.51100000000E-03 0.  1.
         12    1    3    3    0    0  0.14244717730E+02 -0.83357001385E+01  0.20181343161E+02  0.26070720967E+02  0.00000000000E+00 0. -1.
</event>
<event>
 7    1  0.2945316E-011  0.5052886E+02  0.7816164E-02  0.1300439E+00
        -11   -1    0    0    0    0  0.00000000000E+00  0.00000000000E+00  0.45593999997E+02  0.45594000000E+02  0.51100000000E-03 0.  1.
         11   -1    0    0    0    0 -0.00000000000E+00 -0.00000000000E+00 -0.45593999997E+02  0.45594000000E+02  0.51100000000E-03 0. -1.
    9900012    2    1    2    0    0 -0.31485570809E+02 -0.16214282173E+02  0.19973019105E+02  0.50528860711E+02  0.30000002618E+02 0.  0.
        -12    1    1    2    0    0  0.31485570809E+02  0.16214282173E+02 -0.19973019105E+02  0.40659139289E+02  0.00000000000E+00 0.  1.
         11    1    3    3    0    0 -0.20298894517E+02 -0.14020206801E+02  0.10304984222E+01  0.24691562215E+02  0.51100000000E-03 0. -1.
        -11    1    3    3    0    0  0.24330716027E+01  0.13152584550E+01  0.79530366792E+00  0.28778899236E+01  0.51100000000E-03 0.  1.
        -12    1    3    3    0    0 -0.13619747895E+02 -0.35093338267E+01  0.18147217015E+02  0.22959408573E+02  0.00000000000E+00 0.  1.
</event>
<event>
 7    1  0.2945316E-011  0.5052887E+02  0.7816164E-02  0.1300439E+00
        -11   -1    0    0    0    0  0.00000000000E+00  0.00000000000E+00  0.45593999997E+02  0.45594000000E+02  0.51100000000E-03 0. -1.
         11   -1    0    0    0    0 -0.00000000000E+00 -0.00000000000E+00 -0.45593999997E+02  0.45594000000E+02  0.51100000000E-03 0.  1.
    9900012    2    1    2    0    0 -0.31125195955E+02 -0.24046077206E+02  0.10304025508E+02  0.50528873178E+02  0.30000040513E+02 0.  0.
        -12    1    1    2    0    0  0.31125195955E+02  0.24046077206E+02 -0.10304025508E+02  0.40659126822E+02  0.00000000000E+00 0.  1.
         11    1    3    3    0    0 -0.13933175119E+02 -0.91432028851E+01  0.88904477547E+00  0.16688976265E+02  0.51100000000E-03 0. -1.
        -11    1    3    3    0    0 -0.10782033623E+01  0.10806640198E+01 -0.61385526433E+01  0.63255186372E+01  0.51100000000E-03 0.  1.
        -12    1    3    3    0    0 -0.16113817474E+02 -0.15983538340E+02  0.15553533376E+02  0.27514378277E+02  0.00000000000E+00 0.  1.
</event>
<event>
 7    1  0.2945316E-011  0.5052886E+02  0.7816164E-02  0.1300439E+00
        -11   -1    0    0    0    0  0.00000000000E+00  0.00000000000E+00  0.45593999997E+02  0.45594000000E+02  0.51100000000E-03 0. -1.
         11   -1    0    0    0    0 -0.00000000000E+00 -0.00000000000E+00 -0.45593999997E+02  0.45594000000E+02  0.51100000000E-03 0.  1.
    9900012    2    1    2    0    0 -0.17771049745E+02 -0.31358929637E+02  0.18814168602E+02  0.50528860595E+02  0.30000002263E+02 0.  0.
        -12    1    1    2    0    0  0.17771049745E+02  0.31358929637E+02 -0.18814168602E+02  0.40659139405E+02  0.00000000000E+00 0.  1.
         11    1    3    3    0    0  0.15527803596E+01 -0.30891235068E+00 -0.13795381910E+01  0.20999237051E+01  0.51100000000E-03 0. -1.
        -11    1    3    3    0    0 -0.85038233239E+01 -0.97213168805E+01 -0.48531860954E+01  0.13797551542E+02  0.51100000000E-03 0.  1.
         12    1    3    3    0    0 -0.10820006780E+02 -0.21328700406E+02  0.25046892889E+02  0.34631385348E+02  0.00000000000E+00 0. -1.
</event>
<event>
 7    1  0.2945316E-011  0.5052884E+02  0.7816164E-02  0.1300439E+00
        -11   -1    0    0    0    0  0.00000000000E+00  0.00000000000E+00  0.45593999997E+02  0.45594000000E+02  0.51100000000E-03 0. -1.
         11   -1    0    0    0    0 -0.00000000000E+00 -0.00000000000E+00 -0.45593999997E+02  0.45594000000E+02  0.51100000000E-03 0.  1.
    9900012    2    1    2    0    0 -0.20123033357E+02  0.17733254546E+02  0.30557521713E+02  0.50528844555E+02  0.29999953509E+02 0.  0.
        -12    1    1    2    0    0  0.20123033357E+02 -0.17733254546E+02 -0.30557521713E+02  0.40659155445E+02  0.00000000000E+00 0.  1.
         11    1    3    3    0    0  0.13172582701E+01  0.75245024488E+01  0.16988356509E+02  0.18626796923E+02  0.51100000000E-03 0. -1.
        -11    1    3    3    0    0 -0.12997355550E+02 -0.26174454026E+01  0.41718530653E+01  0.13899159327E+02  0.51100000000E-03 0.  1.
         12    1    3    3    0    0 -0.84429360769E+01  0.12826197500E+02  0.93973121384E+01  0.18002888305E+02  0.00000000000E+00 0. -1.
</event>
<event>
 7    1  0.2945316E-011  0.5052885E+02  0.7816164E-02  0.1300439E+00
        -11   -1    0    0    0    0  0.00000000000E+00  0.00000000000E+00  0.45593999997E+02  0.45594000000E+02  0.51100000000E-03 0. -1.
         11   -1    0    0    0    0 -0.00000000000E+00 -0.00000000000E+00 -0.45593999997E+02  0.45594000000E+02  0.51100000000E-03 0.  1.
    9900012    2    1    2    0    0  0.26682251398E+02  0.17149209993E+02  0.25438716024E+02  0.50528853231E+02  0.29999979881E+02 0.  0.
        -12    1    1    2    0    0 -0.26682251398E+02 -0.17149209993E+02 -0.25438716024E+02  0.40659146769E+02  0.00000000000E+00 0.  1.
         11    1    3    3    0    0  0.76402181664E+01  0.16356410375E+01  0.56344731870E+01  0.96330443573E+01  0.51100000000E-03 0. -1.
        -11    1    3    3    0    0  0.22320220976E+02  0.69084729434E+01  0.56973955859E+01  0.24049523479E+02  0.51100000000E-03 0.  1.
         12    1    3    3    0    0 -0.32781877443E+01  0.86050960121E+01  0.14106847251E+02  0.16846285395E+02  0.00000000000E+00 0. -1.
</event>
<event>
 7    1  0.2945316E-011  0.5052886E+02  0.7816164E-02  0.1300439E+00
        -11   -1    0    0    0    0  0.00000000000E+00  0.00000000000E+00  0.45593999997E+02  0.45594000000E+02  0.51100000000E-03 0.  1.
         11   -1    0    0    0    0 -0.00000000000E+00 -0.00000000000E+00 -0.45593999997E+02  0.45594000000E+02  0.51100000000E-03 0. -1.
    9900012    2    1    2    0    0 -0.24096935959E+02  0.12561300725E+02 -0.30244290116E+02  0.50528859783E+02  0.29999999797E+02 0.  0.
        -12    1    1    2    0    0  0.24096935959E+02 -0.12561300725E+02  0.30244290116E+02  0.40659140217E+02  0.00000000000E+00 0.  1.
         11    1    3    3    0    0 -0.66844759055E+01  0.63208814023E+01 -0.81287617868E+01  0.12276503097E+02  0.51100000000E-03 0. -1.
        -11    1    3    3    0    0 -0.45132724603E+01  0.12172114248E+02 -0.20077841987E+02  0.23909197659E+02  0.51100000000E-03 0.  1.
        -12    1    3    3    0    0 -0.12899187594E+02 -0.59316949252E+01 -0.20376863425E+01  0.14343159028E+02  0.00000000000E+00 0.  1.
</event>
<event>
 7    1  0.2945316E-011  0.5052886E+02  0.7816164E-02  0.1300439E+00
        -11   -1    0    0    0    0  0.00000000000E+00  0.00000000000E+00  0.45593999997E+02  0.45594000000E+02  0.51100000000E-03 0.  1.
         11   -1    0    0    0    0 -0.00000000000E+00 -0.00000000000E+00 -0.45593999997E+02  0.45594000000E+02  0.51100000000E-03 0. -1.
    9900012    2    1    2    0    0  0.28651860264E+02  0.25095905630E+02 -0.14227869979E+02  0.50528857608E+02  0.29999993184E+02 0.  0.
        -12    1    1    2    0    0 -0.28651860264E+02 -0.25095905630E+02  0.14227869979E+02  0.40659142392E+02  0.00000000000E+00 0.  1.
         11    1    3    3    0    0 -0.82930135948E+00  0.13751468531E+02 -0.49454462285E+01  0.14637215109E+02  0.51100000000E-03 0. -1.
        -11    1    3    3    0    0 -0.92642259819E+00 -0.99844758254E+00  0.77601546818E+00  0.15675958259E+01  0.51100000000E-03 0.  1.
         12    1    3    3    0    0  0.30407584222E+02  0.12342884682E+02 -0.10058439218E+02  0.34324046672E+02  0.00000000000E+00 0. -1.
</event>
<event>
 7    1  0.2945316E-011  0.5052888E+02  0.7816164E-02  0.1300439E+00
        -11   -1    0    0    0    0  0.00000000000E+00  0.00000000000E+00  0.45593999997E+02  0.45594000000E+02  0.51100000000E-03 0. -1.
         11   -1    0    0    0    0 -0.00000000000E+00 -0.00000000000E+00 -0.45593999997E+02  0.45594000000E+02  0.51100000000E-03 0.  1.
    9900012    2    1    2    0    0 -0.39727339019E+02  0.55852713155E+01  0.66111793706E+01  0.50528875392E+02  0.30000047241E+02 0.  0.
        -12    1    1    2    0    0  0.39727339019E+02 -0.55852713155E+01 -0.66111793706E+01  0.40659124608E+02  0.00000000000E+00 0.  1.
         11    1    3    3    0    0  0.36472136308E+00  0.16769345433E+01  0.27135747497E+00  0.17374597191E+01  0.51100000000E-03 0. -1.
        -11    1    3    3    0    0 -0.10853749336E+02 -0.56904100458E+01 -0.82106766442E+01  0.14751266127E+02  0.51100000000E-03 0.  1.
        -12    1    3    3    0    0 -0.29238311047E+02  0.95987468181E+01  0.14550498540E+02  0.34040149546E+02  0.00000000000E+00 0.  1.
</event>
<event>
 7    1  0.2945316E-011  0.5052885E+02  0.7816164E-02  0.1300439E+00
        -11   -1    0    0    0    0  0.00000000000E+00  0.00000000000E+00  0.45593999997E+02  0.45594000000E+02  0.51100000000E-03 0. -1.
         11   -1    0    0    0    0 -0.00000000000E+00 -0.00000000000E+00 -0.45593999997E+02  0.45594000000E+02  0.51100000000E-03 0.  1.
    9900012    2    1    2    0    0 -0.28794467270E+02 -0.13968796829E+02  0.25078227737E+02  0.50528854207E+02  0.29999982846E+02 0.  0.
        -12    1    1    2    0    0  0.28794467270E+02  0.13968796829E+02 -0.25078227737E+02  0.40659145793E+02  0.00000000000E+00 0.  1.
         11    1    3    3    0    0 -0.17526866329E+02 -0.47478358669E+01  0.21756147324E+02  0.28338365079E+02  0.51100000000E-03 0. -1.
        -11    1    3    3    0    0 -0.57054706357E+01 -0.27664729301E+01  0.96712793095E+01  0.11564575712E+02  0.51100000000E-03 0.  1.
        -12    1    3    3    0    0 -0.55621303059E+01 -0.64544880320E+01 -0.63491988963E+01  0.10625913416E+02  0.00000000000E+00 0.  1.
</event>
<event>
 7    1  0.2945316E-011  0.5052886E+02  0.7816164E-02  0.1300439E+00
        -11   -1    0    0    0    0  0.00000000000E+00  0.00000000000E+00  0.45593999997E+02  0.45594000000E+02  0.51100000000E-03 0.  1.
         11   -1    0    0    0    0 -0.00000000000E+00 -0.00000000000E+00 -0.45593999997E+02  0.45594000000E+02  0.51100000000E-03 0. -1.
    9900012    2    1    2    0    0 -0.31910424528E+01 -0.51598984037E+00 -0.40530442517E+02  0.50528858740E+02  0.29999996625E+02 0.  0.
        -12    1    1    2    0    0  0.31910424528E+01  0.51598984037E+00  0.40530442517E+02  0.40659141260E+02  0.00000000000E+00 0.  1.
         11    1    3    3    0    0  0.39735586019E+01 -0.59418262422E+01 -0.16036279956E+02  0.17557241872E+02  0.51100000000E-03 0. -1.
        -11    1    3    3    0    0  0.70520449453E+01  0.19612659754E+01 -0.65956456064E+01  0.98529408484E+01  0.51100000000E-03 0.  1.
         12    1    3    3    0    0 -0.14216646000E+02  0.34645704264E+01 -0.17898516954E+02  0.23118676019E+02  0.00000000000E+00 0. -1.
</event>
<event>
 7    1  0.2945316E-011  0.5052886E+02  0.7816164E-02  0.1300439E+00
        -11   -1    0    0    0    0  0.00000000000E+00  0.00000000000E+00  0.45593999997E+02  0.45594000000E+02  0.51100000000E-03 0.  1.
         11   -1    0    0    0    0 -0.00000000000E+00 -0.00000000000E+00 -0.45593999997E+02  0.45594000000E+02  0.51100000000E-03 0. -1.
    9900012    2    1    2    0    0 -0.23406147087E+02 -0.17002546411E+02 -0.28569763592E+02  0.50528859605E+02  0.29999999255E+02 0.  0.
        -12    1    1    2    0    0  0.23406147087E+02  0.17002546411E+02  0.28569763592E+02  0.40659140395E+02  0.00000000000E+00 0.  1.
         11    1    3    3    0    0 -0.67036165000E+00  0.18332413232E+01 -0.84098515347E+00  0.21254210831E+01  0.51100000000E-03 0. -1.
        -11    1    3    3    0    0 -0.14623152698E+02 -0.48351767329E+01  0.99666109108E+00  0.15434016407E+02  0.51100000000E-03 0.  1.
         12    1    3    3    0    0 -0.81126327396E+01 -0.14000611002E+02 -0.28725439530E+02  0.32969422115E+02  0.00000000000E+00 0. -1.
</event>
<event>
 7    1  0.2945316E-011  0.5052886E+02  0.7816164E-02  0.1300439E+00
        -11   -1    0    0    0    0  0.00000000000E+00  0.00000000000E+00  0.45593999997E+02  0.45594000000E+02  0.51100000000E-03 0.  1.
         11   -1    0    0    0    0 -0.00000000000E+00 -0.00000000000E+00 -0.45593999997E+02  0.45594000000E+02  0.51100000000E-03 0. -1.
    9900012    2    1    2    0    0 -0.14560709930E+02 -0.21011515317E+02 -0.31617524339E+02  0.50528857179E+02  0.29999991883E+02 0.  0.
        -12    1    1    2    0    0  0.14560709930E+02  0.21011515317E+02  0.31617524339E+02  0.40659142821E+02  0.00000000000E+00 0.  1.
         11    1    3    3    0    0  0.49505438179E+01 -0.93295422589E+01 -0.41549377590E+01  0.11349526461E+02  0.51100000000E-03 0. -1.
        -11    1    3    3    0    0 -0.79766893799E+00 -0.18714375603E-01  0.21300984773E+01  0.22746309034E+01  0.51100000000E-03 0.  1.
        -12    1    3    3    0    0 -0.18713584810E+02 -0.11663258683E+02 -0.29592685057E+02  0.36904699815E+02  0.00000000000E+00 0.  1.
</event>
<event>
 7    1  0.2945316E-011  0.5052886E+02  0.7816164E-02  0.1300439E+00
        -11   -1    0    0    0    0  0.00000000000E+00  0.00000000000E+00  0.45593999997E+02  0.45594000000E+02  0.51100000000E-03 0.  1.
         11   -1    0    0    0    0 -0.00000000000E+00 -0.00000000000E+00 -0.45593999997E+02  0.45594000000E+02  0.51100000000E-03 0. -1.
    9900012    2    1    2    0    0 -0.15482679723E+02 -0.85877646388E+01 -0.36601943113E+02  0.50528864341E+02  0.30000013652E+02 0.  0.
        -12    1    1    2    0    0  0.15482679723E+02  0.85877646388E+01  0.36601943113E+02  0.40659135659E+02  0.00000000000E+00 0.  1.
         11    1    3    3    0    0  0.95272966378E+00  0.70186073151E+01 -0.22327722141E+00  0.70864938746E+01  0.51100000000E-03 0. -1.
        -11    1    3    3    0    0 -0.70083901438E+01 -0.30699719332E+01 -0.83657472619E+01  0.11337018461E+02  0.51100000000E-03 0.  1.
        -12    1    3    3    0    0 -0.94270192427E+01 -0.12536400021E+02 -0.28012918629E+02  0.32105352006E+02  0.00000000000E+00 0.  1.
</event>
<event>
 7    1  0.2945316E-011  0.5052888E+02  0.7816164E-02  0.1300439E+00
        -11   -1    0    0    0    0  0.00000000000E+00  0.00000000000E+00  0.45593999997E+02  0.45594000000E+02  0.51100000000E-03 0.  1.
         11   -1    0    0    0    0 -0.00000000000E+00 -0.00000000000E+00 -0.45593999997E+02  0.45594000000E+02  0.51100000000E-03 0. -1.
    9900012    2    1    2    0    0  0.11021321079E+02  0.33969138948E+02 -0.19436881779E+02  0.50528876884E+02  0.30000051778E+02 0.  0.
        -12    1    1    2    0    0 -0.11021321079E+02 -0.33969138948E+02  0.19436881779E+02  0.40659123116E+02  0.00000000000E+00 0.  1.
         11    1    3    3    0    0  0.19219514668E+01  0.11957816430E+01  0.35779936384E+01  0.42338906358E+01  0.51100000000E-03 0. -1.
        -11    1    3    3    0    0  0.38771001003E+01 -0.18364967291E+01  0.19955842170E+00  0.42947001349E+01  0.51100000000E-03 0.  1.
         12    1    3    3    0    0  0.52222695120E+01  0.34609854035E+02 -0.23214433839E+02  0.42000286114E+02  0.00000000000E+00 0. -1.
</event>
<event>
 7    1  0.2945316E-011  0.5052884E+02  0.7816164E-02  0.1300439E+00
        -11   -1    0    0    0    0  0.00000000000E+00  0.00000000000E+00  0.45593999997E+02  0.45594000000E+02  0.51100000000E-03 0.  1.
         11   -1    0    0    0    0 -0.00000000000E+00 -0.00000000000E+00 -0.45593999997E+02  0.45594000000E+02  0.51100000000E-03 0. -1.
    9900012    2    1    2    0    0 -0.13055780428E+02 -0.11676878511E+02 -0.36692839907E+02  0.50528838735E+02  0.29999935819E+02 0.  0.
        -12    1    1    2    0    0  0.13055780428E+02  0.11676878511E+02  0.36692839907E+02  0.40659161265E+02  0.00000000000E+00 0.  1.
         11    1    3    3    0    0 -0.16539434427E+01 -0.60192515189E+01 -0.11362843732E+01  0.63449239710E+01  0.51100000000E-03 0. -1.
        -11    1    3    3    0    0 -0.17394592274E+02 -0.14740681928E+01 -0.17564119248E+02  0.24763743712E+02  0.51100000000E-03 0.  1.
         12    1    3    3    0    0  0.59927552889E+01 -0.41835587993E+01 -0.17992436286E+02  0.19420171052E+02  0.00000000000E+00 0. -1.
</event>
<event>
 7    1  0.2945316E-011  0.5052886E+02  0.7816164E-02  0.1300439E+00
        -11   -1    0    0    0    0  0.00000000000E+00  0.00000000000E+00  0.45593999997E+02  0.45594000000E+02  0.51100000000E-03 0.  1.
         11   -1    0    0    0    0 -0.00000000000E+00 -0.00000000000E+00 -0.45593999997E+02  0.45594000000E+02  0.51100000000E-03 0. -1.
    9900012    2    1    2    0    0 -0.24141518039E+02 -0.29318665266E+02 -0.14517862298E+02  0.50528863856E+02  0.30000012178E+02 0.  0.
        -12    1    1    2    0    0  0.24141518039E+02  0.29318665266E+02  0.14517862298E+02  0.40659136144E+02  0.00000000000E+00 0.  1.
         11    1    3    3    0    0  0.27586837344E+01 -0.24676289838E+01 -0.58490951039E+01  0.69218091958E+01  0.51100000000E-03 0. -1.
        -11    1    3    3    0    0  0.16093004601E+01 -0.89041839467E+01 -0.19002751542E+01  0.92458307171E+01  0.51100000000E-03 0.  1.
        -12    1    3    3    0    0 -0.28509502234E+02 -0.17946852336E+02 -0.67684920397E+01  0.34361223943E+02  0.00000000000E+00 0.  1.
</event>
<event>
 7    1  0.2945316E-011  0.5052887E+02  0.7816164E-02  0.1300439E+00
        -11   -1    0    0    0    0  0.00000000000E+00  0.00000000000E+00  0.45593999997E+02  0.45594000000E+02  0.51100000000E-03 0. -1.
         11   -1    0    0    0    0 -0.00000000000E+00 -0.00000000000E+00 -0.45593999997E+02  0.45594000000E+02  0.51100000000E-03 0.  1.
    9900012    2    1    2    0    0  0.38935498597E+02  0.17095222428E+01  0.11587458053E+02  0.50528871856E+02  0.30000036494E+02 0.  0.
        -12    1    1    2    0    0 -0.38935498597E+02 -0.17095222428E+01 -0.11587458053E+02  0.40659128144E+02  0.00000000000E+00 0.  1.
         11    1    3    3    0    0  0.15682058006E+02 -0.37877016840E+01  0.81180393456E+00  0.16153409957E+02  0.51100000000E-03 0. -1.
        -11    1    3    3    0    0  0.18544318675E+02  0.11866500374E+02  0.13701389113E+02  0.25931325654E+02  0.51100000000E-03 0.  1.
         12    1    3    3    0    0  0.47091219156E+01 -0.63692764474E+01 -0.29257349946E+01  0.84441362459E+01  0.00000000000E+00 0. -1.
</event>
<event>
 7    1  0.2945316E-011  0.5052886E+02  0.7816164E-02  0.1300439E+00
        -11   -1    0    0    0    0  0.00000000000E+00  0.00000000000E+00  0.45593999997E+02  0.45594000000E+02  0.51100000000E-03 0.  1.
         11   -1    0    0    0    0 -0.00000000000E+00 -0.00000000000E+00 -0.45593999997E+02  0.45594000000E+02  0.51100000000E-03 0. -1.
    9900012    2    1    2    0    0 -0.12173420203E+02  0.30643739342E+02 -0.23789388964E+02  0.50528856532E+02  0.29999989913E+02 0.  0.
        -12    1    1    2    0    0  0.12173420203E+02 -0.30643739342E+02  0.23789388964E+02  0.40659143468E+02  0.00000000000E+00 0.  1.
         11    1    3    3    0    0 -0.11799407702E+02  0.30708243784E+02 -0.15849826062E+02  0.36516287392E+02  0.51100000000E-03 0. -1.
        -11    1    3    3    0    0 -0.20556380942E+01  0.19310622468E+01  0.21782544220E+01  0.35636276410E+01  0.51100000000E-03 0.  1.
         12    1    3    3    0    0  0.16816255931E+01 -0.19955666886E+01 -0.10117817324E+02  0.10448941499E+02  0.00000000000E+00 0. -1.
</event>
<event>
 7    1  0.2945316E-011  0.5052885E+02  0.7816164E-02  0.1300439E+00
        -11   -1    0    0    0    0  0.00000000000E+00  0.00000000000E+00  0.45593999997E+02  0.45594000000E+02  0.51100000000E-03 0.  1.
         11   -1    0    0    0    0 -0.00000000000E+00 -0.00000000000E+00 -0.45593999997E+02  0.45594000000E+02  0.51100000000E-03 0. -1.
    9900012    2    1    2    0    0  0.33027578283E+02 -0.31762524062E+01 -0.23500143321E+02  0.50528852902E+02  0.29999978882E+02 0.  0.
        -12    1    1    2    0    0 -0.33027578283E+02  0.31762524062E+01  0.23500143321E+02  0.40659147098E+02  0.00000000000E+00 0.  1.
         11    1    3    3    0    0  0.88905542932E+00  0.88124316242E+01 -0.80460250333E+01  0.11966114231E+02  0.51100000000E-03 0. -1.
        -11    1    3    3    0    0  0.20137138249E+02 -0.55679864868E+01 -0.13340531606E+02  0.24788638409E+02  0.51100000000E-03 0.  1.
        -12    1    3    3    0    0  0.12001384605E+02 -0.64206975436E+01 -0.21135866822E+01  0.13774100263E+02  0.00000000000E+00 0.  1.
</event>
<event>
 7    1  0.2945316E-011  0.5052886E+02  0.7816164E-02  0.1300439E+00
        -11   -1    0    0    0    0  0.00000000000E+00  0.00000000000E+00  0.45593999997E+02  0.45594000000E+02  0.51100000000E-03 0.  1.
         11   -1    0    0    0    0 -0.00000000000E+00 -0.00000000000E+00 -0.45593999997E+02  0.45594000000E+02  0.51100000000E-03 0. -1.
    9900012    2    1    2    0    0  0.79012475760E+01  0.27293977282E+02 -0.29082207031E+02  0.50528859885E+02  0.30000000105E+02 0.  0.
        -12    1    1    2    0    0 -0.79012475760E+01 -0.27293977282E+02  0.29082207031E+02  0.40659140115E+02  0.00000000000E+00 0.  1.
         11    1    3    3    0    0  0.12152239467E+01  0.14026726163E+02 -0.84150658090E+01  0.16402412900E+02  0.51100000000E-03 0. -1.
        -11    1    3    3    0    0 -0.33149688918E+00  0.10492927174E+02 -0.23756333869E+02  0.25972578039E+02  0.51100000000E-03 0.  1.
        -12    1    3    3    0    0  0.70175205186E+01  0.27743239446E+01  0.30891926463E+01  0.81538689457E+01  0.00000000000E+00 0.  1.
</event>
<event>
 7    1  0.2945316E-011  0.5052886E+02  0.7816164E-02  0.1300439E+00
        -11   -1    0    0    0    0  0.00000000000E+00  0.00000000000E+00  0.45593999997E+02  0.45594000000E+02  0.51100000000E-03 0. -1.
         11   -1    0    0    0    0 -0.00000000000E+00 -0.00000000000E+00 -0.45593999997E+02  0.45594000000E+02  0.51100000000E-03 0.  1.
    9900012    2    1    2    0    0 -0.33269133292E+02  0.74522014196E+01  0.22153898184E+02  0.50528859075E+02  0.29999997646E+02 0.  0.
        -12    1    1    2    0    0  0.33269133292E+02 -0.74522014196E+01 -0.22153898184E+02  0.40659140925E+02  0.00000000000E+00 0.  1.
         11    1    3    3    0    0 -0.34006312623E+01 -0.14150177973E+00  0.76001561293E+01  0.83274659523E+01  0.51100000000E-03 0. -1.
        -11    1    3    3    0    0 -0.73369963607E+01 -0.68187416347E+01  0.11547398377E+02  0.15286240957E+02  0.51100000000E-03 0.  1.
         12    1    3    3    0    0 -0.22531505669E+02  0.14412444834E+02  0.30063436781E+01  0.26915152166E+02  0.00000000000E+00 0. -1.
</event>
<event>
 7    1  0.2945316E-011  0.5052886E+02  0.7816164E-02  0.1300439E+00
        -11   -1    0    0    0    0  0.00000000000E+00  0.00000000000E+00  0.45593999997E+02  0.45594000000E+02  0.51100000000E-03 0.  1.
         11   -1    0    0    0    0 -0.00000000000E+00 -0.00000000000E+00 -0.45593999997E+02  0.45594000000E+02  0.51100000000E-03 0. -1.
    9900012    2    1    2    0    0 -0.10640247335E+02  0.28528163240E+02 -0.26946145822E+02  0.50528859135E+02  0.29999997828E+02 0.  0.
        -12    1    1    2    0    0  0.10640247335E+02 -0.28528163240E+02  0.26946145822E+02  0.40659140865E+02  0.00000000000E+00 0.  1.
         11    1    3    3    0    0  0.21254595739E+00  0.17066146268E+02 -0.35770146697E+01  0.17438278540E+02  0.51100000000E-03 0. -1.
        -11    1    3    3    0    0  0.47433803716E+01  0.31356361142E+01 -0.46834467042E+01  0.73665829584E+01  0.51100000000E-03 0.  1.
        -12    1    3    3    0    0 -0.15596173664E+02  0.83263808579E+01 -0.18685684448E+02  0.25723997637E+02  0.00000000000E+00 0.  1.
</event>
<event>
 7    1  0.3722868E-011  0.5052885E+02  0.7816164E-02  0.1300439E+00
        -11   -1    0    0    0    0  0.00000000000E+00  0.00000000000E+00  0.45593999997E+02  0.45594000000E+02  0.51100000000E-03 0.  1.
         11   -1    0    0    0    0 -0.00000000000E+00 -0.00000000000E+00 -0.45593999997E+02  0.45594000000E+02  0.51100000000E-03 0. -1.
    9900012    2    1    2    0    0 -0.11951563082E+02 -0.37934248875E+02 -0.84450597794E+01  0.50528854257E+02  0.29999983001E+02 0.  0.
        -12    1    1    2    0    0  0.11951563082E+02  0.37934248875E+02  0.84450597794E+01  0.40659145743E+02  0.00000000000E+00 0.  1.
         11    1    3    3    0    0 -0.28925391028E+01 -0.16011897717E+02  0.28695660185E+00  0.16273598106E+02  0.51100000000E-03 0. -1.
        -11    1    3    3    0    0 -0.53434143482E+01 -0.25152017089E+02 -0.11969845862E+02  0.28362885092E+02  0.51100000000E-03 0.  1.
        -12    1    3    3    0    0 -0.37156096305E+01  0.32296659307E+01  0.32378294808E+01  0.58923710590E+01  0.00000000000E+00 0.  1.
</event>
<event>
 7    1  0.2945316E-011  0.5052886E+02  0.7816164E-02  0.1300439E+00
        -11   -1    0    0    0    0  0.00000000000E+00  0.00000000000E+00  0.45593999997E+02  0.45594000000E+02  0.51100000000E-03 0.  1.
         11   -1    0    0    0    0 -0.00000000000E+00 -0.00000000000E+00 -0.45593999997E+02  0.45594000000E+02  0.51100000000E-03 0. -1.
    9900012    2    1    2    0    0  0.35345465441E+02  0.77999269517E+01 -0.18520938370E+02  0.50528856553E+02  0.29999989979E+02 0.  0.
        -12    1    1    2    0    0 -0.35345465441E+02 -0.77999269517E+01  0.18520938370E+02  0.40659143447E+02  0.00000000000E+00 0.  1.
         11    1    3    3    0    0 -0.46345705966E+01  0.97404042477E+00 -0.26981225662E+01  0.54504921802E+01  0.51100000000E-03 0. -1.
        -11    1    3    3    0    0 -0.54590546040E+00 -0.16519661315E+00  0.57062398621E+00  0.80679284048E+00  0.51100000000E-03 0.  1.
        -12    1    3    3    0    0  0.40525941498E+02  0.69910831401E+01 -0.16393439790E+02  0.44271571532E+02  0.00000000000E+00 0.  1.
</event>
<event>
 7    1  0.2945316E-011  0.5052886E+02  0.7816164E-02  0.1300439E+00
        -11   -1    0    0    0    0  0.00000000000E+00  0.00000000000E+00  0.45593999997E+02  0.45594000000E+02  0.51100000000E-03 0.  1.
         11   -1    0    0    0    0 -0.00000000000E+00 -0.00000000000E+00 -0.45593999997E+02  0.45594000000E+02  0.51100000000E-03 0. -1.
    9900012    2    1    2    0    0 -0.32640711956E+02 -0.19334698524E+02 -0.14625978243E+02  0.50528857318E+02  0.29999992304E+02 0.  0.
        -12    1    1    2    0    0  0.32640711956E+02  0.19334698524E+02  0.14625978243E+02  0.40659142682E+02  0.00000000000E+00 0.  1.
         11    1    3    3    0    0 -0.17835755755E+02 -0.16695687217E+02 -0.12742604563E+02  0.27554203423E+02  0.51100000000E-03 0. -1.
        -11    1    3    3    0    0 -0.41384492065E+01 -0.93836507346E+01 -0.34826160818E+00  0.10261625083E+02  0.51100000000E-03 0.  1.
         12    1    3    3    0    0 -0.10666506995E+02  0.67446394274E+01 -0.15351120725E+01  0.12713028811E+02  0.00000000000E+00 0. -1.
</event>
<event>
 7    1  0.2945316E-011  0.5052885E+02  0.7816164E-02  0.1300439E+00
        -11   -1    0    0    0    0  0.00000000000E+00  0.00000000000E+00  0.45593999997E+02  0.45594000000E+02  0.51100000000E-03 0. -1.
         11   -1    0    0    0    0 -0.00000000000E+00 -0.00000000000E+00 -0.45593999997E+02  0.45594000000E+02  0.51100000000E-03 0.  1.
    9900012    2    1    2    0    0  0.27284930057E+02 -0.29639161140E+02  0.54971796662E+01  0.50528852622E+02  0.29999978029E+02 0.  0.
        -12    1    1    2    0    0 -0.27284930057E+02  0.29639161140E+02 -0.54971796662E+01  0.40659147378E+02  0.00000000000E+00 0.  1.
         11    1    3    3    0    0  0.90472105958E+01 -0.15019555099E+02 -0.64290036564E+01  0.18675415476E+02  0.51100000000E-03 0. -1.
        -11    1    3    3    0    0  0.18411016585E+02 -0.13171464900E+02  0.30309526619E+01  0.22839432865E+02  0.51100000000E-03 0.  1.
        -12    1    3    3    0    0 -0.17329712398E+00 -0.14481411403E+01  0.88952306608E+01  0.90140042802E+01  0.00000000000E+00 0.  1.
</event>
<event>
 7    1  0.2945316E-011  0.5052886E+02  0.7816164E-02  0.1300439E+00
        -11   -1    0    0    0    0  0.00000000000E+00  0.00000000000E+00  0.45593999997E+02  0.45594000000E+02  0.51100000000E-03 0.  1.
         11   -1    0    0    0    0 -0.00000000000E+00 -0.00000000000E+00 -0.45593999997E+02  0.45594000000E+02  0.51100000000E-03 0. -1.
    9900012    2    1    2    0    0 -0.24319637806E+02  0.30297848507E+02 -0.11990050374E+02  0.50528859390E+02  0.29999998601E+02 0.  0.
        -12    1    1    2    0    0  0.24319637806E+02 -0.30297848507E+02  0.11990050374E+02  0.40659140610E+02  0.00000000000E+00 0.  1.
         11    1    3    3    0    0 -0.49910746694E+01  0.13321148189E+02 -0.74938435242E+01  0.16078603996E+02  0.51100000000E-03 0. -1.
        -11    1    3    3    0    0 -0.10316368821E+02  0.18094015429E+02  0.48850975145E+01  0.21393574689E+02  0.51100000000E-03 0.  1.
        -12    1    3    3    0    0 -0.90121943154E+01 -0.11173151107E+01 -0.93813043644E+01  0.13056680704E+02  0.00000000000E+00 0.  1.
</event>
<event>
 7    1  0.2945316E-011  0.5052886E+02  0.7816164E-02  0.1300439E+00
        -11   -1    0    0    0    0  0.00000000000E+00  0.00000000000E+00  0.45593999997E+02  0.45594000000E+02  0.51100000000E-03 0. -1.
         11   -1    0    0    0    0 -0.00000000000E+00 -0.00000000000E+00 -0.45593999997E+02  0.45594000000E+02  0.51100000000E-03 0.  1.
    9900012    2    1    2    0    0 -0.36746536427E+02 -0.15373316728E+01  0.17334780655E+02  0.50528856522E+02  0.29999989884E+02 0.  0.
        -12    1    1    2    0    0  0.36746536427E+02  0.15373316728E+01 -0.17334780655E+02  0.40659143478E+02  0.00000000000E+00 0.  1.
         11    1    3    3    0    0 -0.69300183525E+01 -0.49753874103E+01  0.40466660235E+01  0.94421999775E+01  0.51100000000E-03 0. -1.
        -11    1    3    3    0    0 -0.81747747044E+01 -0.10177818207E+02  0.22931453651E+01  0.13254185786E+02  0.51100000000E-03 0.  1.
         12    1    3    3    0    0 -0.21641743370E+02  0.13615873945E+02  0.10994969266E+02  0.27832470758E+02  0.00000000000E+00 0. -1.
</event>
<event>
 7    1  0.2945316E-011  0.5052886E+02  0.7816164E-02  0.1300439E+00
        -11   -1    0    0    0    0  0.00000000000E+00  0.00000000000E+00  0.45593999997E+02  0.45594000000E+02  0.51100000000E-03 0. -1.
         11   -1    0    0    0    0 -0.00000000000E+00 -0.00000000000E+00 -0.45593999997E+02  0.45594000000E+02  0.51100000000E-03 0.  1.
    9900012    2    1    2    0    0  0.21519037585E+02  0.32509607824E+02  0.11542203678E+02  0.50528855332E+02  0.29999986266E+02 0.  0.
        -12    1    1    2    0    0 -0.21519037585E+02 -0.32509607824E+02 -0.11542203678E+02  0.40659144668E+02  0.00000000000E+00 0.  1.
         11    1    3    3    0    0  0.12443873992E+02  0.88170431995E+01  0.15966637500E+02  0.22079940309E+02  0.51100000000E-03 0. -1.
        -11    1    3    3    0    0  0.37631827393E+01  0.29440353335E+01  0.31594996105E+01  0.57281171797E+01  0.51100000000E-03 0.  1.
        -12    1    3    3    0    0  0.53119808538E+01  0.20748529291E+02 -0.75839334330E+01  0.22720797843E+02  0.00000000000E+00 0.  1.
</event>
<event>
 7    1  0.2945316E-011  0.5052885E+02  0.7816164E-02  0.1300439E+00
        -11   -1    0    0    0    0  0.00000000000E+00  0.00000000000E+00  0.45593999997E+02  0.45594000000E+02  0.51100000000E-03 0.  1.
         11   -1    0    0    0    0 -0.00000000000E+00 -0.00000000000E+00 -0.45593999997E+02  0.45594000000E+02  0.51100000000E-03 0. -1.
    9900012    2    1    2    0    0 -0.36879335961E+02 -0.75590734367E+00 -0.17102904439E+02  0.50528853956E+02  0.29999982083E+02 0.  0.
        -12    1    1    2    0    0  0.36879335961E+02  0.75590734367E+00  0.17102904439E+02  0.40659146044E+02  0.00000000000E+00 0.  1.
         11    1    3    3    0    0 -0.19795363117E+02 -0.50913671161E+01 -0.65940253228E+01  0.21476954865E+02  0.51100000000E-03 0. -1.
        -11    1    3    3    0    0 -0.13664232681E+02 -0.67084640536E+01 -0.38163962219E+01  0.15693298732E+02  0.51100000000E-03 0.  1.
         12    1    3    3    0    0 -0.34197401633E+01  0.11043923826E+02 -0.66924828943E+01  0.13358600359E+02  0.00000000000E+00 0. -1.
</event>
<event>
 7    1  0.2945316E-011  0.5052893E+02  0.7816164E-02  0.1300439E+00
        -11   -1    0    0    0    0  0.00000000000E+00  0.00000000000E+00  0.45593999997E+02  0.45594000000E+02  0.51100000000E-03 0.  1.
         11   -1    0    0    0    0 -0.00000000000E+00 -0.00000000000E+00 -0.45593999997E+02  0.45594000000E+02  0.51100000000E-03 0. -1.
    9900012    2    1    2    0    0 -0.24580846638E+02 -0.12924739736E+00 -0.32387115059E+02  0.50528930308E+02  0.30000214163E+02 0.  0.
        -12    1    1    2    0    0  0.24580846638E+02  0.12924739736E+00  0.32387115059E+02  0.40659069692E+02  0.00000000000E+00 0.  1.
         11    1    3    3    0    0 -0.14497175277E+00 -0.24459673637E+01  0.60558785080E+00  0.25239869373E+01  0.51100000000E-03 0. -1.
        -11    1    3    3    0    0 -0.29663699357E+01  0.36114214581E+01  0.33668808202E+01  0.57600001964E+01  0.51100000000E-03 0.  1.
         12    1    3    3    0    0 -0.21469504950E+02 -0.12947014918E+01 -0.36359583730E+02  0.42244943174E+02  0.00000000000E+00 0. -1.
</event>
<event>
 7    1  0.2945316E-011  0.5052885E+02  0.7816164E-02  0.1300439E+00
        -11   -1    0    0    0    0  0.00000000000E+00  0.00000000000E+00  0.45593999997E+02  0.45594000000E+02  0.51100000000E-03 0. -1.
         11   -1    0    0    0    0 -0.00000000000E+00 -0.00000000000E+00 -0.45593999997E+02  0.45594000000E+02  0.51100000000E-03 0.  1.
    9900012    2    1    2    0    0 -0.21859651201E+02  0.34218661173E+02 -0.20988724107E+01  0.50528851110E+02  0.29999973433E+02 0.  0.
        -12    1    1    2    0    0  0.21859651201E+02 -0.34218661173E+02  0.20988724107E+01  0.40659148890E+02  0.00000000000E+00 0.  1.
         11    1    3    3    0    0 -0.14895006980E+02  0.14724468379E+02  0.26786214322E+01  0.21115070803E+02  0.51100000000E-03 0. -1.
        -11    1    3    3    0    0 -0.13419750796E+02  0.17365274561E+02 -0.18861125346E+01  0.22027253409E+02  0.51100000000E-03 0.  1.
        -12    1    3    3    0    0  0.64551065751E+01  0.21289182333E+01 -0.28913813084E+01  0.73865268977E+01  0.00000000000E+00 0.  1.
</event>
<event>
 7    1  0.2945316E-011  0.5052886E+02  0.7816164E-02  0.1300439E+00
        -11   -1    0    0    0    0  0.00000000000E+00  0.00000000000E+00  0.45593999997E+02  0.45594000000E+02  0.51100000000E-03 0.  1.
         11   -1    0    0    0    0 -0.00000000000E+00 -0.00000000000E+00 -0.45593999997E+02  0.45594000000E+02  0.51100000000E-03 0. -1.
    9900012    2    1    2    0    0  0.16143797150E+02 -0.24106061351E+02 -0.28485810815E+02  0.50528858370E+02  0.29999995501E+02 0.  0.
        -12    1    1    2    0    0 -0.16143797150E+02  0.24106061351E+02  0.28485810815E+02  0.40659141630E+02  0.00000000000E+00 0.  1.
         11    1    3    3    0    0  0.18420417514E+02 -0.24292325892E+02 -0.27632816662E+02  0.41146098668E+02  0.51100000000E-03 0. -1.
        -11    1    3    3    0    0 -0.26596994679E+01 -0.25335702984E+01 -0.38474500883E+01  0.53193845659E+01  0.51100000000E-03 0.  1.
        -12    1    3    3    0    0  0.38307910382E+00  0.27198348395E+01  0.29944559347E+01  0.40633751363E+01  0.00000000000E+00 0.  1.
</event>
<event>
 7    1  0.2945316E-011  0.5052886E+02  0.7816164E-02  0.1300439E+00
        -11   -1    0    0    0    0  0.00000000000E+00  0.00000000000E+00  0.45593999997E+02  0.45594000000E+02  0.51100000000E-03 0.  1.
         11   -1    0    0    0    0 -0.00000000000E+00 -0.00000000000E+00 -0.45593999997E+02  0.45594000000E+02  0.51100000000E-03 0. -1.
    9900012    2    1    2    0    0  0.40451414658E+02 -0.26278183695E+01 -0.31532522144E+01  0.50528863552E+02  0.30000011252E+02 0.  0.
        -12    1    1    2    0    0 -0.40451414658E+02  0.26278183695E+01  0.31532522144E+01  0.40659136448E+02  0.00000000000E+00 0.  1.
         11    1    3    3    0    0  0.97985657630E+01 -0.10091290090E+02 -0.53685872945E+01  0.15055489248E+02  0.51100000000E-03 0. -1.
        -11    1    3    3    0    0  0.21049541298E+02 -0.23249903337E+01 -0.16055382791E+01  0.21238326731E+02  0.51100000000E-03 0.  1.
        -12    1    3    3    0    0  0.96033075967E+01  0.97884620539E+01  0.38208733591E+01  0.14235047573E+02  0.00000000000E+00 0.  1.
</event>
<event>
 7    1  0.2945316E-011  0.5052886E+02  0.7816164E-02  0.1300439E+00
        -11   -1    0    0    0    0  0.00000000000E+00  0.00000000000E+00  0.45593999997E+02  0.45594000000E+02  0.51100000000E-03 0.  1.
         11   -1    0    0    0    0 -0.00000000000E+00 -0.00000000000E+00 -0.45593999997E+02  0.45594000000E+02  0.51100000000E-03 0. -1.
    9900012    2    1    2    0    0  0.24682735613E+02  0.24449400086E+02 -0.21122386685E+02  0.50528858086E+02  0.29999994638E+02 0.  0.
        -12    1    1    2    0    0 -0.24682735613E+02 -0.24449400086E+02  0.21122386685E+02  0.40659141914E+02  0.00000000000E+00 0.  1.
         11    1    3    3    0    0  0.44815923793E+01  0.15127009312E+01 -0.49438703245E+01  0.68421333229E+01  0.51100000000E-03 0. -1.
        -11    1    3    3    0    0  0.18147204830E+02  0.17519638535E+02 -0.23415010573E+02  0.34416878097E+02  0.51100000000E-03 0.  1.
        -12    1    3    3    0    0  0.20539384034E+01  0.54170606195E+01  0.72364942126E+01  0.92698466659E+01  0.00000000000E+00 0.  1.
</event>
<event>
 7    1  0.2945316E-011  0.5052887E+02  0.7816164E-02  0.1300439E+00
        -11   -1    0    0    0    0  0.00000000000E+00  0.00000000000E+00  0.45593999997E+02  0.45594000000E+02  0.51100000000E-03 0. -1.
         11   -1    0    0    0    0 -0.00000000000E+00 -0.00000000000E+00 -0.45593999997E+02  0.45594000000E+02  0.51100000000E-03 0.  1.
    9900012    2    1    2    0    0 -0.40094097282E+02  0.62604717029E+01 -0.25367234151E+01  0.50528866851E+02  0.30000021279E+02 0.  0.
        -12    1    1    2    0    0  0.40094097282E+02 -0.62604717029E+01  0.25367234151E+01  0.40659133149E+02  0.00000000000E+00 0.  1.
         11    1    3    3    0    0 -0.10722207565E+02 -0.87819200627E+00 -0.79640983065E+00  0.10787549543E+02  0.51100000000E-03 0. -1.
        -11    1    3    3    0    0 -0.11921759332E+02 -0.21925765359E+01 -0.12335909690E+02  0.17294808630E+02  0.51100000000E-03 0.  1.
        -12    1    3    3    0    0 -0.17450130385E+02  0.93312402450E+01  0.10595596105E+02  0.22446508677E+02  0.00000000000E+00 0.  1.
</event>
<event>
 7    1  0.2945316E-011  0.5052887E+02  0.7816164E-02  0.1300439E+00
        -11   -1    0    0    0    0  0.00000000000E+00  0.00000000000E+00  0.45593999997E+02  0.45594000000E+02  0.51100000000E-03 0. -1.
         11   -1    0    0    0    0 -0.00000000000E+00 -0.00000000000E+00 -0.45593999997E+02  0.45594000000E+02  0.51100000000E-03 0.  1.
    9900012    2    1    2    0    0  0.21804203343E+02  0.32875965868E+02 -0.98444312020E+01  0.50528865222E+02  0.30000016330E+02 0.  0.
        -12    1    1    2    0    0 -0.21804203343E+02 -0.32875965868E+02  0.98444312020E+01  0.40659134778E+02  0.00000000000E+00 0.  1.
         11    1    3    3    0    0  0.23399078825E+01  0.14452681032E+00 -0.60717173816E+01  0.65085950189E+01  0.51100000000E-03 0. -1.
        -11    1    3    3    0    0  0.23331997763E+01 -0.95899914261E+00  0.46565659476E+01  0.52959519670E+01  0.51100000000E-03 0.  1.
         12    1    3    3    0    0  0.17131095684E+02  0.33690438200E+02 -0.84292797680E+01  0.38724318236E+02  0.00000000000E+00 0. -1.
</event>
<event>
 7    1  0.2945316E-011  0.5052887E+02  0.7816164E-02  0.1300439E+00
        -11   -1    0    0    0    0  0.00000000000E+00  0.00000000000E+00  0.45593999997E+02  0.45594000000E+02  0.51100000000E-03 0.  1.
         11   -1    0    0    0    0 -0.00000000000E+00 -0.00000000000E+00 -0.45593999997E+02  0.45594000000E+02  0.51100000000E-03 0. -1.
    9900012    2    1    2    0    0  0.31347062943E+02 -0.54559027673E+01 -0.25313231896E+02  0.50528868933E+02  0.30000027608E+02 0.  0.
        -12    1    1    2    0    0 -0.31347062943E+02  0.54559027673E+01  0.25313231896E+02  0.40659131067E+02  0.00000000000E+00 0.  1.
         11    1    3    3    0    0  0.80775868608E+01  0.54563140911E+01 -0.41678153732E+01  0.10601389447E+02  0.51100000000E-03 0. -1.
        -11    1    3    3    0    0  0.15261860461E+02  0.17138153085E+01 -0.17778683743E+01  0.15460348116E+02  0.51100000000E-03 0.  1.
         12    1    3    3    0    0  0.80076156209E+01 -0.12626032167E+02 -0.19367548149E+02  0.24467131370E+02  0.00000000000E+00 0. -1.
</event>
<event>
 7    1  0.2945316E-011  0.5052888E+02  0.7816164E-02  0.1300439E+00
        -11   -1    0    0    0    0  0.00000000000E+00  0.00000000000E+00  0.45593999997E+02  0.45594000000E+02  0.51100000000E-03 0. -1.
         11   -1    0    0    0    0 -0.00000000000E+00 -0.00000000000E+00 -0.45593999997E+02  0.45594000000E+02  0.51100000000E-03 0.  1.
    9900012    2    1    2    0    0  0.30566886703E+02  0.25408432022E+02  0.85580939058E+01  0.50528881075E+02  0.30000064514E+02 0.  0.
        -12    1    1    2    0    0 -0.30566886703E+02 -0.25408432022E+02 -0.85580939058E+01  0.40659118925E+02  0.00000000000E+00 0.  1.
         11    1    3    3    0    0  0.15662459250E+02  0.26437255140E+02  0.57382317342E+01  0.31259692782E+02  0.51100000000E-03 0. -1.
        -11    1    3    3    0    0  0.52412514584E+01  0.49709391244E+01 -0.95137578928E+00  0.72860187196E+01  0.51100000000E-03 0.  1.
         12    1    3    3    0    0  0.96631759939E+01 -0.59997622430E+01  0.37712379609E+01  0.11983169573E+02  0.00000000000E+00 0. -1.
</event>
<event>
 7    1  0.2945316E-011  0.5052885E+02  0.7816164E-02  0.1300439E+00
        -11   -1    0    0    0    0  0.00000000000E+00  0.00000000000E+00  0.45593999997E+02  0.45594000000E+02  0.51100000000E-03 0. -1.
         11   -1    0    0    0    0 -0.00000000000E+00 -0.00000000000E+00 -0.45593999997E+02  0.45594000000E+02  0.51100000000E-03 0.  1.
    9900012    2    1    2    0    0 -0.10700038505E+01 -0.37305770566E+02  0.16133853393E+02  0.50528847880E+02  0.29999963617E+02 0.  0.
        -12    1    1    2    0    0  0.10700038505E+01  0.37305770566E+02 -0.16133853393E+02  0.40659152120E+02  0.00000000000E+00 0.  1.
         11    1    3    3    0    0 -0.27025434545E+01 -0.27095108127E+02 -0.13285980657E+01  0.27261947814E+02  0.51100000000E-03 0. -1.
        -11    1    3    3    0    0  0.39752744313E+01 -0.20836243063E+01  0.76982997769E+00  0.45537825497E+01  0.51100000000E-03 0.  1.
        -12    1    3    3    0    0 -0.23427348273E+01 -0.81270381328E+01  0.16692621481E+02  0.18713117516E+02  0.00000000000E+00 0.  1.
</event>
<event>
 7    1  0.2945316E-011  0.5052887E+02  0.7816164E-02  0.1300439E+00
        -11   -1    0    0    0    0  0.00000000000E+00  0.00000000000E+00  0.45593999997E+02  0.45594000000E+02  0.51100000000E-03 0.  1.
         11   -1    0    0    0    0 -0.00000000000E+00 -0.00000000000E+00 -0.45593999997E+02  0.45594000000E+02  0.51100000000E-03 0. -1.
    9900012    2    1    2    0    0  0.14207281665E+02  0.29503865004E+02 -0.24100618378E+02  0.50528871767E+02  0.30000036222E+02 0.  0.
        -12    1    1    2    0    0 -0.14207281665E+02 -0.29503865004E+02  0.24100618378E+02  0.40659128233E+02  0.00000000000E+00 0.  1.
         11    1    3    3    0    0  0.45866910653E+01 -0.67987323792E+00 -0.26101876916E+01  0.53210001499E+01  0.51100000000E-03 0. -1.
        -11    1    3    3    0    0 -0.77081808688E+01  0.86283468013E+01 -0.30448884420E+01  0.11963936088E+02  0.51100000000E-03 0.  1.
         12    1    3    3    0    0  0.17328771469E+02  0.21555391441E+02 -0.18445542244E+02  0.33243935529E+02  0.00000000000E+00 0. -1.
</event>
<event>
 7    1  0.2945316E-011  0.5052881E+02  0.7816164E-02  0.1300439E+00
        -11   -1    0    0    0    0  0.00000000000E+00  0.00000000000E+00  0.45593999997E+02  0.45594000000E+02  0.51100000000E-03 0. -1.
         11   -1    0    0    0    0 -0.00000000000E+00 -0.00000000000E+00 -0.45593999997E+02  0.45594000000E+02  0.51100000000E-03 0.  1.
    9900012    2    1    2    0    0 -0.38175310462E+02 -0.99961014692E+01  0.97925277479E+01  0.50528807028E+02  0.29999839442E+02 0.  0.
        -12    1    1    2    0    0  0.38175310462E+02  0.99961014692E+01 -0.97925277479E+01  0.40659192972E+02  0.00000000000E+00 0.  1.
         11    1    3    3    0    0 -0.15726540803E+02 -0.94677409872E+01  0.13018397686E+02  0.22504241458E+02  0.51100000000E-03 0. -1.
        -11    1    3    3    0    0 -0.38320368638E+01 -0.63624126266E+01  0.22510230841E+01  0.77609217329E+01  0.51100000000E-03 0.  1.
         12    1    3    3    0    0 -0.18616732795E+02  0.58340521446E+01 -0.54768930220E+01  0.20263643837E+02  0.00000000000E+00 0. -1.
</event>
<event>
 7    1  0.2945316E-011  0.5052885E+02  0.7816164E-02  0.1300439E+00
        -11   -1    0    0    0    0  0.00000000000E+00  0.00000000000E+00  0.45593999997E+02  0.45594000000E+02  0.51100000000E-03 0. -1.
         11   -1    0    0    0    0 -0.00000000000E+00 -0.00000000000E+00 -0.45593999997E+02  0.45594000000E+02  0.51100000000E-03 0.  1.
    9900012    2    1    2    0    0 -0.21235557663E+01 -0.40395106348E+02  0.41100516735E+01  0.50528848131E+02  0.29999964379E+02 0.  0.
        -12    1    1    2    0    0  0.21235557663E+01  0.40395106348E+02 -0.41100516735E+01  0.40659151869E+02  0.00000000000E+00 0.  1.
         11    1    3    3    0    0  0.61410782817E+00 -0.14798953286E+02 -0.96897797861E+00  0.14843350881E+02  0.51100000000E-03 0. -1.
        -11    1    3    3    0    0 -0.10939277636E+02 -0.23478915574E+02  0.18520354844E+00  0.25902925942E+02  0.51100000000E-03 0.  1.
        -12    1    3    3    0    0  0.82016140418E+01 -0.21172374882E+01  0.48938261037E+01  0.97825713084E+01  0.00000000000E+00 0.  1.
</event>
<event>
 7    1  0.2945316E-011  0.5052887E+02  0.7816164E-02  0.1300439E+00
        -11   -1    0    0    0    0  0.00000000000E+00  0.00000000000E+00  0.45593999997E+02  0.45594000000E+02  0.51100000000E-03 0.  1.
         11   -1    0    0    0    0 -0.00000000000E+00 -0.00000000000E+00 -0.45593999997E+02  0.45594000000E+02  0.51100000000E-03 0. -1.
    9900012    2    1    2    0    0  0.31305011032E+02  0.43785561738E+01 -0.25573209954E+02  0.50528873875E+02  0.30000042631E+02 0.  0.
        -12    1    1    2    0    0 -0.31305011032E+02 -0.43785561738E+01  0.25573209954E+02  0.40659126125E+02  0.00000000000E+00 0.  1.
         11    1    3    3    0    0  0.16295239387E+02  0.76380739040E+01 -0.19787295922E+02  0.26747188260E+02  0.51100000000E-03 0. -1.
        -11    1    3    3    0    0  0.11138665491E+02  0.58625410198E+01 -0.58306564836E+01  0.13872123537E+02  0.51100000000E-03 0.  1.
        -12    1    3    3    0    0  0.38711061534E+01 -0.91220587501E+01  0.44742452031E-01  0.99095620780E+01  0.00000000000E+00 0.  1.
</event>
<event>
 7    1  0.2945316E-011  0.5052886E+02  0.7816164E-02  0.1300439E+00
        -11   -1    0    0    0    0  0.00000000000E+00  0.00000000000E+00  0.45593999997E+02  0.45594000000E+02  0.51100000000E-03 0. -1.
         11   -1    0    0    0    0 -0.00000000000E+00 -0.00000000000E+00 -0.45593999997E+02  0.45594000000E+02  0.51100000000E-03 0.  1.
    9900012    2    1    2    0    0  0.28211060576E+02  0.26403270664E+02  0.12655793392E+02  0.50528858998E+02  0.29999997410E+02 0.  0.
        -12    1    1    2    0    0 -0.28211060576E+02 -0.26403270664E+02 -0.12655793392E+02  0.40659141002E+02  0.00000000000E+00 0.  1.
         11    1    3    3    0    0  0.90968548985E+01 -0.21611316635E-01  0.11213969802E+02  0.14439749135E+02  0.51100000000E-03 0. -1.
        -11    1    3    3    0    0  0.99782367676E+00 -0.17930176312E+01  0.15242363068E+01  0.25561417988E+01  0.51100000000E-03 0.  1.
         12    1    3    3    0    0  0.18116382001E+02  0.28217899612E+02 -0.82412716725E-01  0.33532968064E+02  0.00000000000E+00 0. -1.
</event>
<event>
 7    1  0.2945316E-011  0.5052886E+02  0.7816164E-02  0.1300439E+00
        -11   -1    0    0    0    0  0.00000000000E+00  0.00000000000E+00  0.45593999997E+02  0.45594000000E+02  0.51100000000E-03 0. -1.
         11   -1    0    0    0    0 -0.00000000000E+00 -0.00000000000E+00 -0.45593999997E+02  0.45594000000E+02  0.51100000000E-03 0.  1.
    9900012    2    1    2    0    0 -0.33095361635E+02  0.23407627352E+02 -0.31536244123E+01  0.50528864164E+02  0.30000013113E+02 0.  0.
        -12    1    1    2    0    0  0.33095361635E+02 -0.23407627352E+02  0.31536244123E+01  0.40659135836E+02  0.00000000000E+00 0.  1.
         11    1    3    3    0    0 -0.46217076257E+01  0.32389078002E+01 -0.50474527509E+01  0.75714915736E+01  0.51100000000E-03 0. -1.
        -11    1    3    3    0    0 -0.77042599440E+01  0.13595176081E+02 -0.95865139459E+01  0.18332639849E+02  0.51100000000E-03 0.  1.
         12    1    3    3    0    0 -0.20769394065E+02  0.65735434708E+01  0.11480342284E+02  0.24624732741E+02  0.00000000000E+00 0. -1.
</event>
<event>
 7    1  0.2945316E-011  0.5052886E+02  0.7816164E-02  0.1300439E+00
        -11   -1    0    0    0    0  0.00000000000E+00  0.00000000000E+00  0.45593999997E+02  0.45594000000E+02  0.51100000000E-03 0.  1.
         11   -1    0    0    0    0 -0.00000000000E+00 -0.00000000000E+00 -0.45593999997E+02  0.45594000000E+02  0.51100000000E-03 0. -1.
    9900012    2    1    2    0    0 -0.22234742575E+02  0.34037927180E+02 -0.44902660374E+00  0.50528857253E+02  0.29999992106E+02 0.  0.
        -12    1    1    2    0    0  0.22234742575E+02 -0.34037927180E+02  0.44902660374E+00  0.40659142747E+02  0.00000000000E+00 0.  1.
         11    1    3    3    0    0 -0.49933825547E+01 -0.44061954943E+01 -0.23498028784E+01  0.70618695754E+01  0.51100000000E-03 0.  1.
        -11    1    3    3    0    0 -0.36146408045E+01  0.30070073821E+01 -0.23616927419E+01  0.52616836098E+01  0.51100000000E-03 0. -1.
         12    1    3    3    0    0 -0.13626719215E+02  0.35437115292E+02  0.42624690166E+01  0.38205304068E+02  0.00000000000E+00 0. -1.
</event>
<event>
 7    1  0.2945316E-011  0.5052887E+02  0.7816164E-02  0.1300439E+00
        -11   -1    0    0    0    0  0.00000000000E+00  0.00000000000E+00  0.45593999997E+02  0.45594000000E+02  0.51100000000E-03 0.  1.
         11   -1    0    0    0    0 -0.00000000000E+00 -0.00000000000E+00 -0.45593999997E+02  0.45594000000E+02  0.51100000000E-03 0. -1.
    9900012    2    1    2    0    0  0.26961882847E+02  0.30360996277E+02  0.21052309585E+01  0.50528865491E+02  0.30000017148E+02 0.  0.
        -12    1    1    2    0    0 -0.26961882847E+02 -0.30360996277E+02 -0.21052309585E+01  0.40659134509E+02  0.00000000000E+00 0.  1.
         11    1    3    3    0    0  0.59948798402E+01  0.15898318307E+02  0.11557464402E+02  0.20549211492E+02  0.51100000000E-03 0. -1.
        -11    1    3    3    0    0  0.32204154592E+01  0.90628932617E-01  0.26165304098E+01  0.41503639576E+01  0.51100000000E-03 0.  1.
         12    1    3    3    0    0  0.17746587548E+02  0.14372049038E+02 -0.12068763853E+02  0.25829290042E+02  0.00000000000E+00 0. -1.
</event>
<event>
 7    1  0.2945316E-011  0.5052887E+02  0.7816164E-02  0.1300439E+00
        -11   -1    0    0    0    0  0.00000000000E+00  0.00000000000E+00  0.45593999997E+02  0.45594000000E+02  0.51100000000E-03 0. -1.
         11   -1    0    0    0    0 -0.00000000000E+00 -0.00000000000E+00 -0.45593999997E+02  0.45594000000E+02  0.51100000000E-03 0.  1.
    9900012    2    1    2    0    0 -0.74469177737E+01  0.21455517305E+02  0.33724904531E+02  0.50528868273E+02  0.30000025604E+02 0.  0.
        -12    1    1    2    0    0  0.74469177737E+01 -0.21455517305E+02 -0.33724904531E+02  0.40659131727E+02  0.00000000000E+00 0.  1.
         11    1    3    3    0    0  0.82304067136E+00  0.96676729029E-01  0.13316234766E+02  0.13341995763E+02  0.51100000000E-03 0. -1.
        -11    1    3    3    0    0  0.25769337431E+01  0.12262620946E+02  0.19269007293E+02  0.22984932070E+02  0.51100000000E-03 0.  1.
        -12    1    3    3    0    0 -0.10846892188E+02  0.90962196303E+01  0.11396624719E+01  0.14201940440E+02  0.00000000000E+00 0.  1.
</event>
<event>
 7    1  0.2945316E-011  0.5052886E+02  0.7816164E-02  0.1300439E+00
        -11   -1    0    0    0    0  0.00000000000E+00  0.00000000000E+00  0.45593999997E+02  0.45594000000E+02  0.51100000000E-03 0.  1.
         11   -1    0    0    0    0 -0.00000000000E+00 -0.00000000000E+00 -0.45593999997E+02  0.45594000000E+02  0.51100000000E-03 0. -1.
    9900012    2    1    2    0    0 -0.34965341003E+02 -0.74344499313E+01 -0.19373163632E+02  0.50528860974E+02  0.30000003416E+02 0.  0.
        -12    1    1    2    0    0  0.34965341003E+02  0.74344499313E+01  0.19373163632E+02  0.40659139026E+02  0.00000000000E+00 0.  1.
         11    1    3    3    0    0 -0.83237167973E+01 -0.96930722930E+01 -0.45161668005E+01  0.13551224101E+02  0.51100000000E-03 0. -1.
        -11    1    3    3    0    0 -0.15704385884E+02 -0.53835111730E+01  0.53178104689E+00  0.16610018660E+02  0.51100000000E-03 0.  1.
        -12    1    3    3    0    0 -0.10937238322E+02  0.76421335347E+01 -0.15388777879E+02  0.20367618213E+02  0.00000000000E+00 0.  1.
</event>
<event>
 7    1  0.2945316E-011  0.5052885E+02  0.7816164E-02  0.1300439E+00
        -11   -1    0    0    0    0  0.00000000000E+00  0.00000000000E+00  0.45593999997E+02  0.45594000000E+02  0.51100000000E-03 0.  1.
         11   -1    0    0    0    0 -0.00000000000E+00 -0.00000000000E+00 -0.45593999997E+02  0.45594000000E+02  0.51100000000E-03 0. -1.
    9900012    2    1    2    0    0  0.57611750696E+01 -0.24589406552E+01 -0.40173732907E+02  0.50528851669E+02  0.29999975132E+02 0.  0.
        -12    1    1    2    0    0 -0.57611750696E+01  0.24589406552E+01  0.40173732907E+02  0.40659148331E+02  0.00000000000E+00 0.  1.
         11    1    3    3    0    0 -0.26848367413E+01 -0.16874324986E+01 -0.25256663277E+02  0.25454956627E+02  0.51100000000E-03 0. -1.
        -11    1    3    3    0    0 -0.37349172278E+01  0.15746496351E+01 -0.11520105240E+02  0.12212368860E+02  0.51100000000E-03 0.  1.
        -12    1    3    3    0    0  0.12180929039E+02 -0.23461577917E+01 -0.33969643900E+01  0.12861526181E+02  0.00000000000E+00 0.  1.
</event>
<event>
 7    1  0.2945316E-011  0.5052887E+02  0.7816164E-02  0.1300439E+00
        -11   -1    0    0    0    0  0.00000000000E+00  0.00000000000E+00  0.45593999997E+02  0.45594000000E+02  0.51100000000E-03 0.  1.
         11   -1    0    0    0    0 -0.00000000000E+00 -0.00000000000E+00 -0.45593999997E+02  0.45594000000E+02  0.51100000000E-03 0. -1.
    9900012    2    1    2    0    0 -0.94090401788E+01 -0.29117482919E+02 -0.26773256379E+02  0.50528866884E+02  0.30000021380E+02 0.  0.
        -12    1    1    2    0    0  0.94090401788E+01  0.29117482919E+02  0.26773256379E+02  0.40659133116E+02  0.00000000000E+00 0.  1.
         11    1    3    3    0    0  0.77838448996E+00 -0.18104513640E+02 -0.16716191069E+02  0.24653809861E+02  0.51100000000E-03 0. -1.
        -11    1    3    3    0    0 -0.40332434907E+01 -0.14866983466E+02 -0.28913677174E+01  0.15673361413E+02  0.51100000000E-03 0.  1.
        -12    1    3    3    0    0 -0.61541811781E+01  0.38540141871E+01 -0.71656975924E+01  0.10201695610E+02  0.00000000000E+00 0.  1.
</event>
<event>
 7    1  0.2945316E-011  0.5052886E+02  0.7816164E-02  0.1300439E+00
        -11   -1    0    0    0    0  0.00000000000E+00  0.00000000000E+00  0.45593999997E+02  0.45594000000E+02  0.51100000000E-03 0.  1.
         11   -1    0    0    0    0 -0.00000000000E+00 -0.00000000000E+00 -0.45593999997E+02  0.45594000000E+02  0.51100000000E-03 0. -1.
    9900012    2    1    2    0    0 -0.79631343334E+00  0.29673519840E+02 -0.27785140847E+02  0.50528856543E+02  0.29999989948E+02 0.  0.
        -12    1    1    2    0    0  0.79631343334E+00 -0.29673519840E+02  0.27785140847E+02  0.40659143457E+02  0.00000000000E+00 0.  1.
         11    1    3    3    0    0  0.66775648705E+01 -0.17795491494E+01 -0.86166797171E+01  0.11045534726E+02  0.51100000000E-03 0.  1.
        -11    1    3    3    0    0  0.48905312762E+00 -0.68811712863E+00  0.48854533162E+00  0.97537425972E+00  0.51100000000E-03 0. -1.
         12    1    3    3    0    0 -0.79629314315E+01  0.32141186118E+02 -0.19657006462E+02  0.38507947557E+02  0.00000000000E+00 0. -1.
</event>
<event>
 7    1  0.2945316E-011  0.5052886E+02  0.7816164E-02  0.1300439E+00
        -11   -1    0    0    0    0  0.00000000000E+00  0.00000000000E+00  0.45593999997E+02  0.45594000000E+02  0.51100000000E-03 0.  1.
         11   -1    0    0    0    0 -0.00000000000E+00 -0.00000000000E+00 -0.45593999997E+02  0.45594000000E+02  0.51100000000E-03 0. -1.
    9900012    2    1    2    0    0 -0.38449920189E+02  0.13210496621E+02  0.50202734800E+00  0.50528860622E+02  0.30000002347E+02 0.  0.
        -12    1    1    2    0    0  0.38449920189E+02 -0.13210496621E+02 -0.50202734800E+00  0.40659139378E+02  0.00000000000E+00 0.  1.
         11    1    3    3    0    0 -0.34521291791E+01  0.13406884133E+01  0.10520498431E+02  0.11153274352E+02  0.51100000000E-03 0.  1.
        -11    1    3    3    0    0 -0.20749597822E+02  0.60284514785E+01 -0.12242137964E+01  0.21642244262E+02  0.51100000000E-03 0. -1.
        -12    1    3    3    0    0 -0.14248193188E+02  0.58413567290E+01 -0.87942572863E+01  0.17733342008E+02  0.00000000000E+00 0.  1.
</event>
<event>
 7    1  0.2945316E-011  0.5052887E+02  0.7816164E-02  0.1300439E+00
        -11   -1    0    0    0    0  0.00000000000E+00  0.00000000000E+00  0.45593999997E+02  0.45594000000E+02  0.51100000000E-03 0.  1.
         11   -1    0    0    0    0 -0.00000000000E+00 -0.00000000000E+00 -0.45593999997E+02  0.45594000000E+02  0.51100000000E-03 0. -1.
    9900012    2    1    2    0    0 -0.17095010026E+02  0.28519300711E+02 -0.23400321341E+02  0.50528869172E+02  0.30000028335E+02 0.  0.
        -12    1    1    2    0    0  0.17095010026E+02 -0.28519300711E+02  0.23400321341E+02  0.40659130828E+02  0.00000000000E+00 0.  1.
         11    1    3    3    0    0  0.15076779880E+01  0.96963325737E+01 -0.89796576638E+01  0.13301361220E+02  0.51100000000E-03 0. -1.
        -11    1    3    3    0    0  0.44440852518E+01  0.71039815734E+01 -0.24125629941E+01  0.87199144710E+01  0.51100000000E-03 0.  1.
         12    1    3    3    0    0 -0.23046773266E+02  0.11718986563E+02 -0.12008100684E+02  0.28507593481E+02  0.00000000000E+00 0. -1.
</event>
<event>
 7    1  0.2945316E-011  0.5052885E+02  0.7816164E-02  0.1300439E+00
        -11   -1    0    0    0    0  0.00000000000E+00  0.00000000000E+00  0.45593999997E+02  0.45594000000E+02  0.51100000000E-03 0. -1.
         11   -1    0    0    0    0 -0.00000000000E+00 -0.00000000000E+00 -0.45593999997E+02  0.45594000000E+02  0.51100000000E-03 0.  1.
    9900012    2    1    2    0    0  0.10665163103E+02  0.15130480232E+02 -0.36200677239E+02  0.50528853814E+02  0.29999981652E+02 0.  0.
        -12    1    1    2    0    0 -0.10665163103E+02 -0.15130480232E+02  0.36200677239E+02  0.40659146186E+02  0.00000000000E+00 0.  1.
         11    1    3    3    0    0  0.12755939297E+02  0.10413102528E+02 -0.16269867918E+02  0.23148548420E+02  0.51100000000E-03 0. -1.
        -11    1    3    3    0    0  0.72966240563E+01  0.14187712744E+01 -0.13851638380E+02  0.15720099256E+02  0.51100000000E-03 0.  1.
         12    1    3    3    0    0 -0.93874002508E+01  0.32986064301E+01 -0.60791709409E+01  0.11660206138E+02  0.00000000000E+00 0. -1.
</event>
<event>
 7    1  0.2945316E-011  0.5052887E+02  0.7816164E-02  0.1300439E+00
        -11   -1    0    0    0    0  0.00000000000E+00  0.00000000000E+00  0.45593999997E+02  0.45594000000E+02  0.51100000000E-03 0. -1.
         11   -1    0    0    0    0 -0.00000000000E+00 -0.00000000000E+00 -0.45593999997E+02  0.45594000000E+02  0.51100000000E-03 0.  1.
    9900012    2    1    2    0    0 -0.44642972492E+01  0.34053315841E+02  0.21762501621E+02  0.50528871302E+02  0.30000034809E+02 0.  0.
        -12    1    1    2    0    0  0.44642972492E+01 -0.34053315841E+02 -0.21762501621E+02  0.40659128698E+02  0.00000000000E+00 0.  1.
         11    1    3    3    0    0  0.52576566251E+01  0.48314525141E+01  0.57448760564E+01  0.91645778816E+01  0.51100000000E-03 0. -1.
        -11    1    3    3    0    0  0.54767077271E+00 -0.32849551923E+01 -0.68808434249E+00  0.34006373247E+01  0.51100000000E-03 0.  1.
         12    1    3    3    0    0 -0.10269624647E+02  0.32506818519E+02  0.16705709907E+02  0.37963656095E+02  0.00000000000E+00 0. -1.
</event>
<event>
 7    1  0.2945316E-011  0.5052887E+02  0.7816164E-02  0.1300439E+00
        -11   -1    0    0    0    0  0.00000000000E+00  0.00000000000E+00  0.45593999997E+02  0.45594000000E+02  0.51100000000E-03 0.  1.
         11   -1    0    0    0    0 -0.00000000000E+00 -0.00000000000E+00 -0.45593999997E+02  0.45594000000E+02  0.51100000000E-03 0. -1.
    9900012    2    1    2    0    0  0.22713329962E+02 -0.26929988084E+02 -0.20298894601E+02  0.50528871404E+02  0.30000035120E+02 0.  0.
        -12    1    1    2    0    0 -0.22713329962E+02  0.26929988084E+02  0.20298894601E+02  0.40659128596E+02  0.00000000000E+00 0.  1.
         11    1    3    3    0    0  0.16499415079E+02 -0.12892201395E+02 -0.17773680009E+02  0.27465310049E+02  0.51100000000E-03 0. -1.
        -11    1    3    3    0    0  0.11758076765E+02 -0.89868249069E+01 -0.41902828158E+01  0.15380957755E+02  0.51100000000E-03 0.  1.
        -12    1    3    3    0    0 -0.55441618820E+01 -0.50509617814E+01  0.16650682231E+01  0.76826036003E+01  0.00000000000E+00 0.  1.
</event>
<event>
 7    1  0.2945316E-011  0.5052886E+02  0.7816164E-02  0.1300439E+00
        -11   -1    0    0    0    0  0.00000000000E+00  0.00000000000E+00  0.45593999997E+02  0.45594000000E+02  0.51100000000E-03 0.  1.
         11   -1    0    0    0    0 -0.00000000000E+00 -0.00000000000E+00 -0.45593999997E+02  0.45594000000E+02  0.51100000000E-03 0. -1.
    9900012    2    1    2    0    0  0.36083759130E+02  0.98898236861E+00  0.18712300822E+02  0.50528856365E+02  0.29999989406E+02 0.  0.
        -12    1    1    2    0    0 -0.36083759130E+02 -0.98898236861E+00 -0.18712300822E+02  0.40659143635E+02  0.00000000000E+00 0.  1.
         11    1    3    3    0    0  0.17055756474E+02 -0.39819762944E+01  0.25511060480E+01  0.17699240278E+02  0.51100000000E-03 0. -1.
        -11    1    3    3    0    0  0.64830476573E+01 -0.26695164479E+01  0.16719976015E+02  0.18130466712E+02  0.51100000000E-03 0.  1.
         12    1    3    3    0    0  0.12544954999E+02  0.76404751109E+01 -0.55878124069E+00  0.14699149374E+02  0.00000000000E+00 0. -1.
</event>
<event>
 7    1  0.2945316E-011  0.5052886E+02  0.7816164E-02  0.1300439E+00
        -11   -1    0    0    0    0  0.00000000000E+00  0.00000000000E+00  0.45593999997E+02  0.45594000000E+02  0.51100000000E-03 0.  1.
         11   -1    0    0    0    0 -0.00000000000E+00 -0.00000000000E+00 -0.45593999997E+02  0.45594000000E+02  0.51100000000E-03 0. -1.
    9900012    2    1    2    0    0  0.18027178735E+02 -0.22310182716E+02 -0.28817388931E+02  0.50528864117E+02  0.30000012969E+02 0.  0.
        -12    1    1    2    0    0 -0.18027178735E+02  0.22310182716E+02  0.28817388931E+02  0.40659135883E+02  0.00000000000E+00 0.  1.
         11    1    3    3    0    0  0.27231130262E+01 -0.18216527529E+01 -0.21815309553E+01  0.39360946223E+01  0.51100000000E-03 0. -1.
        -11    1    3    3    0    0  0.10563830927E+00 -0.20891703906E+02 -0.22776083944E+02  0.30906705609E+02  0.51100000000E-03 0.  1.
        -12    1    3    3    0    0  0.15198427399E+02  0.40317394203E+00 -0.38597740321E+01  0.15686063885E+02  0.00000000000E+00 0.  1.
</event>
<event>
 7    1  0.2945316E-011  0.5052886E+02  0.7816164E-02  0.1300439E+00
        -11   -1    0    0    0    0  0.00000000000E+00  0.00000000000E+00  0.45593999997E+02  0.45594000000E+02  0.51100000000E-03 0.  1.
         11   -1    0    0    0    0 -0.00000000000E+00 -0.00000000000E+00 -0.45593999997E+02  0.45594000000E+02  0.51100000000E-03 0. -1.
    9900012    2    1    2    0    0  0.14139979057E+02 -0.14771016723E+01 -0.38092580412E+02  0.50528861796E+02  0.30000005914E+02 0.  0.
        -12    1    1    2    0    0 -0.14139979057E+02  0.14771016723E+01  0.38092580412E+02  0.40659138204E+02  0.00000000000E+00 0.  1.
         11    1    3    3    0    0  0.88487787658E+01 -0.52535499272E+01  0.43475109984E+00  0.10299984527E+02  0.51100000000E-03 0. -1.
        -11    1    3    3    0    0 -0.16162113249E+01 -0.13776160096E+01 -0.15440439336E+02  0.15585799052E+02  0.51100000000E-03 0.  1.
        -12    1    3    3    0    0  0.69074116159E+01  0.51540642645E+01 -0.23086892176E+02  0.24643078217E+02  0.00000000000E+00 0.  1.
</event>
<event>
 7    1  0.2945316E-011  0.5052885E+02  0.7816164E-02  0.1300439E+00
        -11   -1    0    0    0    0  0.00000000000E+00  0.00000000000E+00  0.45593999997E+02  0.45594000000E+02  0.51100000000E-03 0.  1.
         11   -1    0    0    0    0 -0.00000000000E+00 -0.00000000000E+00 -0.45593999997E+02  0.45594000000E+02  0.51100000000E-03 0. -1.
    9900012    2    1    2    0    0  0.25455582447E+01  0.22778036426E+02 -0.33583443223E+02  0.50528850120E+02  0.29999970426E+02 0.  0.
        -12    1    1    2    0    0 -0.25455582447E+01 -0.22778036426E+02  0.33583443223E+02  0.40659149880E+02  0.00000000000E+00 0.  1.
         11    1    3    3    0    0  0.62399730463E+01  0.61541409010E+01 -0.21897820414E+02  0.23586548136E+02  0.51100000000E-03 0. -1.
        -11    1    3    3    0    0  0.24378996201E+01  0.12624274117E+02 -0.14242219874E+02  0.19187404169E+02  0.51100000000E-03 0.  1.
        -12    1    3    3    0    0 -0.61323144218E+01  0.39996214077E+01  0.25565970647E+01  0.77548978151E+01  0.00000000000E+00 0.  1.
</event>
<event>
 7    1  0.2945316E-011  0.5052886E+02  0.7816164E-02  0.1300439E+00
        -11   -1    0    0    0    0  0.00000000000E+00  0.00000000000E+00  0.45593999997E+02  0.45594000000E+02  0.51100000000E-03 0.  1.
         11   -1    0    0    0    0 -0.00000000000E+00 -0.00000000000E+00 -0.45593999997E+02  0.45594000000E+02  0.51100000000E-03 0. -1.
    9900012    2    1    2    0    0 -0.26753082061E+02  0.29616424721E+02 -0.77656460444E+01  0.50528864846E+02  0.30000015185E+02 0.  0.
        -12    1    1    2    0    0  0.26753082061E+02 -0.29616424721E+02  0.77656460444E+01  0.40659135154E+02  0.00000000000E+00 0.  1.
         11    1    3    3    0    0  0.15992780256E+01  0.37779018547E+01 -0.73718512510E+00  0.41681740363E+01  0.51100000000E-03 0. -1.
        -11    1    3    3    0    0 -0.17253622407E+02  0.82967358212E+01  0.79840274032E+01  0.20742902528E+02  0.51100000000E-03 0.  1.
         12    1    3    3    0    0 -0.11098737680E+02  0.17541787045E+02 -0.15012488323E+02  0.25617788282E+02  0.00000000000E+00 0. -1.
</event>
<event>
 7    1  0.2945316E-011  0.5052884E+02  0.7816164E-02  0.1300439E+00
        -11   -1    0    0    0    0  0.00000000000E+00  0.00000000000E+00  0.45593999997E+02  0.45594000000E+02  0.51100000000E-03 0.  1.
         11   -1    0    0    0    0 -0.00000000000E+00 -0.00000000000E+00 -0.45593999997E+02  0.45594000000E+02  0.51100000000E-03 0. -1.
    9900012    2    1    2    0    0 -0.19350949933E+02 -0.29151766794E+02  0.20709480629E+02  0.50528839182E+02  0.29999937177E+02 0.  0.
        -12    1    1    2    0    0  0.19350949933E+02  0.29151766794E+02 -0.20709480629E+02  0.40659160818E+02  0.00000000000E+00 0.  1.
         11    1    3    3    0    0 -0.24180672889E+01 -0.17554780735E+02  0.13668316755E+02  0.22379460656E+02  0.51100000000E-03 0. -1.
        -11    1    3    3    0    0 -0.30787326958E+01 -0.11725703428E+02  0.75559583955E+01  0.14285069948E+02  0.51100000000E-03 0.  1.
        -12    1    3    3    0    0 -0.13854149948E+02  0.12871736883E+00 -0.51479452138E+00  0.13864308578E+02  0.00000000000E+00 0.  1.
</event>
<event>
 7    1  0.2945316E-011  0.5052885E+02  0.7816164E-02  0.1300439E+00
        -11   -1    0    0    0    0  0.00000000000E+00  0.00000000000E+00  0.45593999997E+02  0.45594000000E+02  0.51100000000E-03 0.  1.
         11   -1    0    0    0    0 -0.00000000000E+00 -0.00000000000E+00 -0.45593999997E+02  0.45594000000E+02  0.51100000000E-03 0. -1.
    9900012    2    1    2    0    0  0.32363897634E+02 -0.19536019544E+02 -0.14969589301E+02  0.50528849326E+02  0.29999968011E+02 0.  0.
        -12    1    1    2    0    0 -0.32363897634E+02  0.19536019544E+02  0.14969589301E+02  0.40659150674E+02  0.00000000000E+00 0.  1.
         11    1    3    3    0    0  0.14236416290E+02 -0.14921844137E+02 -0.12032659301E+02  0.23877224951E+02  0.51100000000E-03 0.  1.
        -11    1    3    3    0    0  0.57224415709E+01 -0.43312274688E+01 -0.10049786376E+02  0.12349254042E+02  0.51100000000E-03 0. -1.
         12    1    3    3    0    0  0.12405039773E+02 -0.28294793820E+00  0.71128563766E+01  0.14302370333E+02  0.00000000000E+00 0. -1.
</event>
<event>
 7    1  0.2945316E-011  0.5052885E+02  0.7816164E-02  0.1300439E+00
        -11   -1    0    0    0    0  0.00000000000E+00  0.00000000000E+00  0.45593999997E+02  0.45594000000E+02  0.51100000000E-03 0.  1.
         11   -1    0    0    0    0 -0.00000000000E+00 -0.00000000000E+00 -0.45593999997E+02  0.45594000000E+02  0.51100000000E-03 0. -1.
    9900012    2    1    2    0    0 -0.12934184425E+02  0.45618055544E+00 -0.38544325706E+02  0.50528852548E+02  0.29999977804E+02 0.  0.
        -12    1    1    2    0    0  0.12934184425E+02 -0.45618055544E+00  0.38544325706E+02  0.40659147452E+02  0.00000000000E+00 0.  1.
         11    1    3    3    0    0 -0.76388901649E+01  0.47504927324E+00 -0.89101538962E+01  0.11746027306E+02  0.51100000000E-03 0. -1.
        -11    1    3    3    0    0 -0.56554748551E+01  0.10910540126E+02 -0.83614249192E+01  0.14863973514E+02  0.51100000000E-03 0.  1.
         12    1    3    3    0    0  0.36018059474E+00 -0.10929408844E+02 -0.21272746890E+02  0.23918851728E+02  0.00000000000E+00 0. -1.
</event>
<event>
 7    1  0.2945316E-011  0.5052886E+02  0.7816164E-02  0.1300439E+00
        -11   -1    0    0    0    0  0.00000000000E+00  0.00000000000E+00  0.45593999997E+02  0.45594000000E+02  0.51100000000E-03 0.  1.
         11   -1    0    0    0    0 -0.00000000000E+00 -0.00000000000E+00 -0.45593999997E+02  0.45594000000E+02  0.51100000000E-03 0. -1.
    9900012    2    1    2    0    0  0.46203123451E+01  0.34741714926E+02 -0.20611436405E+02  0.50528863845E+02  0.30000012144E+02 0.  0.
        -12    1    1    2    0    0 -0.46203123451E+01 -0.34741714926E+02  0.20611436405E+02  0.40659136155E+02  0.00000000000E+00 0.  1.
         11    1    3    3    0    0  0.26744957335E+01  0.32862888597E+02 -0.17292411136E+02  0.37231033527E+02  0.51100000000E-03 0. -1.
        -11    1    3    3    0    0  0.27589831264E+01  0.66667055469E+01  0.33103050581E+00  0.72226402512E+01  0.51100000000E-03 0.  1.
        -12    1    3    3    0    0 -0.81316651477E+00 -0.47878792179E+01 -0.36500557754E+01  0.60751900669E+01  0.00000000000E+00 0.  1.
</event>
<event>
 7    1  0.2945316E-011  0.5052887E+02  0.7816164E-02  0.1300439E+00
        -11   -1    0    0    0    0  0.00000000000E+00  0.00000000000E+00  0.45593999997E+02  0.45594000000E+02  0.51100000000E-03 0.  1.
         11   -1    0    0    0    0 -0.00000000000E+00 -0.00000000000E+00 -0.45593999997E+02  0.45594000000E+02  0.51100000000E-03 0. -1.
    9900012    2    1    2    0    0  0.23298669499E+02  0.29836718330E+02 -0.14835995877E+02  0.50528873905E+02  0.30000042723E+02 0.  0.
        -12    1    1    2    0    0 -0.23298669499E+02 -0.29836718330E+02  0.14835995877E+02  0.40659126095E+02  0.00000000000E+00 0.  1.
         11    1    3    3    0    0  0.87873138610E+01  0.25284437954E+02 -0.28165289619E+01  0.26915655726E+02  0.51100000000E-03 0. -1.
        -11    1    3    3    0    0  0.75041661017E+01  0.12284124291E+01  0.17563971363E+01  0.78042576289E+01  0.51100000000E-03 0.  1.
        -12    1    3    3    0    0  0.70071895364E+01  0.33238679473E+01 -0.13775864051E+02  0.15808960550E+02  0.00000000000E+00 0.  1.
</event>
<event>
 7    1  0.2945316E-011  0.5052887E+02  0.7816164E-02  0.1300439E+00
        -11   -1    0    0    0    0  0.00000000000E+00  0.00000000000E+00  0.45593999997E+02  0.45594000000E+02  0.51100000000E-03 0.  1.
         11   -1    0    0    0    0 -0.00000000000E+00 -0.00000000000E+00 -0.45593999997E+02  0.45594000000E+02  0.51100000000E-03 0. -1.
    9900012    2    1    2    0    0  0.58836962843E+01  0.41705758176E+01 -0.40014416525E+02  0.50528866777E+02  0.30000021055E+02 0.  0.
        -12    1    1    2    0    0 -0.58836962843E+01 -0.41705758176E+01  0.40014416525E+02  0.40659133223E+02  0.00000000000E+00 0.  1.
         11    1    3    3    0    0 -0.54638935382E+01  0.43307417270E+01 -0.23720550892E+02  0.24723955820E+02  0.51100000000E-03 0. -1.
        -11    1    3    3    0    0 -0.42817114198E+01  0.71580767716E+00 -0.39581843319E+01  0.58747473800E+01  0.51100000000E-03 0.  1.
        -12    1    3    3    0    0  0.15629301242E+02 -0.87597358652E+00 -0.12335681301E+02  0.19930163577E+02  0.00000000000E+00 0.  1.
</event>
<event>
 7    1  0.2945316E-011  0.5052886E+02  0.7816164E-02  0.1300439E+00
        -11   -1    0    0    0    0  0.00000000000E+00  0.00000000000E+00  0.45593999997E+02  0.45594000000E+02  0.51100000000E-03 0. -1.
         11   -1    0    0    0    0 -0.00000000000E+00 -0.00000000000E+00 -0.45593999997E+02  0.45594000000E+02  0.51100000000E-03 0.  1.
    9900012    2    1    2    0    0  0.36297862612E+02 -0.95048444670E+01  0.15661705933E+02  0.50528856732E+02  0.29999990522E+02 0.  0.
        -12    1    1    2    0    0 -0.36297862612E+02  0.95048444670E+01 -0.15661705933E+02  0.40659143268E+02  0.00000000000E+00 0.  1.
         11    1    3    3    0    0  0.59137660242E+01 -0.22796539182E+01 -0.21482974701E+01  0.66921321607E+01  0.51100000000E-03 0. -1.
        -11    1    3    3    0    0  0.18435940868E+01 -0.10972516018E+02  0.33267658442E+01  0.11613023645E+02  0.51100000000E-03 0.  1.
         12    1    3    3    0    0  0.28540502501E+02  0.37473254696E+01  0.14483237559E+02  0.32223700926E+02  0.00000000000E+00 0. -1.
</event>
<event>
 7    1  0.2945316E-011  0.5052885E+02  0.7816164E-02  0.1300439E+00
        -11   -1    0    0    0    0  0.00000000000E+00  0.00000000000E+00  0.45593999997E+02  0.45594000000E+02  0.51100000000E-03 0. -1.
         11   -1    0    0    0    0 -0.00000000000E+00 -0.00000000000E+00 -0.45593999997E+02  0.45594000000E+02  0.51100000000E-03 0.  1.
    9900012    2    1    2    0    0  0.65064131505E+01  0.31755140530E+02  0.24544731694E+02  0.50528853230E+02  0.29999979878E+02 0.  0.
        -12    1    1    2    0    0 -0.65064131505E+01 -0.31755140530E+02 -0.24544731694E+02  0.40659146770E+02  0.00000000000E+00 0.  1.
         11    1    3    3    0    0 -0.34526868063E+00  0.39013398924E+01  0.99019304121E+01  0.10648374973E+02  0.51100000000E-03 0. -1.
        -11    1    3    3    0    0 -0.45552947653E+01 -0.21105612545E+01  0.23387526364E+01  0.55384964894E+01  0.51100000000E-03 0.  1.
        -12    1    3    3    0    0  0.11406976597E+02  0.29964361892E+02  0.12304048646E+02  0.34341981768E+02  0.00000000000E+00 0.  1.
</event>
<event>
 7    1  0.2945316E-011  0.5052886E+02  0.7816164E-02  0.1300439E+00
        -11   -1    0    0    0    0  0.00000000000E+00  0.00000000000E+00  0.45593999997E+02  0.45594000000E+02  0.51100000000E-03 0. -1.
         11   -1    0    0    0    0 -0.00000000000E+00 -0.00000000000E+00 -0.45593999997E+02  0.45594000000E+02  0.51100000000E-03 0.  1.
    9900012    2    1    2    0    0 -0.40202160566E+02  0.31757180644E+01 -0.51833086478E+01  0.50528860955E+02  0.30000003357E+02 0.  0.
        -12    1    1    2    0    0  0.40202160566E+02 -0.31757180644E+01  0.51833086478E+01  0.40659139045E+02  0.00000000000E+00 0.  1.
         11    1    3    3    0    0 -0.21109958446E+02  0.95776115573E+01  0.19128490211E+01  0.23259836207E+02  0.51100000000E-03 0. -1.
        -11    1    3    3    0    0 -0.14218526256E+02  0.18379206149E+01 -0.97460371620E+01  0.17335791926E+02  0.51100000000E-03 0.  1.
         12    1    3    3    0    0 -0.48736758630E+01 -0.82398141077E+01  0.26498794931E+01  0.99332328209E+01  0.00000000000E+00 0. -1.
</event>
<event>
 7    1  0.2945316E-011  0.5052886E+02  0.7816164E-02  0.1300439E+00
        -11   -1    0    0    0    0  0.00000000000E+00  0.00000000000E+00  0.45593999997E+02  0.45594000000E+02  0.51100000000E-03 0. -1.
         11   -1    0    0    0    0 -0.00000000000E+00 -0.00000000000E+00 -0.45593999997E+02  0.45594000000E+02  0.51100000000E-03 0.  1.
    9900012    2    1    2    0    0  0.29198323534E+02  0.16998211623E+01  0.28244187490E+02  0.50528860608E+02  0.30000002303E+02 0.  0.
        -12    1    1    2    0    0 -0.29198323534E+02 -0.16998211623E+01 -0.28244187490E+02  0.40659139392E+02  0.00000000000E+00 0.  1.
         11    1    3    3    0    0  0.10716962662E+01 -0.92139802232E+01  0.45998884619E+01  0.10353981773E+02  0.51100000000E-03 0. -1.
        -11    1    3    3    0    0  0.43792207922E+01 -0.26453703566E+01  0.42272886015E+01  0.66366805145E+01  0.51100000000E-03 0.  1.
         12    1    3    3    0    0  0.23747406475E+02  0.13559171742E+02  0.19417010427E+02  0.33538198320E+02  0.00000000000E+00 0. -1.
</event>
<event>
 7    1  0.2945316E-011  0.5052883E+02  0.7816164E-02  0.1300439E+00
        -11   -1    0    0    0    0  0.00000000000E+00  0.00000000000E+00  0.45593999997E+02  0.45594000000E+02  0.51100000000E-03 0.  1.
         11   -1    0    0    0    0 -0.00000000000E+00 -0.00000000000E+00 -0.45593999997E+02  0.45594000000E+02  0.51100000000E-03 0. -1.
    9900012    2    1    2    0    0  0.21226557072E+02  0.15770587498E+02 -0.30885102701E+02  0.50528834687E+02  0.29999923513E+02 0.  0.
        -12    1    1    2    0    0 -0.21226557072E+02 -0.15770587498E+02  0.30885102701E+02  0.40659165313E+02  0.00000000000E+00 0.  1.
         11    1    3    3    0    0  0.10751170828E+02  0.57582434992E+01 -0.10310596658E+02  0.15970392797E+02  0.51100000000E-03 0. -1.
        -11    1    3    3    0    0  0.10073063993E+02  0.16497046538E+02 -0.90820650805E+01  0.21356569694E+02  0.51100000000E-03 0.  1.
         12    1    3    3    0    0  0.40232225094E+00 -0.64847025399E+01 -0.11492440962E+02  0.13201872196E+02  0.00000000000E+00 0. -1.
</event>
<event>
 7    1  0.2945316E-011  0.5052885E+02  0.7816164E-02  0.1300439E+00
        -11   -1    0    0    0    0  0.00000000000E+00  0.00000000000E+00  0.45593999997E+02  0.45594000000E+02  0.51100000000E-03 0.  1.
         11   -1    0    0    0    0 -0.00000000000E+00 -0.00000000000E+00 -0.45593999997E+02  0.45594000000E+02  0.51100000000E-03 0. -1.
    9900012    2    1    2    0    0 -0.15955889570E+01  0.21764677762E+02 -0.34306254710E+02  0.50528853250E+02  0.29999979938E+02 0.  0.
        -12    1    1    2    0    0  0.15955889570E+01 -0.21764677762E+02  0.34306254710E+02  0.40659146750E+02  0.00000000000E+00 0.  1.
         11    1    3    3    0    0  0.72035756011E+01  0.97358338347E+01 -0.12274510837E+02  0.17243595288E+02  0.51100000000E-03 0. -1.
        -11    1    3    3    0    0 -0.11003991349E+01 -0.25862465658E+01  0.24656069425E+01  0.37388189861E+01  0.51100000000E-03 0.  1.
        -12    1    3    3    0    0 -0.76987654232E+01  0.14615090493E+02 -0.24497350816E+02  0.29546438976E+02  0.00000000000E+00 0.  1.
</event>
<event>
 7    1  0.2945316E-011  0.5052887E+02  0.7816164E-02  0.1300439E+00
        -11   -1    0    0    0    0  0.00000000000E+00  0.00000000000E+00  0.45593999997E+02  0.45594000000E+02  0.51100000000E-03 0.  1.
         11   -1    0    0    0    0 -0.00000000000E+00 -0.00000000000E+00 -0.45593999997E+02  0.45594000000E+02  0.51100000000E-03 0. -1.
    9900012    2    1    2    0    0 -0.44585258277E+01  0.76891304158E+01 -0.39675734637E+02  0.50528866978E+02  0.30000021667E+02 0.  0.
        -12    1    1    2    0    0  0.44585258277E+01 -0.76891304158E+01  0.39675734637E+02  0.40659133022E+02  0.00000000000E+00 0.  1.
         11    1    3    3    0    0 -0.32985059431E+01  0.78550545328E+01 -0.15086982077E+02  0.17326253248E+02  0.51100000000E-03 0. -1.
        -11    1    3    3    0    0  0.18453954821E+01  0.26522773527E+01 -0.27794891737E+02  0.27982066874E+02  0.51100000000E-03 0.  1.
        -12    1    3    3    0    0 -0.30054153666E+01 -0.28182014697E+01  0.32061391769E+01  0.52205468556E+01  0.00000000000E+00 0.  1.
</event>
<event>
 7    1  0.2945316E-011  0.5052886E+02  0.7816164E-02  0.1300439E+00
        -11   -1    0    0    0    0  0.00000000000E+00  0.00000000000E+00  0.45593999997E+02  0.45594000000E+02  0.51100000000E-03 0. -1.
         11   -1    0    0    0    0 -0.00000000000E+00 -0.00000000000E+00 -0.45593999997E+02  0.45594000000E+02  0.51100000000E-03 0.  1.
    9900012    2    1    2    0    0 -0.52415197617E+01  0.40125443575E+02 -0.39548374367E+01  0.50528862151E+02  0.30000006994E+02 0.  0.
        -12    1    1    2    0    0  0.52415197617E+01 -0.40125443575E+02  0.39548374367E+01  0.40659137849E+02  0.00000000000E+00 0.  1.
         11    1    3    3    0    0 -0.24816642011E+01  0.17866689866E+02  0.49393818059E+01  0.18702266089E+02  0.51100000000E-03 0. -1.
        -11    1    3    3    0    0 -0.11477415544E+01  0.17797689984E+02  0.38349834311E+01  0.18242318318E+02  0.51100000000E-03 0.  1.
        -12    1    3    3    0    0 -0.16121140061E+01  0.44610637249E+01 -0.12729202674E+02  0.13584277744E+02  0.00000000000E+00 0.  1.
</event>
<event>
 7    1  0.2945316E-011  0.5052891E+02  0.7816164E-02  0.1300439E+00
        -11   -1    0    0    0    0  0.00000000000E+00  0.00000000000E+00  0.45593999997E+02  0.45594000000E+02  0.51100000000E-03 0. -1.
         11   -1    0    0    0    0 -0.00000000000E+00 -0.00000000000E+00 -0.45593999997E+02  0.45594000000E+02  0.51100000000E-03 0.  1.
    9900012    2    1    2    0    0 -0.30170627848E+02 -0.25247008872E+02  0.10270509265E+02  0.50528909967E+02  0.30000152336E+02 0.  0.
        -12    1    1    2    0    0  0.30170627848E+02  0.25247008872E+02 -0.10270509265E+02  0.40659090033E+02  0.00000000000E+00 0.  1.
         11    1    3    3    0    0 -0.19399287435E+01 -0.12681864253E+02  0.41353152649E+01  0.13479385633E+02  0.51100000000E-03 0. -1.
        -11    1    3    3    0    0  0.62261033281E+00 -0.63676759645E+01 -0.14893629133E+01  0.65691051874E+01  0.51100000000E-03 0.  1.
        -12    1    3    3    0    0 -0.28853309437E+02 -0.61974686547E+01  0.76245569135E+01  0.30480419146E+02  0.00000000000E+00 0.  1.
</event>
<event>
 7    1  0.2945316E-011  0.5052885E+02  0.7816164E-02  0.1300439E+00
        -11   -1    0    0    0    0  0.00000000000E+00  0.00000000000E+00  0.45593999997E+02  0.45594000000E+02  0.51100000000E-03 0.  1.
         11   -1    0    0    0    0 -0.00000000000E+00 -0.00000000000E+00 -0.45593999997E+02  0.45594000000E+02  0.51100000000E-03 0. -1.
    9900012    2    1    2    0    0  0.31306347574E+02 -0.20974533893E+02 -0.15269172184E+02  0.50528854785E+02  0.29999984605E+02 0.  0.
        -12    1    1    2    0    0 -0.31306347574E+02  0.20974533893E+02  0.15269172184E+02  0.40659145215E+02  0.00000000000E+00 0.  1.
         11    1    3    3    0    0  0.25278555046E+02 -0.11029717247E+02 -0.11503451914E+02  0.29882928470E+02  0.51100000000E-03 0. -1.
        -11    1    3    3    0    0  0.10569333789E+02 -0.10693252417E+02 -0.57653330002E+00  0.15046223942E+02  0.51100000000E-03 0.  1.
        -12    1    3    3    0    0 -0.45415412618E+01  0.74843577105E+00 -0.31891869693E+01  0.55997023726E+01  0.00000000000E+00 0.  1.
</event>
<event>
 7    1  0.2945316E-011  0.5052885E+02  0.7816164E-02  0.1300439E+00
        -11   -1    0    0    0    0  0.00000000000E+00  0.00000000000E+00  0.45593999997E+02  0.45594000000E+02  0.51100000000E-03 0. -1.
         11   -1    0    0    0    0 -0.00000000000E+00 -0.00000000000E+00 -0.45593999997E+02  0.45594000000E+02  0.51100000000E-03 0.  1.
    9900012    2    1    2    0    0 -0.17877176972E+02 -0.33121841679E+02 -0.15379090272E+02  0.50528852563E+02  0.29999977851E+02 0.  0.
        -12    1    1    2    0    0  0.17877176972E+02  0.33121841679E+02  0.15379090272E+02  0.40659147437E+02  0.00000000000E+00 0.  1.
         11    1    3    3    0    0 -0.16818486827E+01 -0.27786638392E+01  0.42260848631E+01  0.53300451456E+01  0.51100000000E-03 0. -1.
        -11    1    3    3    0    0  0.28469340406E+01  0.10993291195E+01 -0.45441512644E+01  0.54738349372E+01  0.51100000000E-03 0.  1.
         12    1    3    3    0    0 -0.19042262330E+02 -0.31442506959E+02 -0.15061023871E+02  0.39724972480E+02  0.00000000000E+00 0. -1.
</event>
<event>
 7    1  0.2945316E-011  0.5052885E+02  0.7816164E-02  0.1300439E+00
        -11   -1    0    0    0    0  0.00000000000E+00  0.00000000000E+00  0.45593999997E+02  0.45594000000E+02  0.51100000000E-03 0.  1.
         11   -1    0    0    0    0 -0.00000000000E+00 -0.00000000000E+00 -0.45593999997E+02  0.45594000000E+02  0.51100000000E-03 0. -1.
    9900012    2    1    2    0    0  0.16608042941E+02  0.20364318930E+02 -0.31026343430E+02  0.50528848970E+02  0.29999966930E+02 0.  0.
        -12    1    1    2    0    0 -0.16608042941E+02 -0.20364318930E+02  0.31026343430E+02  0.40659151030E+02  0.00000000000E+00 0.  1.
         11    1    3    3    0    0  0.18108263885E+02  0.11088492715E+02 -0.11031123741E+02  0.23928008334E+02  0.51100000000E-03 0. -1.
        -11    1    3    3    0    0  0.21350159066E+00  0.13228045574E+02 -0.15393454006E+02  0.20297418534E+02  0.51100000000E-03 0.  1.
        -12    1    3    3    0    0 -0.17137225343E+01 -0.39522193594E+01 -0.46017656838E+01  0.63034221022E+01  0.00000000000E+00 0.  1.
</event>
<event>
 7    1  0.2945316E-011  0.5052886E+02  0.7816164E-02  0.1300439E+00
        -11   -1    0    0    0    0  0.00000000000E+00  0.00000000000E+00  0.45593999997E+02  0.45594000000E+02  0.51100000000E-03 0.  1.
         11   -1    0    0    0    0 -0.00000000000E+00 -0.00000000000E+00 -0.45593999997E+02  0.45594000000E+02  0.51100000000E-03 0. -1.
    9900012    2    1    2    0    0  0.16233830006E+02 -0.34237443038E+02 -0.14745374863E+02  0.50528858073E+02  0.29999994597E+02 0.  0.
        -12    1    1    2    0    0 -0.16233830006E+02  0.34237443038E+02  0.14745374863E+02  0.40659141927E+02  0.00000000000E+00 0.  1.
         11    1    3    3    0    0  0.34948486292E+01 -0.21880317068E+02 -0.11465703675E+02  0.24948438888E+02  0.51100000000E-03 0. -1.
        -11    1    3    3    0    0 -0.18997882023E+01 -0.10425161191E+02 -0.16614759932E+01  0.10726308023E+02  0.51100000000E-03 0.  1.
         12    1    3    3    0    0  0.14638769579E+02 -0.19319647785E+01 -0.16181951953E+01  0.14854111161E+02  0.00000000000E+00 0. -1.
</event>
<event>
 7    1  0.2945316E-011  0.5052891E+02  0.7816164E-02  0.1300439E+00
        -11   -1    0    0    0    0  0.00000000000E+00  0.00000000000E+00  0.45593999997E+02  0.45594000000E+02  0.51100000000E-03 0.  1.
         11   -1    0    0    0    0 -0.00000000000E+00 -0.00000000000E+00 -0.45593999997E+02  0.45594000000E+02  0.51100000000E-03 0. -1.
    9900012    2    1    2    0    0  0.56109807957E+01  0.13531225587E+02 -0.37928680605E+02  0.50528905276E+02  0.30000138076E+02 0.  0.
        -12    1    1    2    0    0 -0.56109807957E+01 -0.13531225587E+02  0.37928680605E+02  0.40659094724E+02  0.00000000000E+00 0.  1.
         11    1    3    3    0    0 -0.29171601006E+01  0.10675829298E+02 -0.12477621261E+02  0.16678554699E+02  0.51100000000E-03 0. -1.
        -11    1    3    3    0    0  0.37526072279E+01  0.31194524441E+01 -0.28005944136E+02  0.28427907974E+02  0.51100000000E-03 0.  1.
        -12    1    3    3    0    0  0.47755336684E+01 -0.26405615524E+00  0.25548847929E+01  0.54224426024E+01  0.00000000000E+00 0.  1.
</event>
<event>
 7    1  0.2945316E-011  0.5052886E+02  0.7816164E-02  0.1300439E+00
        -11   -1    0    0    0    0  0.00000000000E+00  0.00000000000E+00  0.45593999997E+02  0.45594000000E+02  0.51100000000E-03 0. -1.
         11   -1    0    0    0    0 -0.00000000000E+00 -0.00000000000E+00 -0.45593999997E+02  0.45594000000E+02  0.51100000000E-03 0.  1.
    9900012    2    1    2    0    0  0.78229617864E+01 -0.11131184988E+02  0.38315322763E+02  0.50528856271E+02  0.29999989122E+02 0.  0.
        -12    1    1    2    0    0 -0.78229617864E+01  0.11131184988E+02 -0.38315322763E+02  0.40659143729E+02  0.00000000000E+00 0.  1.
         11    1    3    3    0    0  0.31831158868E+01 -0.25849788113E+01 -0.20584385457E+01  0.45881926410E+01  0.51100000000E-03 0. -1.
        -11    1    3    3    0    0  0.10502614155E+02  0.59501594579E+00  0.14809133267E+02  0.18165059219E+02  0.51100000000E-03 0.  1.
         12    1    3    3    0    0 -0.58627682552E+01 -0.91412221222E+01  0.25564628041E+02  0.27775604411E+02  0.00000000000E+00 0. -1.
</event>
<event>
 7    1  0.2945316E-011  0.5052886E+02  0.7816164E-02  0.1300439E+00
        -11   -1    0    0    0    0  0.00000000000E+00  0.00000000000E+00  0.45593999997E+02  0.45594000000E+02  0.51100000000E-03 0. -1.
         11   -1    0    0    0    0 -0.00000000000E+00 -0.00000000000E+00 -0.45593999997E+02  0.45594000000E+02  0.51100000000E-03 0.  1.
    9900012    2    1    2    0    0 -0.36254752542E+02 -0.14576950970E+02 -0.11237026385E+02  0.50528863961E+02  0.30000012496E+02 0.  0.
        -12    1    1    2    0    0  0.36254752542E+02  0.14576950970E+02  0.11237026385E+02  0.40659136039E+02  0.00000000000E+00 0.  1.
         11    1    3    3    0    0 -0.11009630848E+02 -0.95229581553E+01 -0.26213869081E+01  0.14790888175E+02  0.51100000000E-03 0. -1.
        -11    1    3    3    0    0  0.41787692896E+01 -0.29508780290E+01 -0.20884067123E+01  0.55255078296E+01  0.51100000000E-03 0.  1.
        -12    1    3    3    0    0 -0.29423890984E+02 -0.21031147852E+01 -0.65272327648E+01  0.30212467956E+02  0.00000000000E+00 0.  1.
</event>
<event>
 7    1  0.2945316E-011  0.5052887E+02  0.7816164E-02  0.1300439E+00
        -11   -1    0    0    0    0  0.00000000000E+00  0.00000000000E+00  0.45593999997E+02  0.45594000000E+02  0.51100000000E-03 0. -1.
         11   -1    0    0    0    0 -0.00000000000E+00 -0.00000000000E+00 -0.45593999997E+02  0.45594000000E+02  0.51100000000E-03 0.  1.
    9900012    2    1    2    0    0  0.99013648089E+01  0.81137384829E+01  0.38591382879E+02  0.50528872983E+02  0.30000039919E+02 0.  0.
        -12    1    1    2    0    0 -0.99013648089E+01 -0.81137384829E+01 -0.38591382879E+02  0.40659127017E+02  0.00000000000E+00 0.  1.
         11    1    3    3    0    0  0.46502905899E+01  0.13133750350E+00  0.34046725768E+02  0.34363090488E+02  0.51100000000E-03 0. -1.
        -11    1    3    3    0    0  0.18348224605E+01 -0.32723915531E+01  0.11412079545E+01  0.39214124744E+01  0.51100000000E-03 0.  1.
        -12    1    3    3    0    0  0.34162517585E+01  0.11254792532E+02  0.34034491565E+01  0.12244370020E+02  0.00000000000E+00 0.  1.
</event>
<event>
 7    1  0.2945316E-011  0.5052887E+02  0.7816164E-02  0.1300439E+00
        -11   -1    0    0    0    0  0.00000000000E+00  0.00000000000E+00  0.45593999997E+02  0.45594000000E+02  0.51100000000E-03 0.  1.
         11   -1    0    0    0    0 -0.00000000000E+00 -0.00000000000E+00 -0.45593999997E+02  0.45594000000E+02  0.51100000000E-03 0. -1.
    9900012    2    1    2    0    0 -0.20540106645E+02  0.25397575350E+02 -0.24212236344E+02  0.50528865683E+02  0.30000017729E+02 0.  0.
        -12    1    1    2    0    0  0.20540106645E+02 -0.25397575350E+02  0.24212236344E+02  0.40659134317E+02  0.00000000000E+00 0.  1.
         11    1    3    3    0    0 -0.97498723120E+01  0.13480563832E+02 -0.10441291114E+01  0.16669607589E+02  0.51100000000E-03 0. -1.
        -11    1    3    3    0    0 -0.74626286932E+01  0.13281249542E+02 -0.60897257935E+01  0.16406315154E+02  0.51100000000E-03 0.  1.
         12    1    3    3    0    0 -0.33276056402E+01 -0.13642380239E+01 -0.17078381439E+02  0.17452942940E+02  0.00000000000E+00 0. -1.
</event>
<event>
 7    1  0.2945316E-011  0.5052887E+02  0.7816164E-02  0.1300439E+00
        -11   -1    0    0    0    0  0.00000000000E+00  0.00000000000E+00  0.45593999997E+02  0.45594000000E+02  0.51100000000E-03 0. -1.
         11   -1    0    0    0    0 -0.00000000000E+00 -0.00000000000E+00 -0.45593999997E+02  0.45594000000E+02  0.51100000000E-03 0.  1.
    9900012    2    1    2    0    0  0.10053818792E+02 -0.38750482128E+01  0.39205478554E+02  0.50528870403E+02  0.30000032077E+02 0.  0.
        -12    1    1    2    0    0 -0.10053818792E+02  0.38750482128E+01 -0.39205478554E+02  0.40659129597E+02  0.00000000000E+00 0.  1.
         11    1    3    3    0    0  0.12214358412E+02  0.51669634528E+00  0.38838322214E+02  0.40716984162E+02  0.51100000000E-03 0. -1.
        -11    1    3    3    0    0  0.30449262216E+01 -0.95455283591E+00  0.14078207333E+01  0.34877939002E+01  0.51100000000E-03 0.  1.
        -12    1    3    3    0    0 -0.52054658413E+01 -0.34371917221E+01 -0.10406643940E+01  0.63240923413E+01  0.00000000000E+00 0.  1.
</event>
<event>
 7    1  0.2945316E-011  0.5052886E+02  0.7816164E-02  0.1300439E+00
        -11   -1    0    0    0    0  0.00000000000E+00  0.00000000000E+00  0.45593999997E+02  0.45594000000E+02  0.51100000000E-03 0.  1.
         11   -1    0    0    0    0 -0.00000000000E+00 -0.00000000000E+00 -0.45593999997E+02  0.45594000000E+02  0.51100000000E-03 0. -1.
    9900012    2    1    2    0    0 -0.15912879055E+02  0.37236050277E+02 -0.36636261291E+01  0.50528864293E+02  0.30000013506E+02 0.  0.
        -12    1    1    2    0    0  0.15912879055E+02 -0.37236050277E+02  0.36636261291E+01  0.40659135707E+02  0.00000000000E+00 0.  1.
         11    1    3    3    0    0 -0.11765341066E+02  0.41318105073E+01 -0.72347503173E+01  0.14416543306E+02  0.51100000000E-03 0. -1.
        -11    1    3    3    0    0 -0.27153014982E+01  0.15970060604E+02 -0.49283142232E+01  0.16932335316E+02  0.51100000000E-03 0.  1.
        -12    1    3    3    0    0 -0.14322364901E+01  0.17134179165E+02  0.84994384113E+01  0.19179985671E+02  0.00000000000E+00 0.  1.
</event>
<event>
 7    1  0.2945316E-011  0.5052891E+02  0.7816164E-02  0.1300439E+00
        -11   -1    0    0    0    0  0.00000000000E+00  0.00000000000E+00  0.45593999997E+02  0.45594000000E+02  0.51100000000E-03 0.  1.
         11   -1    0    0    0    0 -0.00000000000E+00 -0.00000000000E+00 -0.45593999997E+02  0.45594000000E+02  0.51100000000E-03 0. -1.
    9900012    2    1    2    0    0  0.21717238182E+02  0.30308917060E+02  0.16213966501E+02  0.50528910029E+02  0.30000152524E+02 0.  0.
        -12    1    1    2    0    0 -0.21717238182E+02 -0.30308917060E+02 -0.16213966501E+02  0.40659089971E+02  0.00000000000E+00 0.  1.
         11    1    3    3    0    0  0.12144543869E+02  0.10324503643E+02  0.36903478341E+01  0.16361662161E+02  0.51100000000E-03 0. -1.
        -11    1    3    3    0    0  0.17037451404E+02  0.15775202254E+02  0.92210424472E+01  0.24983181954E+02  0.51100000000E-03 0.  1.
        -12    1    3    3    0    0 -0.74647570905E+01  0.42092111626E+01  0.33025762195E+01  0.91840659143E+01  0.00000000000E+00 0.  1.
</event>
<event>
 7    1  0.2945316E-011  0.5052884E+02  0.7816164E-02  0.1300439E+00
        -11   -1    0    0    0    0  0.00000000000E+00  0.00000000000E+00  0.45593999997E+02  0.45594000000E+02  0.51100000000E-03 0.  1.
         11   -1    0    0    0    0 -0.00000000000E+00 -0.00000000000E+00 -0.45593999997E+02  0.45594000000E+02  0.51100000000E-03 0. -1.
    9900012    2    1    2    0    0 -0.13484832269E+02  0.32533974521E+02 -0.20319128928E+02  0.50528841132E+02  0.29999943106E+02 0.  0.
        -12    1    1    2    0    0  0.13484832269E+02 -0.32533974521E+02  0.20319128928E+02  0.40659158868E+02  0.00000000000E+00 0.  1.
         11    1    3    3    0    0 -0.13957786870E+02  0.47880838708E+01 -0.15238622453E+02  0.21212288325E+02  0.51100000000E-03 0. -1.
        -11    1    3    3    0    0  0.34629155747E+01  0.67644088789E+01 -0.23110331795E+01  0.79429142244E+01  0.51100000000E-03 0.  1.
        -12    1    3    3    0    0 -0.29899609729E+01  0.20981481771E+02 -0.27694732956E+01  0.21373638583E+02  0.00000000000E+00 0.  1.
</event>
<event>
 7    1  0.2945316E-011  0.5052887E+02  0.7816164E-02  0.1300439E+00
        -11   -1    0    0    0    0  0.00000000000E+00  0.00000000000E+00  0.45593999997E+02  0.45594000000E+02  0.51100000000E-03 0. -1.
         11   -1    0    0    0    0 -0.00000000000E+00 -0.00000000000E+00 -0.45593999997E+02  0.45594000000E+02  0.51100000000E-03 0.  1.
    9900012    2    1    2    0    0  0.26987840723E+02  0.28306879612E+02 -0.11114936407E+02  0.50528870747E+02  0.30000033124E+02 0.  0.
        -12    1    1    2    0    0 -0.26987840723E+02 -0.28306879612E+02  0.11114936407E+02  0.40659129253E+02  0.00000000000E+00 0.  1.
         11    1    3    3    0    0 -0.19444989314E+01  0.11564293190E+02 -0.28060997051E+01  0.12057700813E+02  0.51100000000E-03 0. -1.
        -11    1    3    3    0    0  0.15792005662E+01  0.56380790353E+01 -0.67118125042E+01  0.89067523256E+01  0.51100000000E-03 0.  1.
        -12    1    3    3    0    0  0.27353139088E+02  0.11104507387E+02 -0.15970241972E+01  0.29564417609E+02  0.00000000000E+00 0.  1.
</event>
<event>
 7    1  0.2945316E-011  0.5052886E+02  0.7816164E-02  0.1300439E+00
        -11   -1    0    0    0    0  0.00000000000E+00  0.00000000000E+00  0.45593999997E+02  0.45594000000E+02  0.51100000000E-03 0.  1.
         11   -1    0    0    0    0 -0.00000000000E+00 -0.00000000000E+00 -0.45593999997E+02  0.45594000000E+02  0.51100000000E-03 0. -1.
    9900012    2    1    2    0    0 -0.39227060617E+02 -0.18926494082E+01 -0.10527158969E+02  0.50528862252E+02  0.30000007302E+02 0.  0.
        -12    1    1    2    0    0  0.39227060617E+02  0.18926494082E+01  0.10527158969E+02  0.40659137748E+02  0.00000000000E+00 0.  1.
         11    1    3    3    0    0 -0.10415985062E+02 -0.90677641760E+01  0.87431049390E+00  0.13837684455E+02  0.51100000000E-03 0. -1.
        -11    1    3    3    0    0 -0.30186766736E+02  0.77867568828E+01 -0.68791919275E+01  0.31924876672E+02  0.51100000000E-03 0.  1.
        -12    1    3    3    0    0  0.13756911814E+01 -0.61164211503E+00 -0.45222775358E+01  0.47663011251E+01  0.00000000000E+00 0.  1.
</event>
<event>
 7    1  0.2945316E-011  0.5052886E+02  0.7816164E-02  0.1300439E+00
        -11   -1    0    0    0    0  0.00000000000E+00  0.00000000000E+00  0.45593999997E+02  0.45594000000E+02  0.51100000000E-03 0.  1.
         11   -1    0    0    0    0 -0.00000000000E+00 -0.00000000000E+00 -0.45593999997E+02  0.45594000000E+02  0.51100000000E-03 0. -1.
    9900012    2    1    2    0    0 -0.27689144269E+02 -0.29728098604E+02 -0.16482714586E+01  0.50528863809E+02  0.30000012034E+02 0.  0.
        -12    1    1    2    0    0  0.27689144269E+02  0.29728098604E+02  0.16482714586E+01  0.40659136191E+02  0.00000000000E+00 0.  1.
         11    1    3    3    0    0 -0.63336001157E+01 -0.97518954737E+01  0.15538735726E+01  0.11731516487E+02  0.51100000000E-03 0. -1.
        -11    1    3    3    0    0 -0.34181540494E+01 -0.20149624801E+02 -0.40672334249E+01  0.20838271155E+02  0.51100000000E-03 0.  1.
        -12    1    3    3    0    0 -0.17937390104E+02  0.17342167047E+00  0.86508839365E+00  0.17959076167E+02  0.00000000000E+00 0.  1.
</event>
<event>
 7    1  0.2945316E-011  0.5052886E+02  0.7816164E-02  0.1300439E+00
        -11   -1    0    0    0    0  0.00000000000E+00  0.00000000000E+00  0.45593999997E+02  0.45594000000E+02  0.51100000000E-03 0. -1.
         11   -1    0    0    0    0 -0.00000000000E+00 -0.00000000000E+00 -0.45593999997E+02  0.45594000000E+02  0.51100000000E-03 0.  1.
    9900012    2    1    2    0    0  0.32384509522E+02  0.21986446358E+02  0.11000230278E+02  0.50528863922E+02  0.30000012377E+02 0.  0.
        -12    1    1    2    0    0 -0.32384509522E+02 -0.21986446358E+02 -0.11000230278E+02  0.40659136078E+02  0.00000000000E+00 0.  1.
         11    1    3    3    0    0  0.28094832127E+02  0.15277628604E+02  0.11523928790E+02  0.33993035508E+02  0.51100000000E-03 0. -1.
        -11    1    3    3    0    0  0.83174511434E+01  0.57324331425E+01 -0.42531888414E+01  0.10960401399E+02  0.51100000000E-03 0.  1.
        -12    1    3    3    0    0 -0.40277737482E+01  0.97638461113E+00  0.37294903294E+01  0.55754270144E+01  0.00000000000E+00 0.  1.
</event>
<event>
 7    1  0.2945316E-011  0.5052885E+02  0.7816164E-02  0.1300439E+00
        -11   -1    0    0    0    0  0.00000000000E+00  0.00000000000E+00  0.45593999997E+02  0.45594000000E+02  0.51100000000E-03 0.  1.
         11   -1    0    0    0    0 -0.00000000000E+00 -0.00000000000E+00 -0.45593999997E+02  0.45594000000E+02  0.51100000000E-03 0. -1.
    9900012    2    1    2    0    0  0.91478612861E+01  0.64655843840E+01 -0.39085540916E+02  0.50528847817E+02  0.29999963424E+02 0.  0.
        -12    1    1    2    0    0 -0.91478612861E+01 -0.64655843840E+01  0.39085540916E+02  0.40659152183E+02  0.00000000000E+00 0.  1.
         11    1    3    3    0    0  0.57014815251E+01  0.14389134776E+02 -0.30218502857E+02  0.33951612721E+02  0.51100000000E-03 0. -1.
        -11    1    3    3    0    0  0.89797021322E+00 -0.77888337702E+00 -0.89126215045E+01  0.89915422571E+01  0.51100000000E-03 0.  1.
        -12    1    3    3    0    0  0.25484095478E+01 -0.71446670154E+01  0.45583445407E-01  0.75856928382E+01  0.00000000000E+00 0.  1.
</event>
<event>
 7    1  0.2945316E-011  0.5052887E+02  0.7816164E-02  0.1300439E+00
        -11   -1    0    0    0    0  0.00000000000E+00  0.00000000000E+00  0.45593999997E+02  0.45594000000E+02  0.51100000000E-03 0. -1.
         11   -1    0    0    0    0 -0.00000000000E+00 -0.00000000000E+00 -0.45593999997E+02  0.45594000000E+02  0.51100000000E-03 0.  1.
    9900012    2    1    2    0    0 -0.10958892646E+02  0.35707048387E+02  0.16064694927E+02  0.50528867500E+02  0.30000023254E+02 0.  0.
        -12    1    1    2    0    0  0.10958892646E+02 -0.35707048387E+02 -0.16064694927E+02  0.40659132500E+02  0.00000000000E+00 0.  1.
         11    1    3    3    0    0 -0.95396688036E+01  0.11659924583E+02  0.12817751623E+02  0.19780138500E+02  0.51100000000E-03 0. -1.
        -11    1    3    3    0    0 -0.84553456326E+01  0.40596552191E+01  0.13133199235E+01  0.94709281355E+01  0.51100000000E-03 0.  1.
         12    1    3    3    0    0  0.70361217898E+01  0.19987468584E+02  0.19336233804E+01  0.21277800865E+02  0.00000000000E+00 0. -1.
</event>
<event>
 7    1  0.2945316E-011  0.5052886E+02  0.7816164E-02  0.1300439E+00
        -11   -1    0    0    0    0  0.00000000000E+00  0.00000000000E+00  0.45593999997E+02  0.45594000000E+02  0.51100000000E-03 0.  1.
         11   -1    0    0    0    0 -0.00000000000E+00 -0.00000000000E+00 -0.45593999997E+02  0.45594000000E+02  0.51100000000E-03 0. -1.
    9900012    2    1    2    0    0 -0.27111781243E+02 -0.17859855625E+02 -0.24477390954E+02  0.50528858432E+02  0.29999995690E+02 0.  0.
        -12    1    1    2    0    0  0.27111781243E+02  0.17859855625E+02  0.24477390954E+02  0.40659141568E+02  0.00000000000E+00 0.  1.
         11    1    3    3    0    0 -0.12712005895E+02 -0.74846783774E+01 -0.21888597625E+02  0.26395571798E+02  0.51100000000E-03 0. -1.
        -11    1    3    3    0    0  0.11197944411E+01 -0.22145876910E+01 -0.57988674344E+01  0.63075511900E+01  0.51100000000E-03 0.  1.
         12    1    3    3    0    0 -0.15519569789E+02 -0.81605895563E+01  0.32100741053E+01  0.17825735444E+02  0.00000000000E+00 0. -1.
</event>
<event>
 7    1  0.2945316E-011  0.5052889E+02  0.7816164E-02  0.1300439E+00
        -11   -1    0    0    0    0  0.00000000000E+00  0.00000000000E+00  0.45593999997E+02  0.45594000000E+02  0.51100000000E-03 0.  1.
         11   -1    0    0    0    0 -0.00000000000E+00 -0.00000000000E+00 -0.45593999997E+02  0.45594000000E+02  0.51100000000E-03 0. -1.
    9900012    2    1    2    0    0 -0.22998137707E+01  0.25189993695E+02 -0.31832971932E+02  0.50528892438E+02  0.30000099055E+02 0.  0.
        -12    1    1    2    0    0  0.22998137707E+01 -0.25189993695E+02  0.31832971932E+02  0.40659107562E+02  0.00000000000E+00 0.  1.
         11    1    3    3    0    0 -0.30514843473E+01  0.17772201254E+02 -0.91782580728E+01  0.20233712354E+02  0.51100000000E-03 0. -1.
        -11    1    3    3    0    0  0.28128902307E-01  0.83775631370E+01 -0.80917198378E+00  0.84165975851E+01  0.51100000000E-03 0.  1.
        -12    1    3    3    0    0  0.72354167429E+00 -0.95977069612E+00 -0.21845541875E+02  0.21878582499E+02  0.00000000000E+00 0.  1.
</event>
<event>
 7    1  0.2945316E-011  0.5052885E+02  0.7816164E-02  0.1300439E+00
        -11   -1    0    0    0    0  0.00000000000E+00  0.00000000000E+00  0.45593999997E+02  0.45594000000E+02  0.51100000000E-03 0.  1.
         11   -1    0    0    0    0 -0.00000000000E+00 -0.00000000000E+00 -0.45593999997E+02  0.45594000000E+02  0.51100000000E-03 0. -1.
    9900012    2    1    2    0    0 -0.14580598040E+02  0.17683964897E+02 -0.33583483284E+02  0.50528846010E+02  0.29999957931E+02 0.  0.
        -12    1    1    2    0    0  0.14580598040E+02 -0.17683964897E+02  0.33583483284E+02  0.40659153990E+02  0.00000000000E+00 0.  1.
         11    1    3    3    0    0 -0.15067328704E+02  0.26091369435E+01 -0.19105018127E+02  0.24471079007E+02  0.51100000000E-03 0. -1.
        -11    1    3    3    0    0 -0.66130244525E+01  0.43243653512E+01 -0.20641139168E+01  0.81665656565E+01  0.51100000000E-03 0.  1.
        -12    1    3    3    0    0  0.70997551163E+01  0.10750462603E+02 -0.12414351241E+02  0.17891201346E+02  0.00000000000E+00 0.  1.
</event>
<event>
 7    1  0.2945316E-011  0.5052885E+02  0.7816164E-02  0.1300439E+00
        -11   -1    0    0    0    0  0.00000000000E+00  0.00000000000E+00  0.45593999997E+02  0.45594000000E+02  0.51100000000E-03 0. -1.
         11   -1    0    0    0    0 -0.00000000000E+00 -0.00000000000E+00 -0.45593999997E+02  0.45594000000E+02  0.51100000000E-03 0.  1.
    9900012    2    1    2    0    0  0.73350769264E+01  0.23575897442E+02  0.32303877485E+02  0.50528846119E+02  0.29999958265E+02 0.  0.
        -12    1    1    2    0    0 -0.73350769264E+01 -0.23575897442E+02 -0.32303877485E+02  0.40659153881E+02  0.00000000000E+00 0.  1.
         11    1    3    3    0    0  0.39949291009E+01 -0.34944706680E+01  0.12233943105E+02  0.13335672009E+02  0.51100000000E-03 0. -1.
        -11    1    3    3    0    0 -0.29065745327E+01  0.13086425753E+01  0.68846211663E+01  0.75867469820E+01  0.51100000000E-03 0.  1.
        -12    1    3    3    0    0  0.62467223582E+01  0.25761725535E+02  0.13185313213E+02  0.29606427128E+02  0.00000000000E+00 0.  1.
</event>
<event>
 7    1  0.2945316E-011  0.5052885E+02  0.7816164E-02  0.1300439E+00
        -11   -1    0    0    0    0  0.00000000000E+00  0.00000000000E+00  0.45593999997E+02  0.45594000000E+02  0.51100000000E-03 0.  1.
         11   -1    0    0    0    0 -0.00000000000E+00 -0.00000000000E+00 -0.45593999997E+02  0.45594000000E+02  0.51100000000E-03 0. -1.
    9900012    2    1    2    0    0  0.30320821303E+02  0.23748635805E+02 -0.13031354954E+02  0.50528854423E+02  0.29999983505E+02 0.  0.
        -12    1    1    2    0    0 -0.30320821303E+02 -0.23748635805E+02  0.13031354954E+02  0.40659145577E+02  0.00000000000E+00 0.  1.
         11    1    3    3    0    0  0.90675145604E+01 -0.23959533962E+01 -0.56766534783E+01  0.10962883195E+02  0.51100000000E-03 0. -1.
        -11    1    3    3    0    0  0.26226098730E+01  0.95034315676E+01 -0.10482695908E+02  0.14390281716E+02  0.51100000000E-03 0.  1.
         12    1    3    3    0    0  0.18630696870E+02  0.16641157634E+02  0.31279944323E+01  0.25175689512E+02  0.00000000000E+00 0. -1.
</event>
<event>
 7    1  0.2945316E-011  0.5052886E+02  0.7816164E-02  0.1300439E+00
        -11   -1    0    0    0    0  0.00000000000E+00  0.00000000000E+00  0.45593999997E+02  0.45594000000E+02  0.51100000000E-03 0.  1.
         11   -1    0    0    0    0 -0.00000000000E+00 -0.00000000000E+00 -0.45593999997E+02  0.45594000000E+02  0.51100000000E-03 0. -1.
    9900012    2    1    2    0    0  0.21408194101E+01 -0.40360050864E+02  0.44326913529E+01  0.50528861223E+02  0.30000004174E+02 0.  0.
        -12    1    1    2    0    0 -0.21408194101E+01  0.40360050864E+02 -0.44326913529E+01  0.40659138777E+02  0.00000000000E+00 0.  1.
         11    1    3    3    0    0  0.83562780887E+01 -0.10831251303E+02  0.15504362655E+00  0.13680914702E+02  0.51100000000E-03 0. -1.
        -11    1    3    3    0    0  0.51556823750E+01 -0.58154672647E+00 -0.10521262131E+01  0.52939802773E+01  0.51100000000E-03 0.  1.
         12    1    3    3    0    0 -0.11371141054E+02 -0.28947252834E+02  0.53297739394E+01  0.31553966244E+02  0.00000000000E+00 0. -1.
</event>
<event>
 7    1  0.2945316E-011  0.5052886E+02  0.7816164E-02  0.1300439E+00
        -11   -1    0    0    0    0  0.00000000000E+00  0.00000000000E+00  0.45593999997E+02  0.45594000000E+02  0.51100000000E-03 0.  1.
         11   -1    0    0    0    0 -0.00000000000E+00 -0.00000000000E+00 -0.45593999997E+02  0.45594000000E+02  0.51100000000E-03 0. -1.
    9900012    2    1    2    0    0  0.23798694475E+02 -0.31541395107E+02 -0.95879160844E+01  0.50528860820E+02  0.30000002948E+02 0.  0.
        -12    1    1    2    0    0 -0.23798694475E+02  0.31541395107E+02  0.95879160844E+01  0.40659139180E+02  0.00000000000E+00 0.  1.
         11    1    3    3    0    0 -0.82195360289E+00 -0.19696096603E+02 -0.51432181148E+01  0.20373132355E+02  0.51100000000E-03 0. -1.
        -11    1    3    3    0    0  0.63832815878E+01 -0.55752380974E+01  0.36664492336E+01  0.92343063582E+01  0.51100000000E-03 0.  1.
        -12    1    3    3    0    0  0.18237366491E+02 -0.62700604065E+01 -0.81111472032E+01  0.20921422107E+02  0.00000000000E+00 0.  1.
</event>
<event>
 7    1  0.2945316E-011  0.5052888E+02  0.7816164E-02  0.1300439E+00
        -11   -1    0    0    0    0  0.00000000000E+00  0.00000000000E+00  0.45593999997E+02  0.45594000000E+02  0.51100000000E-03 0.  1.
         11   -1    0    0    0    0 -0.00000000000E+00 -0.00000000000E+00 -0.45593999997E+02  0.45594000000E+02  0.51100000000E-03 0. -1.
    9900012    2    1    2    0    0 -0.13551760372E+02 -0.17365044197E+02 -0.34175559899E+02  0.50528882159E+02  0.30000067811E+02 0.  0.
        -12    1    1    2    0    0  0.13551760372E+02  0.17365044197E+02  0.34175559899E+02  0.40659117841E+02  0.00000000000E+00 0.  1.
         11    1    3    3    0    0  0.11976050890E+01 -0.38260388445E+01 -0.52893502602E+01  0.66370217435E+01  0.51100000000E-03 0. -1.
        -11    1    3    3    0    0 -0.32652347244E+01 -0.10380748961E+02 -0.30016136988E+02  0.31927890421E+02  0.51100000000E-03 0.  1.
         12    1    3    3    0    0 -0.11484130737E+02 -0.31582563919E+01  0.11299273489E+01  0.11963969995E+02  0.00000000000E+00 0. -1.
</event>
<event>
 7    1  0.2945316E-011  0.5052885E+02  0.7816164E-02  0.1300439E+00
        -11   -1    0    0    0    0  0.00000000000E+00  0.00000000000E+00  0.45593999997E+02  0.45594000000E+02  0.51100000000E-03 0. -1.
         11   -1    0    0    0    0 -0.00000000000E+00 -0.00000000000E+00 -0.45593999997E+02  0.45594000000E+02  0.51100000000E-03 0.  1.
    9900012    2    1    2    0    0 -0.40329190621E+02  0.19908889552E+01 -0.47706311405E+01  0.50528853717E+02  0.29999981357E+02 0.  0.
        -12    1    1    2    0    0  0.40329190621E+02 -0.19908889552E+01  0.47706311405E+01  0.40659146283E+02  0.00000000000E+00 0.  1.
         11    1    3    3    0    0 -0.18050588130E+02 -0.43593901214E+01 -0.75129809582E+01  0.20031797154E+02  0.51100000000E-03 0.  1.
        -11    1    3    3    0    0 -0.16161242824E+02  0.85725856885E+01 -0.63065147377E+01  0.19350636254E+02  0.51100000000E-03 0. -1.
         12    1    3    3    0    0 -0.61173596669E+01 -0.22223066119E+01  0.90488645554E+01  0.11146420309E+02  0.00000000000E+00 0. -1.
</event>
<event>
 7    1  0.2945316E-011  0.5052886E+02  0.7816164E-02  0.1300439E+00
        -11   -1    0    0    0    0  0.00000000000E+00  0.00000000000E+00  0.45593999997E+02  0.45594000000E+02  0.51100000000E-03 0. -1.
         11   -1    0    0    0    0 -0.00000000000E+00 -0.00000000000E+00 -0.45593999997E+02  0.45594000000E+02  0.51100000000E-03 0.  1.
    9900012    2    1    2    0    0 -0.22301294784E+02  0.23990607809E+02 -0.24088766658E+02  0.50528859684E+02  0.29999999496E+02 0.  0.
        -12    1    1    2    0    0  0.22301294784E+02 -0.23990607809E+02  0.24088766658E+02  0.40659140316E+02  0.00000000000E+00 0.  1.
         11    1    3    3    0    0 -0.13718925714E+02  0.40010432493E+01 -0.64697990370E+00  0.14305098849E+02  0.51100000000E-03 0. -1.
        -11    1    3    3    0    0 -0.10574416639E+02  0.38977536599E+01 -0.78956602662E+01  0.13760531318E+02  0.51100000000E-03 0.  1.
         12    1    3    3    0    0  0.19920475689E+01  0.16091810900E+02 -0.15546126488E+02  0.22463229518E+02  0.00000000000E+00 0. -1.
</event>
<event>
 7    1  0.2945316E-011  0.5052886E+02  0.7816164E-02  0.1300439E+00
        -11   -1    0    0    0    0  0.00000000000E+00  0.00000000000E+00  0.45593999997E+02  0.45594000000E+02  0.51100000000E-03 0. -1.
         11   -1    0    0    0    0 -0.00000000000E+00 -0.00000000000E+00 -0.45593999997E+02  0.45594000000E+02  0.51100000000E-03 0.  1.
    9900012    2    1    2    0    0 -0.12860857699E+01 -0.30937393042E+02  0.26351265848E+02  0.50528861831E+02  0.30000006021E+02 0.  0.
        -12    1    1    2    0    0  0.12860857699E+01  0.30937393042E+02 -0.26351265848E+02  0.40659138169E+02  0.00000000000E+00 0.  1.
         11    1    3    3    0    0 -0.18481666212E+01 -0.17460341736E+02  0.16720645932E+02  0.24245809000E+02  0.51100000000E-03 0. -1.
        -11    1    3    3    0    0  0.19739031568E+01 -0.15470137336E+02  0.14206500442E+02  0.21096115707E+02  0.51100000000E-03 0.  1.
        -12    1    3    3    0    0 -0.14118223055E+01  0.19930860303E+01 -0.45758805254E+01  0.51869371241E+01  0.00000000000E+00 0.  1.
</event>
<event>
 7    1  0.2945316E-011  0.5052888E+02  0.7816164E-02  0.1300439E+00
        -11   -1    0    0    0    0  0.00000000000E+00  0.00000000000E+00  0.45593999997E+02  0.45594000000E+02  0.51100000000E-03 0. -1.
         11   -1    0    0    0    0 -0.00000000000E+00 -0.00000000000E+00 -0.45593999997E+02  0.45594000000E+02  0.51100000000E-03 0.  1.
    9900012    2    1    2    0    0 -0.26798631998E+02 -0.11095613135E+01 -0.30557590983E+02  0.50528878392E+02  0.30000056361E+02 0.  0.
        -12    1    1    2    0    0  0.26798631998E+02  0.11095613135E+01  0.30557590983E+02  0.40659121608E+02  0.00000000000E+00 0.  1.
         11    1    3    3    0    0 -0.15925922785E+02  0.70723788610E+01 -0.17794935438E+02  0.24906089352E+02  0.51100000000E-03 0. -1.
        -11    1    3    3    0    0 -0.60414275262E+01  0.39550386903E+01 -0.98932191977E+01  0.12248141245E+02  0.51100000000E-03 0.  1.
        -12    1    3    3    0    0 -0.48312816868E+01 -0.12136978865E+02 -0.28694363466E+01  0.13374647795E+02  0.00000000000E+00 0.  1.
</event>
<event>
 7    1  0.2945316E-011  0.5052886E+02  0.7816164E-02  0.1300439E+00
        -11   -1    0    0    0    0  0.00000000000E+00  0.00000000000E+00  0.45593999997E+02  0.45594000000E+02  0.51100000000E-03 0. -1.
         11   -1    0    0    0    0 -0.00000000000E+00 -0.00000000000E+00 -0.45593999997E+02  0.45594000000E+02  0.51100000000E-03 0.  1.
    9900012    2    1    2    0    0 -0.26813930434E+02  0.14003287734E+00  0.30564017378E+02  0.50528860403E+02  0.30000001680E+02 0.  0.
        -12    1    1    2    0    0  0.26813930434E+02 -0.14003287734E+00 -0.30564017378E+02  0.40659139597E+02  0.00000000000E+00 0.  1.
         11    1    3    3    0    0  0.44113451598E+01 -0.14415825084E+01  0.79564979464E+01  0.92110795285E+01  0.51100000000E-03 0. -1.
        -11    1    3    3    0    0 -0.13646263447E+02  0.50658827736E+01  0.17337757545E+02  0.22638054494E+02  0.51100000000E-03 0.  1.
        -12    1    3    3    0    0 -0.17579012146E+02 -0.34842673878E+01  0.52697618868E+01  0.18679726380E+02  0.00000000000E+00 0.  1.
</event>
<event>
 7    1  0.2945316E-011  0.5052886E+02  0.7816164E-02  0.1300439E+00
        -11   -1    0    0    0    0  0.00000000000E+00  0.00000000000E+00  0.45593999997E+02  0.45594000000E+02  0.51100000000E-03 0.  1.
         11   -1    0    0    0    0 -0.00000000000E+00 -0.00000000000E+00 -0.45593999997E+02  0.45594000000E+02  0.51100000000E-03 0. -1.
    9900012    2    1    2    0    0  0.11840858896E+02  0.16817296297E+02 -0.35073324237E+02  0.50528862440E+02  0.30000007872E+02 0.  0.
        -12    1    1    2    0    0 -0.11840858896E+02 -0.16817296297E+02  0.35073324237E+02  0.40659137560E+02  0.00000000000E+00 0.  1.
         11    1    3    3    0    0  0.65880697978E+01  0.18588214632E+02 -0.82412140108E+01  0.21373862437E+02  0.51100000000E-03 0. -1.
        -11    1    3    3    0    0  0.14330142688E+01  0.18129079058E+01 -0.57605048988E+00  0.23815959770E+01  0.51100000000E-03 0.  1.
        -12    1    3    3    0    0  0.38197748293E+01 -0.35838262408E+01 -0.26256059736E+02  0.26773404026E+02  0.00000000000E+00 0.  1.
</event>
<event>
 7    1  0.2945316E-011  0.5052886E+02  0.7816164E-02  0.1300439E+00
        -11   -1    0    0    0    0  0.00000000000E+00  0.00000000000E+00  0.45593999997E+02  0.45594000000E+02  0.51100000000E-03 0. -1.
         11   -1    0    0    0    0 -0.00000000000E+00 -0.00000000000E+00 -0.45593999997E+02  0.45594000000E+02  0.51100000000E-03 0.  1.
    9900012    2    1    2    0    0  0.27746903449E+02 -0.28212756718E+02  0.93442572024E+01  0.50528862831E+02  0.30000009062E+02 0.  0.
        -12    1    1    2    0    0 -0.27746903449E+02  0.28212756718E+02 -0.93442572024E+01  0.40659137169E+02  0.00000000000E+00 0.  1.
         11    1    3    3    0    0  0.14849157925E+02 -0.13202504054E+02  0.10373809517E+02  0.22414716785E+02  0.51100000000E-03 0. -1.
        -11    1    3    3    0    0  0.50009924732E+01  0.46390665021E+01  0.75156870384E+00  0.68626321121E+01  0.51100000000E-03 0.  1.
        -12    1    3    3    0    0  0.78967530502E+01 -0.19649319166E+02 -0.17811210183E+01  0.21251513934E+02  0.00000000000E+00 0.  1.
</event>
<event>
 7    1  0.2945316E-011  0.5052888E+02  0.7816164E-02  0.1300439E+00
        -11   -1    0    0    0    0  0.00000000000E+00  0.00000000000E+00  0.45593999997E+02  0.45594000000E+02  0.51100000000E-03 0.  1.
         11   -1    0    0    0    0 -0.00000000000E+00 -0.00000000000E+00 -0.45593999997E+02  0.45594000000E+02  0.51100000000E-03 0. -1.
    9900012    2    1    2    0    0  0.13130768236E+02 -0.17381815128E+02 -0.34331030768E+02  0.50528877466E+02  0.30000053545E+02 0.  0.
        -12    1    1    2    0    0 -0.13130768236E+02  0.17381815128E+02  0.34331030768E+02  0.40659122534E+02  0.00000000000E+00 0.  1.
         11    1    3    3    0    0  0.17654302187E+02 -0.11535788457E+02 -0.18836931291E+02  0.28276824110E+02  0.51100000000E-03 0. -1.
        -11    1    3    3    0    0 -0.15555974843E+01 -0.10080674530E+02 -0.72266999358E+01  0.12500602975E+02  0.51100000000E-03 0.  1.
        -12    1    3    3    0    0 -0.29679364663E+01  0.42346478585E+01 -0.82673995417E+01  0.97514503811E+01  0.00000000000E+00 0.  1.
</event>
<event>
 7    1  0.2945316E-011  0.5052886E+02  0.7816164E-02  0.1300439E+00
        -11   -1    0    0    0    0  0.00000000000E+00  0.00000000000E+00  0.45593999997E+02  0.45594000000E+02  0.51100000000E-03 0. -1.
         11   -1    0    0    0    0 -0.00000000000E+00 -0.00000000000E+00 -0.45593999997E+02  0.45594000000E+02  0.51100000000E-03 0.  1.
    9900012    2    1    2    0    0 -0.82110350738E+01 -0.38534442562E+02  0.10041993699E+02  0.50528855911E+02  0.29999988028E+02 0.  0.
        -12    1    1    2    0    0  0.82110350738E+01  0.38534442562E+02 -0.10041993699E+02  0.40659144089E+02  0.00000000000E+00 0.  1.
         11    1    3    3    0    0 -0.29479060262E+01 -0.62456788574E+01 -0.17165113357E+01  0.71165346733E+01  0.51100000000E-03 0.  1.
        -11    1    3    3    0    0  0.76306335792E+01 -0.17750251457E+02 -0.22579138074E+01  0.19452407836E+02  0.51100000000E-03 0. -1.
        -12    1    3    3    0    0 -0.12893762627E+02 -0.14538512248E+02  0.14016418842E+02  0.23959913402E+02  0.00000000000E+00 0.  1.
</event>
<event>
 7    1  0.2945316E-011  0.5052887E+02  0.7816164E-02  0.1300439E+00
        -11   -1    0    0    0    0  0.00000000000E+00  0.00000000000E+00  0.45593999997E+02  0.45594000000E+02  0.51100000000E-03 0.  1.
         11   -1    0    0    0    0 -0.00000000000E+00 -0.00000000000E+00 -0.45593999997E+02  0.45594000000E+02  0.51100000000E-03 0. -1.
    9900012    2    1    2    0    0  0.19452683142E+02  0.11561716387E+02 -0.33779948384E+02  0.50528867200E+02  0.30000022340E+02 0.  0.
        -12    1    1    2    0    0 -0.19452683142E+02 -0.11561716387E+02  0.33779948384E+02  0.40659132800E+02  0.00000000000E+00 0.  1.
         11    1    3    3    0    0  0.21110330099E+01  0.47826577934E+01 -0.55927678411E+00  0.52576674220E+01  0.51100000000E-03 0. -1.
        -11    1    3    3    0    0  0.20406841420E+02 -0.27353309327E+01 -0.20070967266E+02  0.28753520468E+02  0.51100000000E-03 0.  1.
         12    1    3    3    0    0 -0.30651912880E+01  0.95143895265E+01 -0.13149704334E+02  0.16517679309E+02  0.00000000000E+00 0. -1.
</event>
<event>
 7    1  0.2945316E-011  0.5052886E+02  0.7816164E-02  0.1300439E+00
        -11   -1    0    0    0    0  0.00000000000E+00  0.00000000000E+00  0.45593999997E+02  0.45594000000E+02  0.51100000000E-03 0.  1.
         11   -1    0    0    0    0 -0.00000000000E+00 -0.00000000000E+00 -0.45593999997E+02  0.45594000000E+02  0.51100000000E-03 0. -1.
    9900012    2    1    2    0    0 -0.92335088384E+01  0.33093001186E+02 -0.21743081792E+02  0.50528855657E+02  0.29999987254E+02 0.  0.
        -12    1    1    2    0    0  0.92335088384E+01 -0.33093001186E+02  0.21743081792E+02  0.40659144343E+02  0.00000000000E+00 0.  1.
         11    1    3    3    0    0  0.49717360087E+00  0.87307065256E+01 -0.56550319247E+01  0.10414019606E+02  0.51100000000E-03 0. -1.
        -11    1    3    3    0    0 -0.80741524498E+01  0.71485984157E-01 -0.13366423873E+02  0.15615964122E+02  0.51100000000E-03 0.  1.
         12    1    3    3    0    0 -0.16565299894E+01  0.24290808676E+02 -0.27216259939E+01  0.24498871929E+02  0.00000000000E+00 0. -1.
</event>
<event>
 7    1  0.2945316E-011  0.5052886E+02  0.7816164E-02  0.1300439E+00
        -11   -1    0    0    0    0  0.00000000000E+00  0.00000000000E+00  0.45593999997E+02  0.45594000000E+02  0.51100000000E-03 0.  1.
         11   -1    0    0    0    0 -0.00000000000E+00 -0.00000000000E+00 -0.45593999997E+02  0.45594000000E+02  0.51100000000E-03 0. -1.
    9900012    2    1    2    0    0 -0.19491806830E+02  0.18500587086E+02 -0.30511692811E+02  0.50528860139E+02  0.30000000879E+02 0.  0.
        -12    1    1    2    0    0  0.19491806830E+02 -0.18500587086E+02  0.30511692811E+02  0.40659139861E+02  0.00000000000E+00 0.  1.
         11    1    3    3    0    0 -0.52542549637E+01  0.12731369621E+02 -0.15392084920E+02  0.20654569618E+02  0.51100000000E-03 0. -1.
        -11    1    3    3    0    0  0.12459253384E+01  0.77927435733E+01 -0.11327163441E+02  0.13805209677E+02  0.51100000000E-03 0.  1.
        -12    1    3    3    0    0 -0.15483477205E+02 -0.20235261081E+01 -0.37924444497E+01  0.16069080844E+02  0.00000000000E+00 0.  1.
</event>
<event>
 7    1  0.2945316E-011  0.5052890E+02  0.7816164E-02  0.1300439E+00
        -11   -1    0    0    0    0  0.00000000000E+00  0.00000000000E+00  0.45593999997E+02  0.45594000000E+02  0.51100000000E-03 0.  1.
         11   -1    0    0    0    0 -0.00000000000E+00 -0.00000000000E+00 -0.45593999997E+02  0.45594000000E+02  0.51100000000E-03 0. -1.
    9900012    2    1    2    0    0 -0.36863968420E+02 -0.16210575902E+01 -0.17075785455E+02  0.50528899613E+02  0.30000120863E+02 0.  0.
        -12    1    1    2    0    0  0.36863968420E+02  0.16210575902E+01  0.17075785455E+02  0.40659100387E+02  0.00000000000E+00 0.  1.
         11    1    3    3    0    0 -0.76304582945E+01 -0.40118860039E-01 -0.12403287820E+02  0.14562522182E+02  0.51100000000E-03 0. -1.
        -11    1    3    3    0    0 -0.27582616351E+01  0.52164315058E+01  0.41838374208E+01  0.72335095719E+01  0.51100000000E-03 0.  1.
         12    1    3    3    0    0 -0.26475248490E+02 -0.67973702360E+01 -0.88563350563E+01  0.28732867859E+02  0.00000000000E+00 0. -1.
</event>
<event>
 7    1  0.2945316E-011  0.5052886E+02  0.7816164E-02  0.1300439E+00
        -11   -1    0    0    0    0  0.00000000000E+00  0.00000000000E+00  0.45593999997E+02  0.45594000000E+02  0.51100000000E-03 0.  1.
         11   -1    0    0    0    0 -0.00000000000E+00 -0.00000000000E+00 -0.45593999997E+02  0.45594000000E+02  0.51100000000E-03 0. -1.
    9900012    2    1    2    0    0 -0.12985733845E+02  0.36523095349E+02 -0.12271915952E+02  0.50528859595E+02  0.29999999224E+02 0.  0.
        -12    1    1    2    0    0  0.12985733845E+02 -0.36523095349E+02  0.12271915952E+02  0.40659140405E+02  0.00000000000E+00 0.  1.
         11    1    3    3    0    0 -0.13837216414E+02  0.17887480457E+02  0.31872134400E+01  0.22838319661E+02  0.51100000000E-03 0. -1.
        -11    1    3    3    0    0 -0.36391548126E+01  0.18241911521E+00 -0.88084762186E+00  0.37486820721E+01  0.51100000000E-03 0.  1.
        -12    1    3    3    0    0  0.44906373812E+01  0.18453195777E+02 -0.14578281770E+02  0.23941857861E+02  0.00000000000E+00 0.  1.
</event>
<event>
 7    1  0.2945316E-011  0.5052886E+02  0.7816164E-02  0.1300439E+00
        -11   -1    0    0    0    0  0.00000000000E+00  0.00000000000E+00  0.45593999997E+02  0.45594000000E+02  0.51100000000E-03 0.  1.
         11   -1    0    0    0    0 -0.00000000000E+00 -0.00000000000E+00 -0.45593999997E+02  0.45594000000E+02  0.51100000000E-03 0. -1.
    9900012    2    1    2    0    0  0.32271020839E+02  0.12507129364E+02 -0.21338197087E+02  0.50528859259E+02  0.29999998203E+02 0.  0.
        -12    1    1    2    0    0 -0.32271020839E+02 -0.12507129364E+02  0.21338197087E+02  0.40659140741E+02  0.00000000000E+00 0.  1.
         11    1    3    3    0    0  0.73983685440E+01 -0.60068498145E+00 -0.47584071183E+01  0.88169789681E+01  0.51100000000E-03 0. -1.
        -11    1    3    3    0    0  0.22945721358E+02 -0.15198599926E+01 -0.13412721593E+02  0.26621743065E+02  0.51100000000E-03 0.  1.
         12    1    3    3    0    0  0.19269309368E+01  0.14627674338E+02 -0.31670683749E+01  0.15090137225E+02  0.00000000000E+00 0. -1.
</event>
<event>
 7    1  0.2945316E-011  0.5052887E+02  0.7816164E-02  0.1300439E+00
        -11   -1    0    0    0    0  0.00000000000E+00  0.00000000000E+00  0.45593999997E+02  0.45594000000E+02  0.51100000000E-03 0.  1.
         11   -1    0    0    0    0 -0.00000000000E+00 -0.00000000000E+00 -0.45593999997E+02  0.45594000000E+02  0.51100000000E-03 0. -1.
    9900012    2    1    2    0    0 -0.55060587811E+01  0.91706454052E+01 -0.39226875198E+02  0.50528866238E+02  0.30000019418E+02 0.  0.
        -12    1    1    2    0    0  0.55060587811E+01 -0.91706454052E+01  0.39226875198E+02  0.40659133762E+02  0.00000000000E+00 0.  1.
         11    1    3    3    0    0 -0.41779412268E+01 -0.19704044764E+01 -0.11751826596E+02  0.12627078653E+02  0.51100000000E-03 0. -1.
        -11    1    3    3    0    0 -0.42106975088E+01  0.47255715197E+01  0.27268253318E+01  0.68917759939E+01  0.51100000000E-03 0.  1.
         12    1    3    3    0    0  0.28825799546E+01  0.64154783619E+01 -0.30201873934E+02  0.31010011592E+02  0.00000000000E+00 0. -1.
</event>
<event>
 7    1  0.2945316E-011  0.5052886E+02  0.7816164E-02  0.1300439E+00
        -11   -1    0    0    0    0  0.00000000000E+00  0.00000000000E+00  0.45593999997E+02  0.45594000000E+02  0.51100000000E-03 0. -1.
         11   -1    0    0    0    0 -0.00000000000E+00 -0.00000000000E+00 -0.45593999997E+02  0.45594000000E+02  0.51100000000E-03 0.  1.
    9900012    2    1    2    0    0 -0.13941533250E+02 -0.38189455076E+02 -0.60403541881E+00  0.50528859734E+02  0.29999999648E+02 0.  0.
        -12    1    1    2    0    0  0.13941533250E+02  0.38189455076E+02  0.60403541881E+00  0.40659140266E+02  0.00000000000E+00 0.  1.
         11    1    3    3    0    0 -0.99513877860E+01 -0.31681644714E+02 -0.96223752636E+01  0.34573788289E+02  0.51100000000E-03 0. -1.
        -11    1    3    3    0    0 -0.27962636571E+01 -0.89957296918E+01  0.40130429050E+01  0.10239470531E+02  0.51100000000E-03 0.  1.
        -12    1    3    3    0    0 -0.11938818070E+01  0.24879193298E+01  0.50052969398E+01  0.57156009147E+01  0.00000000000E+00 0.  1.
</event>
<event>
 7    1  0.2945316E-011  0.5052885E+02  0.7816164E-02  0.1300439E+00
        -11   -1    0    0    0    0  0.00000000000E+00  0.00000000000E+00  0.45593999997E+02  0.45594000000E+02  0.51100000000E-03 0.  1.
         11   -1    0    0    0    0 -0.00000000000E+00 -0.00000000000E+00 -0.45593999997E+02  0.45594000000E+02  0.51100000000E-03 0. -1.
    9900012    2    1    2    0    0  0.31041398344E+02  0.21204063526E+02 -0.15491466157E+02  0.50528852875E+02  0.29999978800E+02 0.  0.
        -12    1    1    2    0    0 -0.31041398344E+02 -0.21204063526E+02  0.15491466157E+02  0.40659147125E+02  0.00000000000E+00 0.  1.
         11    1    3    3    0    0 -0.22492606074E+01  0.86299478089E-01  0.14174483575E+01  0.26600340199E+01  0.51100000000E-03 0.  1.
        -11    1    3    3    0    0  0.21082652859E+02  0.11390583263E+02  0.11602588037E+01  0.23991036647E+02  0.51100000000E-03 0. -1.
         12    1    3    3    0    0  0.12208006092E+02  0.97271807854E+01 -0.18069173318E+02  0.23877782208E+02  0.00000000000E+00 0. -1.
</event>
<event>
 7    1  0.2945316E-011  0.5052887E+02  0.7816164E-02  0.1300439E+00
        -11   -1    0    0    0    0  0.00000000000E+00  0.00000000000E+00  0.45593999997E+02  0.45594000000E+02  0.51100000000E-03 0.  1.
         11   -1    0    0    0    0 -0.00000000000E+00 -0.00000000000E+00 -0.45593999997E+02  0.45594000000E+02  0.51100000000E-03 0. -1.
    9900012    2    1    2    0    0 -0.31751335806E+02  0.22295377117E+02 -0.12162814295E+02  0.50528865506E+02  0.30000017193E+02 0.  0.
        -12    1    1    2    0    0  0.31751335806E+02 -0.22295377117E+02  0.12162814295E+02  0.40659134494E+02  0.00000000000E+00 0.  1.
         11    1    3    3    0    0 -0.54915709696E+01  0.10069093884E+02 -0.66847340216E+01  0.13275152449E+02  0.51100000000E-03 0.  1.
        -11    1    3    3    0    0 -0.49817064821E+01  0.89509928746E+01 -0.10996881947E+02  0.15028941604E+02  0.51100000000E-03 0. -1.
        -12    1    3    3    0    0 -0.21278058354E+02  0.32752903584E+01  0.55188016733E+01  0.22224771453E+02  0.00000000000E+00 0.  1.
</event>
<event>
 7    1  0.2945316E-011  0.5052886E+02  0.7816164E-02  0.1300439E+00
        -11   -1    0    0    0    0  0.00000000000E+00  0.00000000000E+00  0.45593999997E+02  0.45594000000E+02  0.51100000000E-03 0. -1.
         11   -1    0    0    0    0 -0.00000000000E+00 -0.00000000000E+00 -0.45593999997E+02  0.45594000000E+02  0.51100000000E-03 0.  1.
    9900012    2    1    2    0    0 -0.38303047414E+02  0.11414354127E+02  0.74669136766E+01  0.50528859315E+02  0.29999998375E+02 0.  0.
        -12    1    1    2    0    0  0.38303047414E+02 -0.11414354127E+02 -0.74669136766E+01  0.40659140685E+02  0.00000000000E+00 0.  1.
         11    1    3    3    0    0 -0.14278118408E+02  0.43821310475E+01 -0.94182962781E+01  0.17657067787E+02  0.51100000000E-03 0. -1.
        -11    1    3    3    0    0  0.60079570751E+00 -0.97231442305E+00 -0.90290951688E+00  0.14565701755E+01  0.51100000000E-03 0.  1.
         12    1    3    3    0    0 -0.24625724714E+02  0.80045375021E+01  0.17788119472E+02  0.31415221353E+02  0.00000000000E+00 0. -1.
</event>
<event>
 7    1  0.2945316E-011  0.5052886E+02  0.7816164E-02  0.1300439E+00
        -11   -1    0    0    0    0  0.00000000000E+00  0.00000000000E+00  0.45593999997E+02  0.45594000000E+02  0.51100000000E-03 0.  1.
         11   -1    0    0    0    0 -0.00000000000E+00 -0.00000000000E+00 -0.45593999997E+02  0.45594000000E+02  0.51100000000E-03 0. -1.
    9900012    2    1    2    0    0  0.12428639611E+02 -0.33984651639E+02  0.18540167446E+02  0.50528862792E+02  0.30000008941E+02 0.  0.
        -12    1    1    2    0    0 -0.12428639611E+02  0.33984651639E+02 -0.18540167446E+02  0.40659137208E+02  0.00000000000E+00 0.  1.
         11    1    3    3    0    0  0.14316869604E+02 -0.95851297273E+01  0.92788455701E+01  0.19568966312E+02  0.51100000000E-03 0. -1.
        -11    1    3    3    0    0  0.10456489089E+01  0.28193632744E+00  0.57580384766E+01  0.58589996665E+01  0.51100000000E-03 0.  1.
         12    1    3    3    0    0 -0.29338789026E+01 -0.24681458239E+02  0.35032833993E+01  0.25100896813E+02  0.00000000000E+00 0. -1.
</event>
<event>
 7    1  0.2945316E-011  0.5052886E+02  0.7816164E-02  0.1300439E+00
        -11   -1    0    0    0    0  0.00000000000E+00  0.00000000000E+00  0.45593999997E+02  0.45594000000E+02  0.51100000000E-03 0.  1.
         11   -1    0    0    0    0 -0.00000000000E+00 -0.00000000000E+00 -0.45593999997E+02  0.45594000000E+02  0.51100000000E-03 0. -1.
    9900012    2    1    2    0    0  0.31125763757E+02  0.11508199120E+02 -0.23492851869E+02  0.50528857050E+02  0.29999991490E+02 0.  0.
        -12    1    1    2    0    0 -0.31125763757E+02 -0.11508199120E+02  0.23492851869E+02  0.40659142950E+02  0.00000000000E+00 0.  1.
         11    1    3    3    0    0  0.37241928747E+01 -0.46651062363E+01 -0.95538965430E+01  0.11265423569E+02  0.51100000000E-03 0. -1.
        -11    1    3    3    0    0 -0.20020578469E+01 -0.62975078106E+00  0.90674635912E+00  0.22862657085E+01  0.51100000000E-03 0.  1.
         12    1    3    3    0    0  0.29403628729E+02  0.16803056137E+02 -0.14845701685E+02  0.36977167773E+02  0.00000000000E+00 0. -1.
</event>
<event>
 7    1  0.2945316E-011  0.5052887E+02  0.7816164E-02  0.1300439E+00
        -11   -1    0    0    0    0  0.00000000000E+00  0.00000000000E+00  0.45593999997E+02  0.45594000000E+02  0.51100000000E-03 0. -1.
         11   -1    0    0    0    0 -0.00000000000E+00 -0.00000000000E+00 -0.45593999997E+02  0.45594000000E+02  0.51100000000E-03 0.  1.
    9900012    2    1    2    0    0  0.24310758603E+02  0.32218919856E+02 -0.49084503556E+01  0.50528872299E+02  0.30000037839E+02 0.  0.
        -12    1    1    2    0    0 -0.24310758603E+02 -0.32218919856E+02  0.49084503556E+01  0.40659127701E+02  0.00000000000E+00 0.  1.
         11    1    3    3    0    0  0.42304470827E-01  0.51526239519E+01  0.24923265670E+01  0.57238986046E+01  0.51100000000E-03 0. -1.
        -11    1    3    3    0    0  0.23653704941E+02  0.87375031293E+01 -0.53128317949E+00  0.25221498378E+02  0.51100000000E-03 0.  1.
         12    1    3    3    0    0  0.61474919081E+00  0.18328792775E+02 -0.68694937431E+01  0.19583475316E+02  0.00000000000E+00 0. -1.
</event>
<event>
 7    1  0.2945316E-011  0.5052885E+02  0.7816164E-02  0.1300439E+00
        -11   -1    0    0    0    0  0.00000000000E+00  0.00000000000E+00  0.45593999997E+02  0.45594000000E+02  0.51100000000E-03 0.  1.
         11   -1    0    0    0    0 -0.00000000000E+00 -0.00000000000E+00 -0.45593999997E+02  0.45594000000E+02  0.51100000000E-03 0. -1.
    9900012    2    1    2    0    0  0.29117266429E+02 -0.33737148710E+01 -0.28177459704E+02  0.50528851070E+02  0.29999973312E+02 0.  0.
        -12    1    1    2    0    0 -0.29117266429E+02  0.33737148710E+01  0.28177459704E+02  0.40659148930E+02  0.00000000000E+00 0.  1.
         11    1    3    3    0    0  0.14261561577E+02 -0.12005027014E+02 -0.15491466337E+02  0.24238365080E+02  0.51100000000E-03 0. -1.
        -11    1    3    3    0    0  0.19146086572E+01  0.91030633996E+00 -0.10913187076E+02  0.11117195526E+02  0.51100000000E-03 0.  1.
        -12    1    3    3    0    0  0.12941096195E+02  0.77210058034E+01 -0.17728062910E+01  0.15173290463E+02  0.00000000000E+00 0.  1.
</event>
<event>
 7    1  0.2945316E-011  0.5052886E+02  0.7816164E-02  0.1300439E+00
        -11   -1    0    0    0    0  0.00000000000E+00  0.00000000000E+00  0.45593999997E+02  0.45594000000E+02  0.51100000000E-03 0.  1.
         11   -1    0    0    0    0 -0.00000000000E+00 -0.00000000000E+00 -0.45593999997E+02  0.45594000000E+02  0.51100000000E-03 0. -1.
    9900012    2    1    2    0    0 -0.28937466047E+01  0.52719701638E+01 -0.40211915134E+02  0.50528861327E+02  0.30000004491E+02 0.  0.
        -12    1    1    2    0    0  0.28937466047E+01 -0.52719701638E+01  0.40211915134E+02  0.40659138673E+02  0.00000000000E+00 0.  1.
         11    1    3    3    0    0  0.10653983708E+00  0.16097422976E+02 -0.16143655555E+02  0.22798157648E+02  0.51100000000E-03 0. -1.
        -11    1    3    3    0    0  0.15558457978E+01 -0.92247893398E+00 -0.68994911193E+00  0.19358857323E+01  0.51100000000E-03 0.  1.
         12    1    3    3    0    0 -0.45561322396E+01 -0.99029738781E+01 -0.23378310468E+02  0.25794817947E+02  0.00000000000E+00 0. -1.
</event>
<event>
 7    1  0.2945316E-011  0.5052886E+02  0.7816164E-02  0.1300439E+00
        -11   -1    0    0    0    0  0.00000000000E+00  0.00000000000E+00  0.45593999997E+02  0.45594000000E+02  0.51100000000E-03 0.  1.
         11   -1    0    0    0    0 -0.00000000000E+00 -0.00000000000E+00 -0.45593999997E+02  0.45594000000E+02  0.51100000000E-03 0. -1.
    9900012    2    1    2    0    0 -0.94537352949E+01 -0.30731844164E+02  0.24886667723E+02  0.50528860965E+02  0.30000003388E+02 0.  0.
        -12    1    1    2    0    0  0.94537352949E+01  0.30731844164E+02 -0.24886667723E+02  0.40659139035E+02  0.00000000000E+00 0.  1.
         11    1    3    3    0    0 -0.13300785912E+02 -0.14354406819E+02  0.77880157868E+01  0.21062124564E+02  0.51100000000E-03 0. -1.
        -11    1    3    3    0    0  0.32516535917E+01 -0.19960952211E+02  0.13269851968E+02  0.24188878349E+02  0.51100000000E-03 0.  1.
        -12    1    3    3    0    0  0.59539702490E+00  0.35835148666E+01  0.38287999681E+01  0.52778580515E+01  0.00000000000E+00 0.  1.
</event>
<event>
 7    1  0.2945316E-011  0.5052884E+02  0.7816164E-02  0.1300439E+00
        -11   -1    0    0    0    0  0.00000000000E+00  0.00000000000E+00  0.45593999997E+02  0.45594000000E+02  0.51100000000E-03 0.  1.
         11   -1    0    0    0    0 -0.00000000000E+00 -0.00000000000E+00 -0.45593999997E+02  0.45594000000E+02  0.51100000000E-03 0. -1.
    9900012    2    1    2    0    0 -0.31322625587E+02  0.14751935557E+02 -0.21317614355E+02  0.50528841645E+02  0.29999944663E+02 0.  0.
        -12    1    1    2    0    0  0.31322625587E+02 -0.14751935557E+02  0.21317614355E+02  0.40659158355E+02  0.00000000000E+00 0.  1.
         11    1    3    3    0    0 -0.13733176771E+02  0.23939899932E+01 -0.18105391801E+02  0.22850307325E+02  0.51100000000E-03 0. -1.
        -11    1    3    3    0    0  0.30231542636E+00  0.35689086085E+01 -0.65516816073E+01  0.74667955253E+01  0.51100000000E-03 0.  1.
        -12    1    3    3    0    0 -0.17891764242E+02  0.87890369557E+01  0.33394590532E+01  0.20211738794E+02  0.00000000000E+00 0.  1.
</event>
<event>
 7    1  0.2945316E-011  0.5052887E+02  0.7816164E-02  0.1300439E+00
        -11   -1    0    0    0    0  0.00000000000E+00  0.00000000000E+00  0.45593999997E+02  0.45594000000E+02  0.51100000000E-03 0.  1.
         11   -1    0    0    0    0 -0.00000000000E+00 -0.00000000000E+00 -0.45593999997E+02  0.45594000000E+02  0.51100000000E-03 0. -1.
    9900012    2    1    2    0    0 -0.37209481337E+02  0.50588580641E+01  0.15589328228E+02  0.50528871863E+02  0.30000036514E+02 0.  0.
        -12    1    1    2    0    0  0.37209481337E+02 -0.50588580641E+01 -0.15589328228E+02  0.40659128137E+02  0.00000000000E+00 0.  1.
         11    1    3    3    0    0 -0.25418232721E+02  0.68394892663E+01  0.80980692956E+01  0.27539860106E+02  0.51100000000E-03 0. -1.
        -11    1    3    3    0    0 -0.77619684102E+01  0.79639310768E+01  0.47571872686E+01  0.12095585259E+02  0.51100000000E-03 0.  1.
        -12    1    3    3    0    0 -0.40292802056E+01 -0.97445622790E+01  0.27340716633E+01  0.10893426497E+02  0.00000000000E+00 0.  1.
</event>
<event>
 7    1  0.2945316E-011  0.5052886E+02  0.7816164E-02  0.1300439E+00
        -11   -1    0    0    0    0  0.00000000000E+00  0.00000000000E+00  0.45593999997E+02  0.45594000000E+02  0.51100000000E-03 0.  1.
         11   -1    0    0    0    0 -0.00000000000E+00 -0.00000000000E+00 -0.45593999997E+02  0.45594000000E+02  0.51100000000E-03 0. -1.
    9900012    2    1    2    0    0  0.60799173918E+00  0.32945286910E+02  0.23820241604E+02  0.50528862114E+02  0.30000006882E+02 0.  0.
        -12    1    1    2    0    0 -0.60799173918E+00 -0.32945286910E+02 -0.23820241604E+02  0.40659137886E+02  0.00000000000E+00 0.  1.
         11    1    3    3    0    0 -0.57212103324E+01  0.16022521688E+02  0.10532241582E+02  0.20009536774E+02  0.51100000000E-03 0. -1.
        -11    1    3    3    0    0 -0.35317898017E+01  0.16297021922E+02  0.44409303032E+01  0.17256544409E+02  0.51100000000E-03 0.  1.
        -12    1    3    3    0    0  0.98609918733E+01  0.62574329992E+00  0.88470697190E+01  0.13262780931E+02  0.00000000000E+00 0.  1.
</event>
<event>
 7    1  0.2945316E-011  0.5052886E+02  0.7816164E-02  0.1300439E+00
        -11   -1    0    0    0    0  0.00000000000E+00  0.00000000000E+00  0.45593999997E+02  0.45594000000E+02  0.51100000000E-03 0. -1.
         11   -1    0    0    0    0 -0.00000000000E+00 -0.00000000000E+00 -0.45593999997E+02  0.45594000000E+02  0.51100000000E-03 0.  1.
    9900012    2    1    2    0    0  0.13031068481E+01  0.39723502315E+02  0.85738603493E+01  0.50528858286E+02  0.29999995247E+02 0.  0.
        -12    1    1    2    0    0 -0.13031068481E+01 -0.39723502315E+02 -0.85738603493E+01  0.40659141714E+02  0.00000000000E+00 0.  1.
         11    1    3    3    0    0 -0.32414432895E+01  0.83701243579E+01  0.44759319234E+01  0.10029950309E+02  0.51100000000E-03 0.  1.
        -11    1    3    3    0    0  0.17921510568E+01  0.19809900986E+02  0.14582578014E+02  0.24663648640E+02  0.51100000000E-03 0. -1.
        -12    1    3    3    0    0  0.27523990808E+01  0.11543476971E+02 -0.10484649588E+02  0.15835259337E+02  0.00000000000E+00 0.  1.
</event>
<event>
 7    1  0.2945316E-011  0.5052890E+02  0.7816164E-02  0.1300439E+00
        -11   -1    0    0    0    0  0.00000000000E+00  0.00000000000E+00  0.45593999997E+02  0.45594000000E+02  0.51100000000E-03 0.  1.
         11   -1    0    0    0    0 -0.00000000000E+00 -0.00000000000E+00 -0.45593999997E+02  0.45594000000E+02  0.51100000000E-03 0. -1.
    9900012    2    1    2    0    0  0.25896200975E+02 -0.17557836403E+02 -0.25966737307E+02  0.50528901505E+02  0.30000126613E+02 0.  0.
        -12    1    1    2    0    0 -0.25896200975E+02  0.17557836403E+02  0.25966737307E+02  0.40659098495E+02  0.00000000000E+00 0.  1.
         11    1    3    3    0    0  0.14575369548E+02 -0.89492510673E+01 -0.82017993460E+01  0.18968394895E+02  0.51100000000E-03 0. -1.
        -11    1    3    3    0    0  0.69906521841E+01 -0.11519845482E+02 -0.45657481491E+00  0.13482748930E+02  0.51100000000E-03 0.  1.
        -12    1    3    3    0    0  0.43301792421E+01  0.29112601458E+01 -0.17308363146E+02  0.18077757679E+02  0.00000000000E+00 0.  1.
</event>
<event>
 7    1  0.2945316E-011  0.5052886E+02  0.7816164E-02  0.1300439E+00
        -11   -1    0    0    0    0  0.00000000000E+00  0.00000000000E+00  0.45593999997E+02  0.45594000000E+02  0.51100000000E-03 0.  1.
         11   -1    0    0    0    0 -0.00000000000E+00 -0.00000000000E+00 -0.45593999997E+02  0.45594000000E+02  0.51100000000E-03 0. -1.
    9900012    2    1    2    0    0  0.25497864860E+02 -0.68443880656E+01 -0.30922141961E+02  0.50528860512E+02  0.30000002014E+02 0.  0.
        -12    1    1    2    0    0 -0.25497864860E+02  0.68443880656E+01  0.30922141961E+02  0.40659139488E+02  0.00000000000E+00 0.  1.
         11    1    3    3    0    0  0.12847340203E+02 -0.34062403453E+01 -0.21786357705E+02  0.25520619230E+02  0.51100000000E-03 0. -1.
        -11    1    3    3    0    0  0.58002027672E+01  0.74178755624E+01 -0.75591716039E+01  0.12075110997E+02  0.51100000000E-03 0.  1.
         12    1    3    3    0    0  0.68503218897E+01 -0.10856023283E+02 -0.15766126518E+01  0.12933130285E+02  0.00000000000E+00 0. -1.
</event>
<event>
 7    1  0.2945316E-011  0.5052886E+02  0.7816164E-02  0.1300439E+00
        -11   -1    0    0    0    0  0.00000000000E+00  0.00000000000E+00  0.45593999997E+02  0.45594000000E+02  0.51100000000E-03 0. -1.
         11   -1    0    0    0    0 -0.00000000000E+00 -0.00000000000E+00 -0.45593999997E+02  0.45594000000E+02  0.51100000000E-03 0.  1.
    9900012    2    1    2    0    0 -0.31198347502E+01 -0.97844690140E+01  0.39340771122E+02  0.50528862340E+02  0.30000007570E+02 0.  0.
        -12    1    1    2    0    0  0.31198347502E+01  0.97844690140E+01 -0.39340771122E+02  0.40659137660E+02  0.00000000000E+00 0.  1.
         11    1    3    3    0    0  0.19608420513E+01 -0.30868792899E+01  0.55678519723E+01  0.66614338657E+01  0.51100000000E-03 0. -1.
        -11    1    3    3    0    0 -0.91557872906E+01 -0.12434409204E+02  0.84861839182E+01  0.17619826643E+02  0.51100000000E-03 0.  1.
         12    1    3    3    0    0  0.40751104891E+01  0.57368194804E+01  0.25286735231E+02  0.26247601832E+02  0.00000000000E+00 0. -1.
</event>
<event>
 7    1  0.2945316E-011  0.5052886E+02  0.7816164E-02  0.1300439E+00
        -11   -1    0    0    0    0  0.00000000000E+00  0.00000000000E+00  0.45593999997E+02  0.45594000000E+02  0.51100000000E-03 0.  1.
         11   -1    0    0    0    0 -0.00000000000E+00 -0.00000000000E+00 -0.45593999997E+02  0.45594000000E+02  0.51100000000E-03 0. -1.
    9900012    2    1    2    0    0  0.21314059300E+02 -0.31645303167E+02 -0.14051739367E+02  0.50528859384E+02  0.29999998585E+02 0.  0.
        -12    1    1    2    0    0 -0.21314059300E+02  0.31645303167E+02  0.14051739367E+02  0.40659140616E+02  0.00000000000E+00 0.  1.
         11    1    3    3    0    0  0.50584492453E+01 -0.20302625612E+02 -0.12450442033E+02  0.24347443861E+02  0.51100000000E-03 0. -1.
        -11    1    3    3    0    0  0.22588434701E+01 -0.92013022748E+01 -0.61659530822E+01  0.11304216693E+02  0.51100000000E-03 0.  1.
         12    1    3    3    0    0  0.13996766585E+02 -0.21413752801E+01  0.45646557487E+01  0.14877198830E+02  0.00000000000E+00 0. -1.
</event>
<event>
 7    1  0.2945316E-011  0.5052882E+02  0.7816164E-02  0.1300439E+00
        -11   -1    0    0    0    0  0.00000000000E+00  0.00000000000E+00  0.45593999997E+02  0.45594000000E+02  0.51100000000E-03 0.  1.
         11   -1    0    0    0    0 -0.00000000000E+00 -0.00000000000E+00 -0.45593999997E+02  0.45594000000E+02  0.51100000000E-03 0. -1.
    9900012    2    1    2    0    0 -0.22952082506E+02  0.33516714520E+02 -0.17321357952E+01  0.50528824676E+02  0.29999893086E+02 0.  0.
        -12    1    1    2    0    0  0.22952082506E+02 -0.33516714520E+02  0.17321357952E+01  0.40659175324E+02  0.00000000000E+00 0.  1.
         11    1    3    3    0    0 -0.13379765200E+02  0.66135469504E+01  0.13646225538E+01  0.14987305129E+02  0.51100000000E-03 0. -1.
        -11    1    3    3    0    0 -0.14965496295E+02  0.19033684548E+02  0.27248284202E+01  0.24365383580E+02  0.51100000000E-03 0.  1.
        -12    1    3    3    0    0  0.53931789891E+01  0.78694830219E+01 -0.58215867692E+01  0.11176135967E+02  0.00000000000E+00 0.  1.
</event>
<event>
 7    1  0.2945316E-011  0.5052885E+02  0.7816164E-02  0.1300439E+00
        -11   -1    0    0    0    0  0.00000000000E+00  0.00000000000E+00  0.45593999997E+02  0.45594000000E+02  0.51100000000E-03 0.  1.
         11   -1    0    0    0    0 -0.00000000000E+00 -0.00000000000E+00 -0.45593999997E+02  0.45594000000E+02  0.51100000000E-03 0. -1.
    9900012    2    1    2    0    0  0.30844371036E+02 -0.87627265989E+01 -0.25000111738E+02  0.50528853563E+02  0.29999980891E+02 0.  0.
        -12    1    1    2    0    0 -0.30844371036E+02  0.87627265989E+01  0.25000111738E+02  0.40659146437E+02  0.00000000000E+00 0.  1.
         11    1    3    3    0    0  0.13153356858E+02 -0.53161111587E+01 -0.23774603012E+02  0.27685801110E+02  0.51100000000E-03 0. -1.
        -11    1    3    3    0    0  0.10379176604E+01 -0.29273355411E+01 -0.48811658309E+01  0.57855290657E+01  0.51100000000E-03 0.  1.
        -12    1    3    3    0    0  0.16653096518E+02 -0.51927989912E+00  0.36556571050E+01  0.17057523387E+02  0.00000000000E+00 0.  1.
</event>
<event>
 7    1  0.2945316E-011  0.5052888E+02  0.7816164E-02  0.1300439E+00
        -11   -1    0    0    0    0  0.00000000000E+00  0.00000000000E+00  0.45593999997E+02  0.45594000000E+02  0.51100000000E-03 0.  1.
         11   -1    0    0    0    0 -0.00000000000E+00 -0.00000000000E+00 -0.45593999997E+02  0.45594000000E+02  0.51100000000E-03 0. -1.
    9900012    2    1    2    0    0 -0.38862773596E+02 -0.23981219665E-01 -0.11951923856E+02  0.50528877646E+02  0.30000054094E+02 0.  0.
        -12    1    1    2    0    0  0.38862773596E+02  0.23981219665E-01  0.11951923856E+02  0.40659122354E+02  0.00000000000E+00 0.  1.
         11    1    3    3    0    0 -0.17671855149E+02 -0.75167246041E+01 -0.21510039055E+01  0.19324141151E+02  0.51100000000E-03 0. -1.
        -11    1    3    3    0    0 -0.14422415706E+02  0.16189978882E+00  0.32418609499E+01  0.14783164378E+02  0.51100000000E-03 0.  1.
        -12    1    3    3    0    0 -0.67685027417E+01  0.73308435956E+01 -0.13042780900E+02  0.16421572117E+02  0.00000000000E+00 0.  1.
</event>
<event>
 7    1  0.2945316E-011  0.5052884E+02  0.7816164E-02  0.1300439E+00
        -11   -1    0    0    0    0  0.00000000000E+00  0.00000000000E+00  0.45593999997E+02  0.45594000000E+02  0.51100000000E-03 0.  1.
         11   -1    0    0    0    0 -0.00000000000E+00 -0.00000000000E+00 -0.45593999997E+02  0.45594000000E+02  0.51100000000E-03 0. -1.
    9900012    2    1    2    0    0 -0.17934543406E+02  0.28243622777E+02 -0.23104486041E+02  0.50528839286E+02  0.29999937494E+02 0.  0.
        -12    1    1    2    0    0  0.17934543406E+02 -0.28243622777E+02  0.23104486041E+02  0.40659160714E+02  0.00000000000E+00 0.  1.
         11    1    3    3    0    0 -0.30438019746E+01  0.23986295709E+01 -0.50571687972E+01  0.63712723050E+01  0.51100000000E-03 0. -1.
        -11    1    3    3    0    0 -0.76068513091E+01  0.94012424057E+01 -0.22576339671E+02  0.25611299436E+02  0.51100000000E-03 0.  1.
        -12    1    3    3    0    0 -0.72838901222E+01  0.16443750800E+02  0.45290224275E+01  0.18546267545E+02  0.00000000000E+00 0.  1.
</event>
<event>
 7    1  0.2945316E-011  0.5052886E+02  0.7816164E-02  0.1300439E+00
        -11   -1    0    0    0    0  0.00000000000E+00  0.00000000000E+00  0.45593999997E+02  0.45594000000E+02  0.51100000000E-03 0. -1.
         11   -1    0    0    0    0 -0.00000000000E+00 -0.00000000000E+00 -0.45593999997E+02  0.45594000000E+02  0.51100000000E-03 0.  1.
    9900012    2    1    2    0    0 -0.57511880048E+01  0.40246200604E+02  0.57681550755E+00  0.50528861511E+02  0.30000005049E+02 0.  0.
        -12    1    1    2    0    0  0.57511880048E+01 -0.40246200604E+02 -0.57681550755E+00  0.40659138489E+02  0.00000000000E+00 0.  1.
         11    1    3    3    0    0  0.75659787570E+00  0.16005179109E+02  0.14387430963E+02  0.21534538970E+02  0.51100000000E-03 0. -1.
        -11    1    3    3    0    0  0.66253896511E+00  0.29273093279E+01 -0.18137989201E+01  0.35068453865E+01  0.51100000000E-03 0.  1.
         12    1    3    3    0    0 -0.71703248456E+01  0.21313712167E+02 -0.11996816535E+02  0.25487477155E+02  0.00000000000E+00 0. -1.
</event>
<event>
 7    1  0.2945316E-011  0.5052886E+02  0.7816164E-02  0.1300439E+00
        -11   -1    0    0    0    0  0.00000000000E+00  0.00000000000E+00  0.45593999997E+02  0.45594000000E+02  0.51100000000E-03 0.  1.
         11   -1    0    0    0    0 -0.00000000000E+00 -0.00000000000E+00 -0.45593999997E+02  0.45594000000E+02  0.51100000000E-03 0. -1.
    9900012    2    1    2    0    0 -0.31242174319E+02  0.24917036209E+02 -0.74989266707E+01  0.50528855262E+02  0.29999986054E+02 0.  0.
        -12    1    1    2    0    0  0.31242174319E+02 -0.24917036209E+02  0.74989266707E+01  0.40659144738E+02  0.00000000000E+00 0.  1.
         11    1    3    3    0    0  0.11808785234E+00  0.16197249169E+01 -0.70049917851E+01  0.71907832479E+01  0.51100000000E-03 0. -1.
        -11    1    3    3    0    0 -0.97582056803E+01  0.50050129435E+01 -0.85517788362E+01  0.13907036140E+02  0.51100000000E-03 0.  1.
        -12    1    3    3    0    0 -0.21602056491E+02  0.18292298348E+02  0.80578439506E+01  0.29431035874E+02  0.00000000000E+00 0.  1.
</event>
<event>
 7    1  0.2945316E-011  0.5052884E+02  0.7816164E-02  0.1300439E+00
        -11   -1    0    0    0    0  0.00000000000E+00  0.00000000000E+00  0.45593999997E+02  0.45594000000E+02  0.51100000000E-03 0. -1.
         11   -1    0    0    0    0 -0.00000000000E+00 -0.00000000000E+00 -0.45593999997E+02  0.45594000000E+02  0.51100000000E-03 0.  1.
    9900012    2    1    2    0    0 -0.33105444475E+02 -0.16485356850E+02 -0.16894670221E+02  0.50528839577E+02  0.29999938379E+02 0.  0.
        -12    1    1    2    0    0  0.33105444475E+02  0.16485356850E+02  0.16894670221E+02  0.40659160423E+02  0.00000000000E+00 0.  1.
         11    1    3    3    0    0 -0.41749460377E+01 -0.25340340860E+01 -0.12780706106E+02  0.13682030259E+02  0.51100000000E-03 0. -1.
        -11    1    3    3    0    0 -0.41417056486E+00 -0.33491040125E+01 -0.54318892407E+01  0.63947991312E+01  0.51100000000E-03 0.  1.
         12    1    3    3    0    0 -0.28516327873E+02 -0.10602218752E+02  0.13179251254E+01  0.30452010187E+02  0.00000000000E+00 0. -1.
</event>
<event>
 7    1  0.2945316E-011  0.5052886E+02  0.7816164E-02  0.1300439E+00
        -11   -1    0    0    0    0  0.00000000000E+00  0.00000000000E+00  0.45593999997E+02  0.45594000000E+02  0.51100000000E-03 0.  1.
         11   -1    0    0    0    0 -0.00000000000E+00 -0.00000000000E+00 -0.45593999997E+02  0.45594000000E+02  0.51100000000E-03 0. -1.
    9900012    2    1    2    0    0 -0.37059081819E+02  0.95594970814E+01 -0.13726097925E+02  0.50528864569E+02  0.30000014344E+02 0.  0.
        -12    1    1    2    0    0  0.37059081819E+02 -0.95594970814E+01  0.13726097925E+02  0.40659135431E+02  0.00000000000E+00 0.  1.
         11    1    3    3    0    0 -0.13579030778E+02  0.40375313349E+00 -0.71044443937E+01  0.15330565021E+02  0.51100000000E-03 0. -1.
        -11    1    3    3    0    0 -0.17371360570E+02 -0.58807695840E+01 -0.34796801485E+01  0.18666970648E+02  0.51100000000E-03 0.  1.
         12    1    3    3    0    0 -0.61086904713E+01  0.15036513532E+02 -0.31419733833E+01  0.16531328900E+02  0.00000000000E+00 0. -1.
</event>
<event>
 7    1  0.2945316E-011  0.5052885E+02  0.7816164E-02  0.1300439E+00
        -11   -1    0    0    0    0  0.00000000000E+00  0.00000000000E+00  0.45593999997E+02  0.45594000000E+02  0.51100000000E-03 0. -1.
         11   -1    0    0    0    0 -0.00000000000E+00 -0.00000000000E+00 -0.45593999997E+02  0.45594000000E+02  0.51100000000E-03 0.  1.
    9900012    2    1    2    0    0  0.59729929456E+01  0.24379076259E+02  0.31986720943E+02  0.50528851944E+02  0.29999975970E+02 0.  0.
        -12    1    1    2    0    0 -0.59729929456E+01 -0.24379076259E+02 -0.31986720943E+02  0.40659148056E+02  0.00000000000E+00 0.  1.
         11    1    3    3    0    0 -0.56715205058E+00  0.16766880500E+02  0.13251673788E+02  0.21378886819E+02  0.51100000000E-03 0. -1.
        -11    1    3    3    0    0  0.59860732440E+01  0.13920532857E+02  0.16578506159E+02  0.22460213147E+02  0.51100000000E-03 0.  1.
        -12    1    3    3    0    0  0.55407175222E+00 -0.63083370988E+01  0.21565409953E+01  0.66897519777E+01  0.00000000000E+00 0.  1.
</event>
<event>
 7    1  0.2945316E-011  0.5052886E+02  0.7816164E-02  0.1300439E+00
        -11   -1    0    0    0    0  0.00000000000E+00  0.00000000000E+00  0.45593999997E+02  0.45594000000E+02  0.51100000000E-03 0.  1.
         11   -1    0    0    0    0 -0.00000000000E+00 -0.00000000000E+00 -0.45593999997E+02  0.45594000000E+02  0.51100000000E-03 0. -1.
    9900012    2    1    2    0    0 -0.23113368610E+02  0.24328838678E+02 -0.22957476643E+02  0.50528856701E+02  0.29999990429E+02 0.  0.
        -12    1    1    2    0    0  0.23113368610E+02 -0.24328838678E+02  0.22957476643E+02  0.40659143299E+02  0.00000000000E+00 0.  1.
         11    1    3    3    0    0 -0.11787151975E+02  0.15106291024E+02 -0.50124898774E+01  0.19805606157E+02  0.51100000000E-03 0. -1.
        -11    1    3    3    0    0 -0.10241345833E+02  0.44355312994E+01  0.95016210114E+00  0.11200978112E+02  0.51100000000E-03 0.  1.
        -12    1    3    3    0    0 -0.10848708022E+01  0.47870163545E+01 -0.18895148867E+02  0.19522272433E+02  0.00000000000E+00 0.  1.
</event>
<event>
 7    1  0.2945316E-011  0.5052889E+02  0.7816164E-02  0.1300439E+00
        -11   -1    0    0    0    0  0.00000000000E+00  0.00000000000E+00  0.45593999997E+02  0.45594000000E+02  0.51100000000E-03 0.  1.
         11   -1    0    0    0    0 -0.00000000000E+00 -0.00000000000E+00 -0.45593999997E+02  0.45594000000E+02  0.51100000000E-03 0. -1.
    9900012    2    1    2    0    0  0.32537176989E+01  0.26664536871E+02 -0.30521779891E+02  0.50528889667E+02  0.30000090631E+02 0.  0.
        -12    1    1    2    0    0 -0.32537176989E+01 -0.26664536871E+02  0.30521779891E+02  0.40659110333E+02  0.00000000000E+00 0.  1.
         11    1    3    3    0    0 -0.20403054355E+01 -0.40574914523E+00 -0.59149618146E+01  0.62701078275E+01  0.51100000000E-03 0. -1.
        -11    1    3    3    0    0 -0.40440228578E+01  0.13124053110E+02 -0.23772693815E+02  0.27454250352E+02  0.51100000000E-03 0.  1.
         12    1    3    3    0    0  0.93380459923E+01  0.13946232906E+02 -0.83412426104E+00  0.16804531487E+02  0.00000000000E+00 0. -1.
</event>
<event>
 7    1  0.2945316E-011  0.5052886E+02  0.7816164E-02  0.1300439E+00
        -11   -1    0    0    0    0  0.00000000000E+00  0.00000000000E+00  0.45593999997E+02  0.45594000000E+02  0.51100000000E-03 0.  1.
         11   -1    0    0    0    0 -0.00000000000E+00 -0.00000000000E+00 -0.45593999997E+02  0.45594000000E+02  0.51100000000E-03 0. -1.
    9900012    2    1    2    0    0 -0.32173814686E+02 -0.69022830182E+01 -0.23882415934E+02  0.50528860152E+02  0.30000000919E+02 0.  0.
        -12    1    1    2    0    0  0.32173814686E+02  0.69022830182E+01  0.23882415934E+02  0.40659139848E+02  0.00000000000E+00 0.  1.
         11    1    3    3    0    0 -0.86037375319E+01 -0.81692859441E+01 -0.20933905351E+02  0.24062209497E+02  0.51100000000E-03 0. -1.
        -11    1    3    3    0    0 -0.76835886953E+01  0.55554109291E+01  0.10301506017E+01  0.95373652732E+01  0.51100000000E-03 0.  1.
        -12    1    3    3    0    0 -0.15886488458E+02 -0.42884080032E+01 -0.39786611852E+01  0.16929285383E+02  0.00000000000E+00 0.  1.
</event>
<event>
 7    1  0.2945316E-011  0.5052884E+02  0.7816164E-02  0.1300439E+00
        -11   -1    0    0    0    0  0.00000000000E+00  0.00000000000E+00  0.45593999997E+02  0.45594000000E+02  0.51100000000E-03 0.  1.
         11   -1    0    0    0    0 -0.00000000000E+00 -0.00000000000E+00 -0.45593999997E+02  0.45594000000E+02  0.51100000000E-03 0. -1.
    9900012    2    1    2    0    0 -0.10360499814E+02  0.35869985678E+02 -0.16098811986E+02  0.50528836503E+02  0.29999929033E+02 0.  0.
        -12    1    1    2    0    0  0.10360499814E+02 -0.35869985678E+02  0.16098811986E+02  0.40659163497E+02  0.00000000000E+00 0.  1.
         11    1    3    3    0    0  0.27313910722E+01  0.24403913020E+01 -0.89547789163E+01  0.96749197721E+01  0.51100000000E-03 0. -1.
        -11    1    3    3    0    0  0.10047316062E+01  0.45661557938E+01 -0.73739718076E+01  0.87312498999E+01  0.51100000000E-03 0.  1.
        -12    1    3    3    0    0 -0.14096622492E+02  0.28863438582E+02  0.22993873795E+00  0.32122666831E+02  0.00000000000E+00 0.  1.
</event>
<event>
 7    1  0.2945316E-011  0.5052886E+02  0.7816164E-02  0.1300439E+00
        -11   -1    0    0    0    0  0.00000000000E+00  0.00000000000E+00  0.45593999997E+02  0.45594000000E+02  0.51100000000E-03 0.  1.
         11   -1    0    0    0    0 -0.00000000000E+00 -0.00000000000E+00 -0.45593999997E+02  0.45594000000E+02  0.51100000000E-03 0. -1.
    9900012    2    1    2    0    0  0.26384142943E+02 -0.29583720849E+02 -0.90468687042E+01  0.50528863616E+02  0.30000011448E+02 0.  0.
        -12    1    1    2    0    0 -0.26384142943E+02  0.29583720849E+02  0.90468687042E+01  0.40659136384E+02  0.00000000000E+00 0.  1.
         11    1    3    3    0    0  0.82271422955E+01 -0.73533749523E+01 -0.66935540778E+00  0.11054683644E+02  0.51100000000E-03 0. -1.
        -11    1    3    3    0    0  0.21276646914E+02 -0.25251892857E+02 -0.39227482616E+01  0.33252695393E+02  0.51100000000E-03 0.  1.
        -12    1    3    3    0    0 -0.31196462661E+01  0.30215469600E+01 -0.44547650348E+01  0.62214845794E+01  0.00000000000E+00 0.  1.
</event>
<event>
 7    1  0.2945316E-011  0.5052886E+02  0.7816164E-02  0.1300439E+00
        -11   -1    0    0    0    0  0.00000000000E+00  0.00000000000E+00  0.45593999997E+02  0.45594000000E+02  0.51100000000E-03 0.  1.
         11   -1    0    0    0    0 -0.00000000000E+00 -0.00000000000E+00 -0.45593999997E+02  0.45594000000E+02  0.51100000000E-03 0. -1.
    9900012    2    1    2    0    0  0.81069790526E+01  0.14757386174E+02 -0.37008949958E+02  0.50528856711E+02  0.29999990458E+02 0.  0.
        -12    1    1    2    0    0 -0.81069790526E+01 -0.14757386174E+02  0.37008949958E+02  0.40659143289E+02  0.00000000000E+00 0.  1.
         11    1    3    3    0    0  0.89842519493E+01 -0.85428085749E+00 -0.24326894435E+02  0.25946953039E+02  0.51100000000E-03 0. -1.
        -11    1    3    3    0    0 -0.27539080877E+01 -0.94014648145E+00 -0.59340544950E+01  0.66091518497E+01  0.51100000000E-03 0.  1.
         12    1    3    3    0    0  0.18766351910E+01  0.16551813512E+02 -0.67480010276E+01  0.17972751822E+02  0.00000000000E+00 0. -1.
</event>
<event>
 7    1  0.2945316E-011  0.5052887E+02  0.7816164E-02  0.1300439E+00
        -11   -1    0    0    0    0  0.00000000000E+00  0.00000000000E+00  0.45593999997E+02  0.45594000000E+02  0.51100000000E-03 0.  1.
         11   -1    0    0    0    0 -0.00000000000E+00 -0.00000000000E+00 -0.45593999997E+02  0.45594000000E+02  0.51100000000E-03 0. -1.
    9900012    2    1    2    0    0 -0.32339659982E+02 -0.25385191374E+01 -0.24512594951E+02  0.50528868204E+02  0.30000025394E+02 0.  0.
        -12    1    1    2    0    0  0.32339659982E+02  0.25385191374E+01  0.24512594951E+02  0.40659131796E+02  0.00000000000E+00 0.  1.
         11    1    3    3    0    0 -0.89982559996E+01  0.61798892544E+01 -0.38522240223E+01  0.11575805476E+02  0.51100000000E-03 0. -1.
        -11    1    3    3    0    0 -0.14498145972E+02  0.44875679869E+01 -0.35232065250E+01  0.15580355822E+02  0.51100000000E-03 0.  1.
        -12    1    3    3    0    0 -0.88432580104E+01 -0.13205976379E+02 -0.17137164404E+02  0.23372706907E+02  0.00000000000E+00 0.  1.
</event>
<event>
 7    1  0.2945316E-011  0.5052886E+02  0.7816164E-02  0.1300439E+00
        -11   -1    0    0    0    0  0.00000000000E+00  0.00000000000E+00  0.45593999997E+02  0.45594000000E+02  0.51100000000E-03 0.  1.
         11   -1    0    0    0    0 -0.00000000000E+00 -0.00000000000E+00 -0.45593999997E+02  0.45594000000E+02  0.51100000000E-03 0. -1.
    9900012    2    1    2    0    0 -0.38434739008E+02 -0.65318241008E+01 -0.11544326255E+02  0.50528863789E+02  0.30000011974E+02 0.  0.
        -12    1    1    2    0    0  0.38434739008E+02  0.65318241008E+01  0.11544326255E+02  0.40659136211E+02  0.00000000000E+00 0.  1.
         11    1    3    3    0    0 -0.12630719518E+02 -0.24833301176E+01 -0.22449679632E+01  0.13066823846E+02  0.51100000000E-03 0. -1.
        -11    1    3    3    0    0 -0.14204078192E+02 -0.43878417018E+01  0.78063504455E+01  0.16791310241E+02  0.51100000000E-03 0.  1.
         12    1    3    3    0    0 -0.11599941298E+02  0.33934771859E+00 -0.17105708737E+02  0.20670729702E+02  0.00000000000E+00 0. -1.
</event>
<event>
 7    1  0.2945316E-011  0.5052886E+02  0.7816164E-02  0.1300439E+00
        -11   -1    0    0    0    0  0.00000000000E+00  0.00000000000E+00  0.45593999997E+02  0.45594000000E+02  0.51100000000E-03 0. -1.
         11   -1    0    0    0    0 -0.00000000000E+00 -0.00000000000E+00 -0.45593999997E+02  0.45594000000E+02  0.51100000000E-03 0.  1.
    9900012    2    1    2    0    0  0.38017748423E+02  0.75319603683E+01  0.12291700947E+02  0.50528861614E+02  0.30000005361E+02 0.  0.
        -12    1    1    2    0    0 -0.38017748423E+02 -0.75319603683E+01 -0.12291700947E+02  0.40659138386E+02  0.00000000000E+00 0.  1.
         11    1    3    3    0    0  0.36913233879E+02  0.26902356531E+01  0.11865001602E+01  0.37030149692E+02  0.51100000000E-03 0.  1.
        -11    1    3    3    0    0 -0.16101860382E-01 -0.10448146978E+01  0.21213563668E+00  0.10662545719E+01  0.51100000000E-03 0. -1.
         12    1    3    3    0    0  0.11206164038E+01  0.58865394130E+01  0.10893065151E+02  0.12432457350E+02  0.00000000000E+00 0. -1.
</event>
<event>
 7    1  0.2945316E-011  0.5052886E+02  0.7816164E-02  0.1300439E+00
        -11   -1    0    0    0    0  0.00000000000E+00  0.00000000000E+00  0.45593999997E+02  0.45594000000E+02  0.51100000000E-03 0.  1.
         11   -1    0    0    0    0 -0.00000000000E+00 -0.00000000000E+00 -0.45593999997E+02  0.45594000000E+02  0.51100000000E-03 0. -1.
    9900012    2    1    2    0    0 -0.29002986902E+02 -0.12345606592E+02 -0.25682256340E+02  0.50528861518E+02  0.30000005071E+02 0.  0.
        -12    1    1    2    0    0  0.29002986902E+02  0.12345606592E+02  0.25682256340E+02  0.40659138482E+02  0.00000000000E+00 0.  1.
         11    1    3    3    0    0 -0.13027194773E+02 -0.42380641912E+01 -0.26003693444E+01  0.13943848562E+02  0.51100000000E-03 0. -1.
        -11    1    3    3    0    0 -0.59597232398E+01 -0.47567871837E+01  0.31930036614E+01  0.82668372458E+01  0.51100000000E-03 0.  1.
         12    1    3    3    0    0 -0.10016068889E+02 -0.33507552174E+01 -0.26274890657E+02  0.28318175710E+02  0.00000000000E+00 0. -1.
</event>
<event>
 7    1  0.2945316E-011  0.5052889E+02  0.7816164E-02  0.1300439E+00
        -11   -1    0    0    0    0  0.00000000000E+00  0.00000000000E+00  0.45593999997E+02  0.45594000000E+02  0.51100000000E-03 0.  1.
         11   -1    0    0    0    0 -0.00000000000E+00 -0.00000000000E+00 -0.45593999997E+02  0.45594000000E+02  0.51100000000E-03 0. -1.
    9900012    2    1    2    0    0  0.52469046767E+01  0.43077316542E+01 -0.40088364331E+02  0.50528886440E+02  0.30000080824E+02 0.  0.
        -12    1    1    2    0    0 -0.52469046767E+01 -0.43077316542E+01  0.40088364331E+02  0.40659113560E+02  0.00000000000E+00 0.  1.
         11    1    3    3    0    0  0.91549086846E+00  0.59335278189E+01 -0.42252769948E+02  0.42677177091E+02  0.51100000000E-03 0. -1.
        -11    1    3    3    0    0  0.17353808153E+01  0.17069634130E+01  0.26512443757E+01  0.35992176467E+01  0.51100000000E-03 0.  1.
        -12    1    3    3    0    0  0.25960329930E+01 -0.33327595777E+01 -0.48683875919E+00  0.42524917026E+01  0.00000000000E+00 0.  1.
</event>
<event>
 7    1  0.2945316E-011  0.5052886E+02  0.7816164E-02  0.1300439E+00
        -11   -1    0    0    0    0  0.00000000000E+00  0.00000000000E+00  0.45593999997E+02  0.45594000000E+02  0.51100000000E-03 0.  1.
         11   -1    0    0    0    0 -0.00000000000E+00 -0.00000000000E+00 -0.45593999997E+02  0.45594000000E+02  0.51100000000E-03 0. -1.
    9900012    2    1    2    0    0 -0.20351316129E+02  0.19457575423E+02 -0.29332447127E+02  0.50528858789E+02  0.29999996776E+02 0.  0.
        -12    1    1    2    0    0  0.20351316129E+02 -0.19457575423E+02  0.29332447127E+02  0.40659141211E+02  0.00000000000E+00 0.  1.
         11    1    3    3    0    0 -0.91381047363E+01  0.54097088690E+01 -0.12289134624E+02  0.16241697519E+02  0.51100000000E-03 0. -1.
        -11    1    3    3    0    0 -0.14343188612E+02  0.18835038013E+02 -0.15714197808E+02  0.28415167244E+02  0.51100000000E-03 0.  1.
        -12    1    3    3    0    0  0.31299772192E+01 -0.47871714592E+01 -0.13291146948E+01  0.58719940263E+01  0.00000000000E+00 0.  1.
</event>
<event>
 7    1  0.2945316E-011  0.5052886E+02  0.7816164E-02  0.1300439E+00
        -11   -1    0    0    0    0  0.00000000000E+00  0.00000000000E+00  0.45593999997E+02  0.45594000000E+02  0.51100000000E-03 0. -1.
         11   -1    0    0    0    0 -0.00000000000E+00 -0.00000000000E+00 -0.45593999997E+02  0.45594000000E+02  0.51100000000E-03 0.  1.
    9900012    2    1    2    0    0  0.20424142212E+02 -0.34776365841E+02  0.51599108547E+01  0.50528857286E+02  0.29999992207E+02 0.  0.
        -12    1    1    2    0    0 -0.20424142212E+02  0.34776365841E+02 -0.51599108547E+01  0.40659142714E+02  0.00000000000E+00 0.  1.
         11    1    3    3    0    0  0.11421271220E+02 -0.22069361986E+02  0.24450948862E+00  0.24850793949E+02  0.51100000000E-03 0. -1.
        -11    1    3    3    0    0  0.14643943135E+02 -0.56494202353E+01  0.54810663572E+01  0.16625375430E+02  0.51100000000E-03 0.  1.
         12    1    3    3    0    0 -0.56410721418E+01 -0.70575836194E+01 -0.56566499118E+00  0.90526879067E+01  0.00000000000E+00 0. -1.
</event>
<event>
 7    1  0.2945316E-011  0.5052886E+02  0.7816164E-02  0.1300439E+00
        -11   -1    0    0    0    0  0.00000000000E+00  0.00000000000E+00  0.45593999997E+02  0.45594000000E+02  0.51100000000E-03 0.  1.
         11   -1    0    0    0    0 -0.00000000000E+00 -0.00000000000E+00 -0.45593999997E+02  0.45594000000E+02  0.51100000000E-03 0. -1.
    9900012    2    1    2    0    0  0.14251502923E+02  0.14462523720E+02 -0.35226348979E+02  0.50528860925E+02  0.30000003267E+02 0.  0.
        -12    1    1    2    0    0 -0.14251502923E+02 -0.14462523720E+02  0.35226348979E+02  0.40659139075E+02  0.00000000000E+00 0.  1.
         11    1    3    3    0    0  0.20279416986E+01  0.17314416752E+02 -0.15045318199E+02  0.23027443952E+02  0.51100000000E-03 0. -1.
        -11    1    3    3    0    0 -0.96462734723E+00  0.37940029117E+01 -0.42794645719E+01  0.57998949384E+01  0.51100000000E-03 0.  1.
         12    1    3    3    0    0  0.13188188572E+02 -0.66458959439E+01 -0.15901566209E+02  0.21701522034E+02  0.00000000000E+00 0. -1.
</event>
<event>
 7    1  0.2945316E-011  0.5052886E+02  0.7816164E-02  0.1300439E+00
        -11   -1    0    0    0    0  0.00000000000E+00  0.00000000000E+00  0.45593999997E+02  0.45594000000E+02  0.51100000000E-03 0.  1.
         11   -1    0    0    0    0 -0.00000000000E+00 -0.00000000000E+00 -0.45593999997E+02  0.45594000000E+02  0.51100000000E-03 0. -1.
    9900012    2    1    2    0    0 -0.29101237574E+02 -0.10488647645E+02 -0.26386962265E+02  0.50528861601E+02  0.30000005323E+02 0.  0.
        -12    1    1    2    0    0  0.29101237574E+02  0.10488647645E+02  0.26386962265E+02  0.40659138399E+02  0.00000000000E+00 0.  1.
         11    1    3    3    0    0 -0.21287311939E+02 -0.51552727388E+01 -0.66419756310E+01  0.22887602040E+02  0.51100000000E-03 0. -1.
        -11    1    3    3    0    0 -0.32796099854E+01 -0.75510988261E+00  0.26842439270E+01  0.43047878358E+01  0.51100000000E-03 0.  1.
         12    1    3    3    0    0 -0.45343156499E+01 -0.45782650239E+01 -0.22429230561E+02  0.23336471725E+02  0.00000000000E+00 0. -1.
</event>
<event>
 7    1  0.2945316E-011  0.5052886E+02  0.7816164E-02  0.1300439E+00
        -11   -1    0    0    0    0  0.00000000000E+00  0.00000000000E+00  0.45593999997E+02  0.45594000000E+02  0.51100000000E-03 0.  1.
         11   -1    0    0    0    0 -0.00000000000E+00 -0.00000000000E+00 -0.45593999997E+02  0.45594000000E+02  0.51100000000E-03 0. -1.
    9900012    2    1    2    0    0 -0.25735170788E+02  0.28582983047E+02 -0.13186347994E+02  0.50528859468E+02  0.29999998840E+02 0.  0.
        -12    1    1    2    0    0  0.25735170788E+02 -0.28582983047E+02  0.13186347994E+02  0.40659140532E+02  0.00000000000E+00 0.  1.
         11    1    3    3    0    0 -0.20357637595E+02  0.26815022235E+02 -0.17192710651E+02  0.37803017415E+02  0.51100000000E-03 0. -1.
        -11    1    3    3    0    0  0.18643030516E+01  0.38669010530E+01  0.24499763308E+00  0.42998341507E+01  0.51100000000E-03 0.  1.
        -12    1    3    3    0    0 -0.72418362451E+01 -0.20989402406E+01  0.37613650238E+01  0.84260079027E+01  0.00000000000E+00 0.  1.
</event>
<event>
 7    1  0.2945316E-011  0.5052885E+02  0.7816164E-02  0.1300439E+00
        -11   -1    0    0    0    0  0.00000000000E+00  0.00000000000E+00  0.45593999997E+02  0.45594000000E+02  0.51100000000E-03 0.  1.
         11   -1    0    0    0    0 -0.00000000000E+00 -0.00000000000E+00 -0.45593999997E+02  0.45594000000E+02  0.51100000000E-03 0. -1.
    9900012    2    1    2    0    0  0.12392933452E+02  0.36735697337E+02 -0.12250319008E+02  0.50528848826E+02  0.29999966491E+02 0.  0.
        -12    1    1    2    0    0 -0.12392933452E+02 -0.36735697337E+02  0.12250319008E+02  0.40659151174E+02  0.00000000000E+00 0.  1.
         11    1    3    3    0    0 -0.30472298209E+01  0.89583724218E+01 -0.11443094761E+02  0.14848651925E+02  0.51100000000E-03 0. -1.
        -11    1    3    3    0    0 -0.17301830934E+01  0.28216493106E+01 -0.40325384645E+01  0.52169536223E+01  0.51100000000E-03 0.  1.
         12    1    3    3    0    0  0.17170346367E+02  0.24955675605E+02  0.32253142172E+01  0.30463243279E+02  0.00000000000E+00 0. -1.
</event>
<event>
 7    1  0.2945316E-011  0.5052886E+02  0.7816164E-02  0.1300439E+00
        -11   -1    0    0    0    0  0.00000000000E+00  0.00000000000E+00  0.45593999997E+02  0.45594000000E+02  0.51100000000E-03 0. -1.
         11   -1    0    0    0    0 -0.00000000000E+00 -0.00000000000E+00 -0.45593999997E+02  0.45594000000E+02  0.51100000000E-03 0.  1.
    9900012    2    1    2    0    0 -0.31004387504E+02 -0.25685001105E+02  0.56722300908E+01  0.50528861784E+02  0.30000005878E+02 0.  0.
        -12    1    1    2    0    0  0.31004387504E+02  0.25685001105E+02 -0.56722300908E+01  0.40659138216E+02  0.00000000000E+00 0.  1.
         11    1    3    3    0    0  0.14018685652E+01 -0.63398574685E+01  0.43761087050E+00  0.65077286153E+01  0.51100000000E-03 0. -1.
        -11    1    3    3    0    0 -0.11770045434E+02  0.24796035451E+01 -0.38695337424E+01  0.12635493457E+02  0.51100000000E-03 0.  1.
         12    1    3    3    0    0 -0.20636210635E+02 -0.21824747182E+02  0.91041529627E+01  0.31385639711E+02  0.00000000000E+00 0. -1.
</event>
<event>
 7    1  0.2945316E-011  0.5052886E+02  0.7816164E-02  0.1300439E+00
        -11   -1    0    0    0    0  0.00000000000E+00  0.00000000000E+00  0.45593999997E+02  0.45594000000E+02  0.51100000000E-03 0.  1.
         11   -1    0    0    0    0 -0.00000000000E+00 -0.00000000000E+00 -0.45593999997E+02  0.45594000000E+02  0.51100000000E-03 0. -1.
    9900012    2    1    2    0    0  0.74265523721E+01  0.51939537331E+01 -0.39636279747E+02  0.50528861941E+02  0.30000006357E+02 0.  0.
        -12    1    1    2    0    0 -0.74265523721E+01 -0.51939537331E+01  0.39636279747E+02  0.40659138059E+02  0.00000000000E+00 0.  1.
         11    1    3    3    0    0  0.33644983876E+01 -0.50645019387E+01 -0.91171358406E+01  0.10958612845E+02  0.51100000000E-03 0. -1.
        -11    1    3    3    0    0  0.56297505603E+01 -0.58108535197E+01 -0.15665482069E+02  0.17631433258E+02  0.51100000000E-03 0.  1.
        -12    1    3    3    0    0 -0.15676965758E+01  0.16069309192E+02 -0.14853661837E+02  0.21938815839E+02  0.00000000000E+00 0.  1.
</event>
<event>
 7    1  0.2945316E-011  0.5052886E+02  0.7816164E-02  0.1300439E+00
        -11   -1    0    0    0    0  0.00000000000E+00  0.00000000000E+00  0.45593999997E+02  0.45594000000E+02  0.51100000000E-03 0.  1.
         11   -1    0    0    0    0 -0.00000000000E+00 -0.00000000000E+00 -0.45593999997E+02  0.45594000000E+02  0.51100000000E-03 0. -1.
    9900012    2    1    2    0    0  0.26828743397E+02  0.30420985429E+02 -0.28191534900E+01  0.50528862612E+02  0.30000008395E+02 0.  0.
        -12    1    1    2    0    0 -0.26828743397E+02 -0.30420985429E+02  0.28191534900E+01  0.40659137388E+02  0.00000000000E+00 0.  1.
         11    1    3    3    0    0  0.51031372837E+01 -0.14286043098E+01  0.71679396560E+01  0.89141617432E+01  0.51100000000E-03 0. -1.
        -11    1    3    3    0    0  0.49318194816E+01  0.72021697482E+00 -0.18810401214E+01  0.53272758601E+01  0.51100000000E-03 0.  1.
         12    1    3    3    0    0  0.16793786632E+02  0.31129372764E+02 -0.81060530245E+01  0.36287425009E+02  0.00000000000E+00 0. -1.
</event>
<event>
 7    1  0.2945316E-011  0.5052878E+02  0.7816164E-02  0.1300439E+00
        -11   -1    0    0    0    0  0.00000000000E+00  0.00000000000E+00  0.45593999997E+02  0.45594000000E+02  0.51100000000E-03 0.  1.
         11   -1    0    0    0    0 -0.00000000000E+00 -0.00000000000E+00 -0.45593999997E+02  0.45594000000E+02  0.51100000000E-03 0. -1.
    9900012    2    1    2    0    0 -0.56313744228E+01 -0.34904735855E+02 -0.20077824154E+02  0.50528782279E+02  0.29999764213E+02 0.  0.
        -12    1    1    2    0    0  0.56313744228E+01  0.34904735855E+02  0.20077824154E+02  0.40659217721E+02  0.00000000000E+00 0.  1.
         11    1    3    3    0    0  0.57396187291E+01 -0.60179496377E+01 -0.52983097735E+01  0.98605794817E+01  0.51100000000E-03 0. -1.
        -11    1    3    3    0    0  0.33324818945E+01 -0.12335014960E+02 -0.13355320242E+02  0.18483035700E+02  0.51100000000E-03 0.  1.
         12    1    3    3    0    0 -0.14703475046E+02 -0.16551771257E+02 -0.14241941378E+01  0.22185167097E+02  0.00000000000E+00 0. -1.
</event>
<event>
 7    1  0.2945316E-011  0.5052885E+02  0.7816164E-02  0.1300439E+00
        -11   -1    0    0    0    0  0.00000000000E+00  0.00000000000E+00  0.45593999997E+02  0.45594000000E+02  0.51100000000E-03 0.  1.
         11   -1    0    0    0    0 -0.00000000000E+00 -0.00000000000E+00 -0.45593999997E+02  0.45594000000E+02  0.51100000000E-03 0. -1.
    9900012    2    1    2    0    0 -0.14399328775E+02  0.37172906674E+02 -0.80000679026E+01  0.50528846711E+02  0.29999960063E+02 0.  0.
        -12    1    1    2    0    0  0.14399328775E+02 -0.37172906674E+02  0.80000679026E+01  0.40659153289E+02  0.00000000000E+00 0.  1.
         11    1    3    3    0    0 -0.35195573189E+01  0.15541466732E+02 -0.67053153196E+01  0.17288311823E+02  0.51100000000E-03 0. -1.
        -11    1    3    3    0    0  0.54263237856E+01  0.93803749151E+01  0.49451929179E+01  0.11911815841E+02  0.51100000000E-03 0.  1.
        -12    1    3    3    0    0 -0.16306095242E+02  0.12251065026E+02 -0.62399455009E+01  0.21328719047E+02  0.00000000000E+00 0.  1.
</event>
<event>
 7    1  0.2945316E-011  0.5052886E+02  0.7816164E-02  0.1300439E+00
        -11   -1    0    0    0    0  0.00000000000E+00  0.00000000000E+00  0.45593999997E+02  0.45594000000E+02  0.51100000000E-03 0.  1.
         11   -1    0    0    0    0 -0.00000000000E+00 -0.00000000000E+00 -0.45593999997E+02  0.45594000000E+02  0.51100000000E-03 0. -1.
    9900012    2    1    2    0    0  0.31276116645E+02 -0.16420235227E+02 -0.20133214411E+02  0.50528856872E+02  0.29999990950E+02 0.  0.
        -12    1    1    2    0    0 -0.31276116645E+02  0.16420235227E+02  0.20133214411E+02  0.40659143128E+02  0.00000000000E+00 0.  1.
         11    1    3    3    0    0  0.11842459937E+02 -0.18204859881E+02 -0.16120958281E+02  0.27047108474E+02  0.51100000000E-03 0. -1.
        -11    1    3    3    0    0  0.37747230255E+01 -0.70350975879E+00 -0.63842012089E+01  0.74499318948E+01  0.51100000000E-03 0.  1.
        -12    1    3    3    0    0  0.15658933683E+02  0.24881344127E+01  0.23719450788E+01  0.16031816503E+02  0.00000000000E+00 0.  1.
</event>
<event>
 7    1  0.2945316E-011  0.5052886E+02  0.7816164E-02  0.1300439E+00
        -11   -1    0    0    0    0  0.00000000000E+00  0.00000000000E+00  0.45593999997E+02  0.45594000000E+02  0.51100000000E-03 0. -1.
         11   -1    0    0    0    0 -0.00000000000E+00 -0.00000000000E+00 -0.45593999997E+02  0.45594000000E+02  0.51100000000E-03 0.  1.
    9900012    2    1    2    0    0  0.47107832194E+01 -0.40230066365E+02  0.35378173765E+01  0.50528857485E+02  0.29999992811E+02 0.  0.
        -12    1    1    2    0    0 -0.47107832194E+01  0.40230066365E+02 -0.35378173765E+01  0.40659142515E+02  0.00000000000E+00 0.  1.
         11    1    3    3    0    0 -0.37086495248E+01 -0.11513173717E+02 -0.38166189734E+01  0.12683604811E+02  0.51100000000E-03 0. -1.
        -11    1    3    3    0    0 -0.15783063777E+01  0.32633619913E+00 -0.46083544229E+01  0.48820566450E+01  0.51100000000E-03 0.  1.
        -12    1    3    3    0    0  0.99977391219E+01 -0.29043228847E+02  0.11962790773E+02  0.32963196029E+02  0.00000000000E+00 0.  1.
</event>
<event>
 7    1  0.2945316E-011  0.5052885E+02  0.7816164E-02  0.1300439E+00
        -11   -1    0    0    0    0  0.00000000000E+00  0.00000000000E+00  0.45593999997E+02  0.45594000000E+02  0.51100000000E-03 0. -1.
         11   -1    0    0    0    0 -0.00000000000E+00 -0.00000000000E+00 -0.45593999997E+02  0.45594000000E+02  0.51100000000E-03 0.  1.
    9900012    2    1    2    0    0  0.15986023020E+02 -0.33239942435E+01  0.37236599878E+02  0.50528852933E+02  0.29999978975E+02 0.  0.
        -12    1    1    2    0    0 -0.15986023020E+02  0.33239942435E+01 -0.37236599878E+02  0.40659147067E+02  0.00000000000E+00 0.  1.
         11    1    3    3    0    0  0.25504277286E+01 -0.75392906531E+01  0.16523119106E+01  0.81286973164E+01  0.51100000000E-03 0. -1.
        -11    1    3    3    0    0  0.37237428948E+01  0.12648579594E+01 -0.13021568641E+01  0.41426729974E+01  0.51100000000E-03 0.  1.
         12    1    3    3    0    0  0.97118523962E+01  0.29504384502E+01  0.36886444832E+02  0.38257482619E+02  0.00000000000E+00 0. -1.
</event>
<event>
 7    1  0.2945316E-011  0.5052886E+02  0.7816164E-02  0.1300439E+00
        -11   -1    0    0    0    0  0.00000000000E+00  0.00000000000E+00  0.45593999997E+02  0.45594000000E+02  0.51100000000E-03 0.  1.
         11   -1    0    0    0    0 -0.00000000000E+00 -0.00000000000E+00 -0.45593999997E+02  0.45594000000E+02  0.51100000000E-03 0. -1.
    9900012    2    1    2    0    0  0.58696613065E+01 -0.29326920969E+02 -0.27543496594E+02  0.50528862995E+02  0.30000009560E+02 0.  0.
        -12    1    1    2    0    0 -0.58696613065E+01  0.29326920969E+02  0.27543496594E+02  0.40659137005E+02  0.00000000000E+00 0.  1.
         11    1    3    3    0    0  0.97541044311E+01 -0.22744268710E+02 -0.13807947543E+02  0.28339084812E+02  0.51100000000E-03 0. -1.
        -11    1    3    3    0    0  0.28419299117E+01 -0.93869770941E+01 -0.99755897425E+01  0.13989435141E+02  0.51100000000E-03 0.  1.
        -12    1    3    3    0    0 -0.67263730363E+01  0.28043248349E+01 -0.37599593086E+01  0.82003430420E+01  0.00000000000E+00 0.  1.
</event>
<event>
 7    1  0.2945316E-011  0.5052886E+02  0.7816164E-02  0.1300439E+00
        -11   -1    0    0    0    0  0.00000000000E+00  0.00000000000E+00  0.45593999997E+02  0.45594000000E+02  0.51100000000E-03 0. -1.
         11   -1    0    0    0    0 -0.00000000000E+00 -0.00000000000E+00 -0.45593999997E+02  0.45594000000E+02  0.51100000000E-03 0.  1.
    9900012    2    1    2    0    0  0.38442577189E+02 -0.11952914099E+02  0.56975320982E+01  0.50528858735E+02  0.29999996611E+02 0.  0.
        -12    1    1    2    0    0 -0.38442577189E+02  0.11952914099E+02 -0.56975320982E+01  0.40659141265E+02  0.00000000000E+00 0.  1.
         11    1    3    3    0    0  0.52660129370E+01  0.30581523336E+01  0.27563241345E+01  0.66843482064E+01  0.51100000000E-03 0. -1.
        -11    1    3    3    0    0 -0.22763822102E-01 -0.82987692616E+01 -0.40890703115E+01  0.92515180226E+01  0.51100000000E-03 0.  1.
         12    1    3    3    0    0  0.33199328074E+02 -0.67122971712E+01  0.70302782752E+01  0.34592992506E+02  0.00000000000E+00 0. -1.
</event>
<event>
 7    1  0.2945316E-011  0.5052889E+02  0.7816164E-02  0.1300439E+00
        -11   -1    0    0    0    0  0.00000000000E+00  0.00000000000E+00  0.45593999997E+02  0.45594000000E+02  0.51100000000E-03 0.  1.
         11   -1    0    0    0    0 -0.00000000000E+00 -0.00000000000E+00 -0.45593999997E+02  0.45594000000E+02  0.51100000000E-03 0. -1.
    9900012    2    1    2    0    0 -0.34035302064E+02  0.21625536842E+02  0.52055000024E+01  0.50528894494E+02  0.30000105303E+02 0.  0.
        -12    1    1    2    0    0  0.34035302064E+02 -0.21625536842E+02 -0.52055000024E+01  0.40659105506E+02  0.00000000000E+00 0.  1.
         11    1    3    3    0    0 -0.18346654102E+02  0.11073191943E+02  0.58539987219E+01  0.22214513225E+02  0.51100000000E-03 0. -1.
        -11    1    3    3    0    0 -0.15195208674E+02  0.12096923691E+01  0.64689089998E+01  0.16559121541E+02  0.51100000000E-03 0.  1.
        -12    1    3    3    0    0 -0.49343928780E+00  0.93426525305E+01 -0.71174077192E+01  0.11755259728E+02  0.00000000000E+00 0.  1.
</event>
<event>
 7    1  0.2945316E-011  0.5052886E+02  0.7816164E-02  0.1300439E+00
        -11   -1    0    0    0    0  0.00000000000E+00  0.00000000000E+00  0.45593999997E+02  0.45594000000E+02  0.51100000000E-03 0. -1.
         11   -1    0    0    0    0 -0.00000000000E+00 -0.00000000000E+00 -0.45593999997E+02  0.45594000000E+02  0.51100000000E-03 0.  1.
    9900012    2    1    2    0    0 -0.20594316027E+02  0.37675377582E+01  0.34854627826E+02  0.50528864812E+02  0.30000015082E+02 0.  0.
        -12    1    1    2    0    0  0.20594316027E+02 -0.37675377582E+01 -0.34854627826E+02  0.40659135188E+02  0.00000000000E+00 0.  1.
         11    1    3    3    0    0 -0.29434047451E+00 -0.23393223205E+01  0.13244107926E+02  0.13452340327E+02  0.51100000000E-03 0.  1.
        -11    1    3    3    0    0 -0.81059862162E+01 -0.51226236795E+01  0.17566798622E+02  0.20013512935E+02  0.51100000000E-03 0. -1.
        -12    1    3    3    0    0 -0.12193989336E+02  0.11229483758E+02  0.40437212772E+01  0.17063011550E+02  0.00000000000E+00 0.  1.
</event>
<event>
 7    1  0.2945316E-011  0.5052886E+02  0.7816164E-02  0.1300439E+00
        -11   -1    0    0    0    0  0.00000000000E+00  0.00000000000E+00  0.45593999997E+02  0.45594000000E+02  0.51100000000E-03 0.  1.
         11   -1    0    0    0    0 -0.00000000000E+00 -0.00000000000E+00 -0.45593999997E+02  0.45594000000E+02  0.51100000000E-03 0. -1.
    9900012    2    1    2    0    0  0.50470968690E+01 -0.34270868835E+02 -0.21288493275E+02  0.50528861010E+02  0.30000003526E+02 0.  0.
        -12    1    1    2    0    0 -0.50470968690E+01  0.34270868835E+02  0.21288493275E+02  0.40659138990E+02  0.00000000000E+00 0.  1.
         11    1    3    3    0    0  0.74539388632E+01 -0.10054525120E+02 -0.58840142707E+01  0.13830267682E+02  0.51100000000E-03 0. -1.
        -11    1    3    3    0    0  0.71925208987E+01 -0.21386988280E+02 -0.14097596885E+02  0.26605974193E+02  0.51100000000E-03 0.  1.
        -12    1    3    3    0    0 -0.95993628929E+01 -0.28293554348E+01 -0.13068821200E+01  0.10092619135E+02  0.00000000000E+00 0.  1.
</event>
<event>
 7    1  0.2945316E-011  0.5052888E+02  0.7816164E-02  0.1300439E+00
        -11   -1    0    0    0    0  0.00000000000E+00  0.00000000000E+00  0.45593999997E+02  0.45594000000E+02  0.51100000000E-03 0. -1.
         11   -1    0    0    0    0 -0.00000000000E+00 -0.00000000000E+00 -0.45593999997E+02  0.45594000000E+02  0.51100000000E-03 0.  1.
    9900012    2    1    2    0    0 -0.16905845018E+02  0.21080993149E+02  0.30380066296E+02  0.50528876841E+02  0.30000051646E+02 0.  0.
        -12    1    1    2    0    0  0.16905845018E+02 -0.21080993149E+02 -0.30380066296E+02  0.40659123159E+02  0.00000000000E+00 0.  1.
         11    1    3    3    0    0 -0.20956154543E+01  0.85050036088E+00  0.61913470157E+01  0.65914894467E+01  0.51100000000E-03 0.  1.
        -11    1    3    3    0    0 -0.28628072982E+01 -0.45790815634E+00  0.19344837974E+02  0.19560881933E+02  0.51100000000E-03 0. -1.
        -12    1    3    3    0    0 -0.11947422265E+02  0.20688400944E+02  0.48438813070E+01  0.24376505461E+02  0.00000000000E+00 0.  1.
</event>
<event>
 7    1  0.2945316E-011  0.5052886E+02  0.7816164E-02  0.1300439E+00
        -11   -1    0    0    0    0  0.00000000000E+00  0.00000000000E+00  0.45593999997E+02  0.45594000000E+02  0.51100000000E-03 0. -1.
         11   -1    0    0    0    0 -0.00000000000E+00 -0.00000000000E+00 -0.45593999997E+02  0.45594000000E+02  0.51100000000E-03 0.  1.
    9900012    2    1    2    0    0  0.22798786971E+02 -0.33638186956E+02  0.13615272088E+01  0.50528855083E+02  0.29999985511E+02 0.  0.
        -12    1    1    2    0    0 -0.22798786971E+02  0.33638186956E+02 -0.13615272088E+01  0.40659144917E+02  0.00000000000E+00 0.  1.
         11    1    3    3    0    0  0.47319164215E+01 -0.17965788895E+02  0.28373841925E+01  0.18793917978E+02  0.51100000000E-03 0. -1.
        -11    1    3    3    0    0  0.65434680452E+01 -0.13847197350E+02  0.74632282976E+01  0.17037066220E+02  0.51100000000E-03 0.  1.
        -12    1    3    3    0    0  0.11523402504E+02 -0.18252007113E+01 -0.89390852814E+01  0.14697870886E+02  0.00000000000E+00 0.  1.
</event>
<event>
 7    1  0.2945316E-011  0.5052883E+02  0.7816164E-02  0.1300439E+00
        -11   -1    0    0    0    0  0.00000000000E+00  0.00000000000E+00  0.45593999997E+02  0.45594000000E+02  0.51100000000E-03 0.  1.
         11   -1    0    0    0    0 -0.00000000000E+00 -0.00000000000E+00 -0.45593999997E+02  0.45594000000E+02  0.51100000000E-03 0. -1.
    9900012    2    1    2    0    0 -0.97433717297E+01 -0.33422907568E+02 -0.21003426266E+02  0.50528831811E+02  0.29999914772E+02 0.  0.
        -12    1    1    2    0    0  0.97433717297E+01  0.33422907568E+02  0.21003426266E+02  0.40659168189E+02  0.00000000000E+00 0.  1.
         11    1    3    3    0    0 -0.14551552827E+02 -0.17296015351E+02 -0.70346468505E+01  0.23672475435E+02  0.51100000000E-03 0. -1.
        -11    1    3    3    0    0 -0.49330765419E+01 -0.12296439672E+01 -0.38897271206E+01  0.64013471854E+01  0.51100000000E-03 0.  1.
        -12    1    3    3    0    0  0.97412576388E+01 -0.14897248250E+02 -0.10079052294E+02  0.20455009190E+02  0.00000000000E+00 0.  1.
</event>
<event>
 7    1  0.2945316E-011  0.5052886E+02  0.7816164E-02  0.1300439E+00
        -11   -1    0    0    0    0  0.00000000000E+00  0.00000000000E+00  0.45593999997E+02  0.45594000000E+02  0.51100000000E-03 0. -1.
         11   -1    0    0    0    0 -0.00000000000E+00 -0.00000000000E+00 -0.45593999997E+02  0.45594000000E+02  0.51100000000E-03 0.  1.
    9900012    2    1    2    0    0 -0.20303376599E+02  0.27687321518E+02  0.21779599641E+02  0.50528857920E+02  0.29999994133E+02 0.  0.
        -12    1    1    2    0    0  0.20303376599E+02 -0.27687321518E+02 -0.21779599641E+02  0.40659142080E+02  0.00000000000E+00 0.  1.
         11    1    3    3    0    0 -0.81058183140E+01  0.92038333420E+01  0.21326123659E+02  0.24601186746E+02  0.51100000000E-03 0. -1.
        -11    1    3    3    0    0 -0.27009855565E+01 -0.17973545146E+01 -0.12315350731E+01  0.34702283967E+01  0.51100000000E-03 0.  1.
         12    1    3    3    0    0 -0.94965727281E+01  0.20280842691E+02  0.16850110554E+01  0.22457442777E+02  0.00000000000E+00 0. -1.
</event>
<event>
 7    1  0.2945316E-011  0.5052886E+02  0.7816164E-02  0.1300439E+00
        -11   -1    0    0    0    0  0.00000000000E+00  0.00000000000E+00  0.45593999997E+02  0.45594000000E+02  0.51100000000E-03 0.  1.
         11   -1    0    0    0    0 -0.00000000000E+00 -0.00000000000E+00 -0.45593999997E+02  0.45594000000E+02  0.51100000000E-03 0. -1.
    9900012    2    1    2    0    0  0.37787538678E+02 -0.17975852079E+00 -0.15007844909E+02  0.50528858331E+02  0.29999995384E+02 0.  0.
        -12    1    1    2    0    0 -0.37787538678E+02  0.17975852079E+00  0.15007844909E+02  0.40659141669E+02  0.00000000000E+00 0.  1.
         11    1    3    3    0    0 -0.64864931236E+00  0.47975378783E+01 -0.11021387961E+01  0.49650605042E+01  0.51100000000E-03 0. -1.
        -11    1    3    3    0    0  0.11030100714E+02  0.57517587549E+01  0.11724598042E+01  0.12494819438E+02  0.51100000000E-03 0.  1.
         12    1    3    3    0    0  0.27406087276E+02 -0.10729055154E+02 -0.15078165917E+02  0.33068978389E+02  0.00000000000E+00 0. -1.
</event>
<event>
 7    1  0.2945316E-011  0.5052885E+02  0.7816164E-02  0.1300439E+00
        -11   -1    0    0    0    0  0.00000000000E+00  0.00000000000E+00  0.45593999997E+02  0.45594000000E+02  0.51100000000E-03 0. -1.
         11   -1    0    0    0    0 -0.00000000000E+00 -0.00000000000E+00 -0.45593999997E+02  0.45594000000E+02  0.51100000000E-03 0.  1.
    9900012    2    1    2    0    0  0.34273384711E+02 -0.10508650764E+02  0.19185144205E+02  0.50528850986E+02  0.29999973056E+02 0.  0.
        -12    1    1    2    0    0 -0.34273384711E+02  0.10508650764E+02 -0.19185144205E+02  0.40659149014E+02  0.00000000000E+00 0.  1.
         11    1    3    3    0    0  0.12852200540E+02 -0.76066499308E+01  0.14960311768E+02  0.21138853099E+02  0.51100000000E-03 0. -1.
        -11    1    3    3    0    0  0.13125846513E+02  0.65134733778E+01  0.74435419136E+01  0.16435312550E+02  0.51100000000E-03 0.  1.
        -12    1    3    3    0    0  0.82953376575E+01 -0.94154742108E+01 -0.32187094773E+01  0.12954685336E+02  0.00000000000E+00 0.  1.
</event>
<event>
 7    1  0.2945316E-011  0.5052887E+02  0.7816164E-02  0.1300439E+00
        -11   -1    0    0    0    0  0.00000000000E+00  0.00000000000E+00  0.45593999997E+02  0.45594000000E+02  0.51100000000E-03 0.  1.
         11   -1    0    0    0    0 -0.00000000000E+00 -0.00000000000E+00 -0.45593999997E+02  0.45594000000E+02  0.51100000000E-03 0. -1.
    9900012    2    1    2    0    0 -0.29695405596E+02  0.27299692182E+02 -0.51062942253E+01  0.50528873749E+02  0.30000042247E+02 0.  0.
        -12    1    1    2    0    0  0.29695405596E+02 -0.27299692182E+02  0.51062942253E+01  0.40659126251E+02  0.00000000000E+00 0.  1.
         11    1    3    3    0    0 -0.90200722241E+01  0.15919479515E+01 -0.34469104592E+01  0.97865823035E+01  0.51100000000E-03 0. -1.
        -11    1    3    3    0    0 -0.21792972698E+02  0.91843041816E+01  0.21559979610E+01  0.23747282577E+02  0.51100000000E-03 0.  1.
         12    1    3    3    0    0  0.11176393254E+01  0.16523440049E+02 -0.38153817271E+01  0.16995008869E+02  0.00000000000E+00 0. -1.
</event>
<event>
 7    1  0.2945316E-011  0.5052885E+02  0.7816164E-02  0.1300439E+00
        -11   -1    0    0    0    0  0.00000000000E+00  0.00000000000E+00  0.45593999997E+02  0.45594000000E+02  0.51100000000E-03 0.  1.
         11   -1    0    0    0    0 -0.00000000000E+00 -0.00000000000E+00 -0.45593999997E+02  0.45594000000E+02  0.51100000000E-03 0. -1.
    9900012    2    1    2    0    0  0.35736503614E+02 -0.18568730208E+02 -0.55920265780E+01  0.50528853509E+02  0.29999980727E+02 0.  0.
        -12    1    1    2    0    0 -0.35736503614E+02  0.18568730208E+02  0.55920265780E+01  0.40659146491E+02  0.00000000000E+00 0.  1.
         11    1    3    3    0    0  0.19848421597E+01 -0.98553487319E+01  0.21558011712E+01  0.10281778833E+02  0.51100000000E-03 0. -1.
        -11    1    3    3    0    0  0.65451595486E+01 -0.96575717577E+01  0.85343034340E+00  0.11697698465E+02  0.51100000000E-03 0.  1.
         12    1    3    3    0    0  0.27206501906E+02  0.94419028145E+00 -0.86012580927E+01  0.28549376211E+02  0.00000000000E+00 0. -1.
</event>
<event>
 7    1  0.2945316E-011  0.5052886E+02  0.7816164E-02  0.1300439E+00
        -11   -1    0    0    0    0  0.00000000000E+00  0.00000000000E+00  0.45593999997E+02  0.45594000000E+02  0.51100000000E-03 0. -1.
         11   -1    0    0    0    0 -0.00000000000E+00 -0.00000000000E+00 -0.45593999997E+02  0.45594000000E+02  0.51100000000E-03 0.  1.
    9900012    2    1    2    0    0  0.15470518890E+02  0.31986468467E+02  0.19765984507E+02  0.50528864947E+02  0.30000015494E+02 0.  0.
        -12    1    1    2    0    0 -0.15470518890E+02 -0.31986468467E+02 -0.19765984507E+02  0.40659135053E+02  0.00000000000E+00 0.  1.
         11    1    3    3    0    0  0.19154313480E+02  0.16744027254E+02  0.11195560397E+02  0.27795516661E+02  0.51100000000E-03 0. -1.
        -11    1    3    3    0    0 -0.71571025755E+00  0.81346002550E+01  0.11825597319E+02  0.14371106941E+02  0.51100000000E-03 0.  1.
        -12    1    3    3    0    0 -0.29680843334E+01  0.71078409580E+01 -0.32551732095E+01  0.83622413454E+01  0.00000000000E+00 0.  1.
</event>
<event>
 7    1  0.2945316E-011  0.5052887E+02  0.7816164E-02  0.1300439E+00
        -11   -1    0    0    0    0  0.00000000000E+00  0.00000000000E+00  0.45593999997E+02  0.45594000000E+02  0.51100000000E-03 0.  1.
         11   -1    0    0    0    0 -0.00000000000E+00 -0.00000000000E+00 -0.45593999997E+02  0.45594000000E+02  0.51100000000E-03 0. -1.
    9900012    2    1    2    0    0  0.14310589879E+02  0.24270811876E+01 -0.37980007307E+02  0.50528872355E+02  0.30000038012E+02 0.  0.
        -12    1    1    2    0    0 -0.14310589879E+02 -0.24270811876E+01  0.37980007307E+02  0.40659127645E+02  0.00000000000E+00 0.  1.
         11    1    3    3    0    0  0.43174014233E+01  0.77389496855E+01 -0.34526767624E+01  0.95106400610E+01  0.51100000000E-03 0. -1.
        -11    1    3    3    0    0  0.67781974210E+01  0.34138038559E+01 -0.30214583402E+01  0.81686735647E+01  0.51100000000E-03 0.  1.
        -12    1    3    3    0    0  0.32149910352E+01 -0.87256723538E+01 -0.31505872204E+02  0.32849558730E+02  0.00000000000E+00 0.  1.
</event>
<event>
 7    1  0.2945316E-011  0.5052887E+02  0.7816164E-02  0.1300439E+00
        -11   -1    0    0    0    0  0.00000000000E+00  0.00000000000E+00  0.45593999997E+02  0.45594000000E+02  0.51100000000E-03 0. -1.
         11   -1    0    0    0    0 -0.00000000000E+00 -0.00000000000E+00 -0.45593999997E+02  0.45594000000E+02  0.51100000000E-03 0.  1.
    9900012    2    1    2    0    0  0.90199019104E+00  0.36812684621E+02  0.17238831369E+02  0.50528872583E+02  0.30000038703E+02 0.  0.
        -12    1    1    2    0    0 -0.90199019104E+00 -0.36812684621E+02 -0.17238831369E+02  0.40659127417E+02  0.00000000000E+00 0.  1.
         11    1    3    3    0    0  0.39469986505E+01  0.33332945056E+01  0.17018147290E+01  0.54392852694E+01  0.51100000000E-03 0. -1.
        -11    1    3    3    0    0 -0.19347257027E+01  0.16427155351E+02 -0.60013147413E+01  0.17595748786E+02  0.51100000000E-03 0.  1.
        -12    1    3    3    0    0 -0.11102827568E+01  0.17052234765E+02  0.21538331381E+02  0.27493838528E+02  0.00000000000E+00 0.  1.
</event>
<event>
 7    1  0.2945316E-011  0.5052887E+02  0.7816164E-02  0.1300439E+00
        -11   -1    0    0    0    0  0.00000000000E+00  0.00000000000E+00  0.45593999997E+02  0.45594000000E+02  0.51100000000E-03 0. -1.
         11   -1    0    0    0    0 -0.00000000000E+00 -0.00000000000E+00 -0.45593999997E+02  0.45594000000E+02  0.51100000000E-03 0.  1.
    9900012    2    1    2    0    0  0.26145925680E+01  0.40435092468E+02 -0.33662661729E+01  0.50528873778E+02  0.30000042337E+02 0.  0.
        -12    1    1    2    0    0 -0.26145925680E+01 -0.40435092468E+02  0.33662661729E+01  0.40659126222E+02  0.00000000000E+00 0.  1.
         11    1    3    3    0    0  0.20356517175E+01  0.24244409590E+02 -0.11467965209E+02  0.26897016574E+02  0.51100000000E-03 0. -1.
        -11    1    3    3    0    0  0.36496213826E+01  0.18768609358E+01 -0.31454760198E+01  0.51707216963E+01  0.51100000000E-03 0.  1.
         12    1    3    3    0    0 -0.30706805321E+01  0.14313821941E+02  0.11247175056E+02  0.18461135508E+02  0.00000000000E+00 0. -1.
</event>
<event>
 7    1  0.2945316E-011  0.5052887E+02  0.7816164E-02  0.1300439E+00
        -11   -1    0    0    0    0  0.00000000000E+00  0.00000000000E+00  0.45593999997E+02  0.45594000000E+02  0.51100000000E-03 0.  1.
         11   -1    0    0    0    0 -0.00000000000E+00 -0.00000000000E+00 -0.45593999997E+02  0.45594000000E+02  0.51100000000E-03 0. -1.
    9900012    2    1    2    0    0  0.32285516653E+02 -0.38351432746E+01 -0.24415206624E+02  0.50528865430E+02  0.30000016961E+02 0.  0.
        -12    1    1    2    0    0 -0.32285516653E+02  0.38351432746E+01  0.24415206624E+02  0.40659134570E+02  0.00000000000E+00 0.  1.
         11    1    3    3    0    0  0.55765938169E+01  0.75154208983E+00 -0.17841130775E+02  0.18707462727E+02  0.51100000000E-03 0. -1.
        -11    1    3    3    0    0  0.10475839603E+01 -0.18544814197E+01 -0.56058788025E+01  0.59968667568E+01  0.51100000000E-03 0.  1.
        -12    1    3    3    0    0  0.25661338876E+02 -0.27322039447E+01 -0.96819704701E+00  0.25824535946E+02  0.00000000000E+00 0.  1.
</event>
<event>
 7    1  0.2945316E-011  0.5052887E+02  0.7816164E-02  0.1300439E+00
        -11   -1    0    0    0    0  0.00000000000E+00  0.00000000000E+00  0.45593999997E+02  0.45594000000E+02  0.51100000000E-03 0.  1.
         11   -1    0    0    0    0 -0.00000000000E+00 -0.00000000000E+00 -0.45593999997E+02  0.45594000000E+02  0.51100000000E-03 0. -1.
    9900012    2    1    2    0    0  0.45591425197E+01 -0.83028635421E+01 -0.39540383560E+02  0.50528865041E+02  0.30000015778E+02 0.  0.
        -12    1    1    2    0    0 -0.45591425197E+01  0.83028635421E+01  0.39540383560E+02  0.40659134959E+02  0.00000000000E+00 0.  1.
         11    1    3    3    0    0 -0.70422561188E+01 -0.16477238601E+01 -0.23063922035E+02  0.24171323196E+02  0.51100000000E-03 0. -1.
        -11    1    3    3    0    0 -0.25736233441E+01  0.22691192752E+01 -0.10559995881E+01  0.35899268508E+01  0.51100000000E-03 0.  1.
        -12    1    3    3    0    0  0.14175021983E+02 -0.89242589572E+01 -0.15420461937E+02  0.22767614994E+02  0.00000000000E+00 0.  1.
</event>
<event>
 7    1  0.2945316E-011  0.5052887E+02  0.7816164E-02  0.1300439E+00
        -11   -1    0    0    0    0  0.00000000000E+00  0.00000000000E+00  0.45593999997E+02  0.45594000000E+02  0.51100000000E-03 0. -1.
         11   -1    0    0    0    0 -0.00000000000E+00 -0.00000000000E+00 -0.45593999997E+02  0.45594000000E+02  0.51100000000E-03 0.  1.
    9900012    2    1    2    0    0  0.27199669423E+02 -0.28563071599E+02  0.98739103381E+01  0.50528865956E+02  0.30000018559E+02 0.  0.
        -12    1    1    2    0    0 -0.27199669423E+02  0.28563071599E+02 -0.98739103381E+01  0.40659134044E+02  0.00000000000E+00 0.  1.
         11    1    3    3    0    0  0.18698887190E+02 -0.19379387450E+02 -0.10453362322E+01  0.26949986423E+02  0.51100000000E-03 0. -1.
        -11    1    3    3    0    0  0.10762083186E+02 -0.65109553781E+01  0.50122928750E+00  0.12588336089E+02  0.51100000000E-03 0.  1.
        -12    1    3    3    0    0 -0.22613009533E+01 -0.26727287707E+01  0.10418017283E+02  0.10990543444E+02  0.00000000000E+00 0.  1.
</event>
<event>
 7    1  0.2945316E-011  0.5052884E+02  0.7816164E-02  0.1300439E+00
        -11   -1    0    0    0    0  0.00000000000E+00  0.00000000000E+00  0.45593999997E+02  0.45594000000E+02  0.51100000000E-03 0. -1.
         11   -1    0    0    0    0 -0.00000000000E+00 -0.00000000000E+00 -0.45593999997E+02  0.45594000000E+02  0.51100000000E-03 0.  1.
    9900012    2    1    2    0    0  0.21767854453E+02  0.31838000898E+02  0.12871261140E+02  0.50528841720E+02  0.29999944892E+02 0.  0.
        -12    1    1    2    0    0 -0.21767854453E+02 -0.31838000898E+02 -0.12871261140E+02  0.40659158280E+02  0.00000000000E+00 0.  1.
         11    1    3    3    0    0  0.17337379592E+02  0.20723458604E+02  0.40894708090E+01  0.27327097164E+02  0.51100000000E-03 0. -1.
        -11    1    3    3    0    0 -0.19095265807E+01 -0.86630983049E+00 -0.40346842661E+01  0.45470278065E+01  0.51100000000E-03 0.  1.
         12    1    3    3    0    0  0.63400014416E+01  0.11980852125E+02  0.12816474597E+02  0.18654716750E+02  0.00000000000E+00 0. -1.
</event>
<event>
 7    1  0.2945316E-011  0.5052887E+02  0.7816164E-02  0.1300439E+00
        -11   -1    0    0    0    0  0.00000000000E+00  0.00000000000E+00  0.45593999997E+02  0.45594000000E+02  0.51100000000E-03 0.  1.
         11   -1    0    0    0    0 -0.00000000000E+00 -0.00000000000E+00 -0.45593999997E+02  0.45594000000E+02  0.51100000000E-03 0. -1.
    9900012    2    1    2    0    0 -0.29209634984E+02 -0.27482280613E+02  0.66848005536E+01  0.50528867176E+02  0.30000022267E+02 0.  0.
        -12    1    1    2    0    0  0.29209634984E+02  0.27482280613E+02 -0.66848005536E+01  0.40659132824E+02  0.00000000000E+00 0.  1.
         11    1    3    3    0    0 -0.96893653831E+00  0.18383569519E+01  0.22571011688E+00  0.20902965378E+01  0.51100000000E-03 0. -1.
        -11    1    3    3    0    0 -0.15117953083E+01  0.13062719427E+01 -0.56746121269E+01  0.60160696883E+01  0.51100000000E-03 0.  1.
         12    1    3    3    0    0 -0.26728903137E+02 -0.30626909508E+02  0.12133702564E+02  0.42422500950E+02  0.00000000000E+00 0. -1.
</event>
<event>
 7    1  0.2945316E-011  0.5052887E+02  0.7816164E-02  0.1300439E+00
        -11   -1    0    0    0    0  0.00000000000E+00  0.00000000000E+00  0.45593999997E+02  0.45594000000E+02  0.51100000000E-03 0.  1.
         11   -1    0    0    0    0 -0.00000000000E+00 -0.00000000000E+00 -0.45593999997E+02  0.45594000000E+02  0.51100000000E-03 0. -1.
    9900012    2    1    2    0    0 -0.15509375365E+02  0.34766354253E+02 -0.14280235390E+02  0.50528865294E+02  0.30000016547E+02 0.  0.
        -12    1    1    2    0    0  0.15509375365E+02 -0.34766354253E+02  0.14280235390E+02  0.40659134706E+02  0.00000000000E+00 0.  1.
         11    1    3    3    0    0 -0.39143616208E+01  0.70649310097E+01  0.94623040470E+00  0.81320864057E+01  0.51100000000E-03 0. -1.
        -11    1    3    3    0    0 -0.12449665444E+02  0.32297884190E+02 -0.14975250121E+02  0.37714792976E+02  0.51100000000E-03 0.  1.
        -12    1    3    3    0    0  0.85465170051E+00 -0.45964609466E+01 -0.25121567423E+00  0.46819859118E+01  0.00000000000E+00 0.  1.
</event>
<event>
 7    1  0.2945316E-011  0.5052887E+02  0.7816164E-02  0.1300439E+00
        -11   -1    0    0    0    0  0.00000000000E+00  0.00000000000E+00  0.45593999997E+02  0.45594000000E+02  0.51100000000E-03 0. -1.
         11   -1    0    0    0    0 -0.00000000000E+00 -0.00000000000E+00 -0.45593999997E+02  0.45594000000E+02  0.51100000000E-03 0.  1.
    9900012    2    1    2    0    0  0.37092712882E+02 -0.16637950817E+02 -0.68876620623E+00  0.50528866276E+02  0.30000019531E+02 0.  0.
        -12    1    1    2    0    0 -0.37092712882E+02  0.16637950817E+02  0.68876620623E+00  0.40659133724E+02  0.00000000000E+00 0.  1.
         11    1    3    3    0    0  0.17945800218E+02 -0.39355104937E+01  0.44495172725E+01  0.18903391032E+02  0.51100000000E-03 0. -1.
        -11    1    3    3    0    0  0.24256600958E+01  0.33603743716E+01 -0.72417016071E+01  0.83437512694E+01  0.51100000000E-03 0.  1.
         12    1    3    3    0    0  0.16721252568E+02 -0.16062814695E+02  0.21034181284E+01  0.23281723974E+02  0.00000000000E+00 0. -1.
</event>
<event>
 7    1  0.2945316E-011  0.5052886E+02  0.7816164E-02  0.1300439E+00
        -11   -1    0    0    0    0  0.00000000000E+00  0.00000000000E+00  0.45593999997E+02  0.45594000000E+02  0.51100000000E-03 0.  1.
         11   -1    0    0    0    0 -0.00000000000E+00 -0.00000000000E+00 -0.45593999997E+02  0.45594000000E+02  0.51100000000E-03 0. -1.
    9900012    2    1    2    0    0  0.20032364395E+02 -0.27186066677E+02 -0.22644826539E+02  0.50528855720E+02  0.29999987446E+02 0.  0.
        -12    1    1    2    0    0 -0.20032364395E+02  0.27186066677E+02  0.22644826539E+02  0.40659144280E+02  0.00000000000E+00 0.  1.
         11    1    3    3    0    0  0.21863453675E+02 -0.31352312890E+02 -0.19085404387E+02  0.42722719846E+02  0.51100000000E-03 0. -1.
        -11    1    3    3    0    0  0.12393981963E+00  0.13750489506E+01  0.12830600418E+01  0.18847716115E+01  0.51100000000E-03 0.  1.
        -12    1    3    3    0    0 -0.19550290992E+01  0.27911972625E+01 -0.48424821936E+01  0.59213642628E+01  0.00000000000E+00 0.  1.
</event>
<event>
 7    1  0.2945316E-011  0.5052886E+02  0.7816164E-02  0.1300439E+00
        -11   -1    0    0    0    0  0.00000000000E+00  0.00000000000E+00  0.45593999997E+02  0.45594000000E+02  0.51100000000E-03 0.  1.
         11   -1    0    0    0    0 -0.00000000000E+00 -0.00000000000E+00 -0.45593999997E+02  0.45594000000E+02  0.51100000000E-03 0. -1.
    9900012    2    1    2    0    0 -0.22663756541E+02  0.20181263251E+02 -0.27059871393E+02  0.50528857279E+02  0.29999992187E+02 0.  0.
        -12    1    1    2    0    0  0.22663756541E+02 -0.20181263251E+02  0.27059871393E+02  0.40659142721E+02  0.00000000000E+00 0.  1.
         11    1    3    3    0    0  0.41097948007E+01  0.72877251511E+01 -0.11195816391E+02  0.13976682586E+02  0.51100000000E-03 0. -1.
        -11    1    3    3    0    0  0.32716076862E+00  0.45028285453E+01 -0.15317539552E+01  0.47674699283E+01  0.51100000000E-03 0.  1.
         12    1    3    3    0    0 -0.27100712111E+02  0.83907095543E+01 -0.14332301047E+02  0.31784704765E+02  0.00000000000E+00 0. -1.
</event>
<event>
 7    1  0.2945316E-011  0.5052886E+02  0.7816164E-02  0.1300439E+00
        -11   -1    0    0    0    0  0.00000000000E+00  0.00000000000E+00  0.45593999997E+02  0.45594000000E+02  0.51100000000E-03 0.  1.
         11   -1    0    0    0    0 -0.00000000000E+00 -0.00000000000E+00 -0.45593999997E+02  0.45594000000E+02  0.51100000000E-03 0. -1.
    9900012    2    1    2    0    0  0.23353649236E+02 -0.17091570446E+02 -0.28559605204E+02  0.50528858809E+02  0.29999996837E+02 0.  0.
        -12    1    1    2    0    0 -0.23353649236E+02  0.17091570446E+02  0.28559605204E+02  0.40659141191E+02  0.00000000000E+00 0.  1.
         11    1    3    3    0    0  0.61358932953E+01  0.52184578211E+00 -0.52836338307E+00  0.61806696787E+01  0.51100000000E-03 0. -1.
        -11    1    3    3    0    0 -0.55419446093E+01 -0.74407002281E+01 -0.57684419371E+01  0.10924838332E+02  0.51100000000E-03 0.  1.
         12    1    3    3    0    0  0.22759700550E+02 -0.10172716000E+02 -0.22262799884E+02  0.33423350799E+02  0.00000000000E+00 0. -1.
</event>
<event>
 7    1  0.2945316E-011  0.5052882E+02  0.7816164E-02  0.1300439E+00
        -11   -1    0    0    0    0  0.00000000000E+00  0.00000000000E+00  0.45593999997E+02  0.45594000000E+02  0.51100000000E-03 0.  1.
         11   -1    0    0    0    0 -0.00000000000E+00 -0.00000000000E+00 -0.45593999997E+02  0.45594000000E+02  0.51100000000E-03 0. -1.
    9900012    2    1    2    0    0  0.11802830752E+02  0.54667899600E+01 -0.38522410233E+02  0.50528822729E+02  0.29999887167E+02 0.  0.
        -12    1    1    2    0    0 -0.11802830752E+02 -0.54667899600E+01  0.38522410233E+02  0.40659177271E+02  0.00000000000E+00 0.  1.
         11    1    3    3    0    0  0.10694866092E+02  0.38164729809E+01 -0.31487699621E+02  0.33472688187E+02  0.51100000000E-03 0. -1.
        -11    1    3    3    0    0  0.68403577218E+01 -0.34105217980E+01 -0.50332432481E+01  0.91518135116E+01  0.51100000000E-03 0.  1.
         12    1    3    3    0    0 -0.57323930623E+01  0.50608387770E+01 -0.20014673635E+01  0.79043210306E+01  0.00000000000E+00 0. -1.
</event>
<event>
 7    1  0.2945316E-011  0.5052886E+02  0.7816164E-02  0.1300439E+00
        -11   -1    0    0    0    0  0.00000000000E+00  0.00000000000E+00  0.45593999997E+02  0.45594000000E+02  0.51100000000E-03 0.  1.
         11   -1    0    0    0    0 -0.00000000000E+00 -0.00000000000E+00 -0.45593999997E+02  0.45594000000E+02  0.51100000000E-03 0. -1.
    9900012    2    1    2    0    0 -0.16241269648E+02  0.10446899189E+02 -0.35780571916E+02  0.50528857497E+02  0.29999992849E+02 0.  0.
        -12    1    1    2    0    0  0.16241269648E+02 -0.10446899189E+02  0.35780571916E+02  0.40659142503E+02  0.00000000000E+00 0.  1.
         11    1    3    3    0    0  0.17624949189E+01 -0.11368566525E+01  0.25280290210E+00  0.21125200486E+01  0.51100000000E-03 0. -1.
        -11    1    3    3    0    0 -0.88562048429E+01  0.80721764434E+01 -0.98426962478E+00  0.12023359918E+02  0.51100000000E-03 0.  1.
         12    1    3    3    0    0 -0.91475597237E+01  0.35115793986E+01 -0.35049105193E+02  0.36392977531E+02  0.00000000000E+00 0. -1.
</event>
<event>
 7    1  0.2945316E-011  0.5052885E+02  0.7816164E-02  0.1300439E+00
        -11   -1    0    0    0    0  0.00000000000E+00  0.00000000000E+00  0.45593999997E+02  0.45594000000E+02  0.51100000000E-03 0. -1.
         11   -1    0    0    0    0 -0.00000000000E+00 -0.00000000000E+00 -0.45593999997E+02  0.45594000000E+02  0.51100000000E-03 0.  1.
    9900012    2    1    2    0    0  0.13042535483E+02 -0.36866014892E+02  0.11133524718E+02  0.50528853938E+02  0.29999982029E+02 0.  0.
        -12    1    1    2    0    0 -0.13042535483E+02  0.36866014892E+02 -0.11133524718E+02  0.40659146062E+02  0.00000000000E+00 0.  1.
         11    1    3    3    0    0 -0.16147572845E+01 -0.24845499523E+02  0.68173411297E+01  0.25814384129E+02  0.51100000000E-03 0. -1.
        -11    1    3    3    0    0  0.17135600053E+01 -0.23927916888E+00 -0.47127568489E+01  0.50203206860E+01  0.51100000000E-03 0.  1.
        -12    1    3    3    0    0  0.12943732763E+02 -0.11781236200E+02  0.90289404372E+01  0.19694149122E+02  0.00000000000E+00 0.  1.
</event>
<event>
 7    1  0.2945316E-011  0.5052886E+02  0.7816164E-02  0.1300439E+00
        -11   -1    0    0    0    0  0.00000000000E+00  0.00000000000E+00  0.45593999997E+02  0.45594000000E+02  0.51100000000E-03 0.  1.
         11   -1    0    0    0    0 -0.00000000000E+00 -0.00000000000E+00 -0.45593999997E+02  0.45594000000E+02  0.51100000000E-03 0. -1.
    9900012    2    1    2    0    0 -0.27610949721E+02  0.86434939509E+00 -0.29833774571E+02  0.50528858967E+02  0.29999997317E+02 0.  0.
        -12    1    1    2    0    0  0.27610949721E+02 -0.86434939509E+00  0.29833774571E+02  0.40659141033E+02  0.00000000000E+00 0.  1.
         11    1    3    3    0    0 -0.14650309260E+02  0.50047125972E+01 -0.91954936395E+01  0.18006549173E+02  0.51100000000E-03 0. -1.
        -11    1    3    3    0    0 -0.17429423087E+02  0.13661134302E+01 -0.11381116000E+02  0.20860988872E+02  0.51100000000E-03 0.  1.
        -12    1    3    3    0    0  0.44687826267E+01 -0.55064766323E+01 -0.92571649319E+01  0.11661320922E+02  0.00000000000E+00 0.  1.
</event>
<event>
 7    1  0.2945316E-011  0.5052876E+02  0.7816164E-02  0.1300439E+00
        -11   -1    0    0    0    0  0.00000000000E+00  0.00000000000E+00  0.45593999997E+02  0.45594000000E+02  0.51100000000E-03 0.  1.
         11   -1    0    0    0    0 -0.00000000000E+00 -0.00000000000E+00 -0.45593999997E+02  0.45594000000E+02  0.51100000000E-03 0. -1.
    9900012    2    1    2    0    0 -0.64102227083E+01  0.10476288455E+02 -0.38759906363E+02  0.50528758538E+02  0.29999692052E+02 0.  0.
        -12    1    1    2    0    0  0.64102227083E+01 -0.10476288455E+02  0.38759906363E+02  0.40659241462E+02  0.00000000000E+00 0.  1.
         11    1    3    3    0    0 -0.57915780037E+00  0.99008042429E+00 -0.14090434609E+02  0.14137044625E+02  0.51100000000E-03 0. -1.
        -11    1    3    3    0    0 -0.29493822714E+01 -0.61272665945E+01 -0.17869481317E+02  0.19119639497E+02  0.51100000000E-03 0.  1.
        -12    1    3    3    0    0 -0.28816826366E+01  0.15613474625E+02 -0.67999904372E+01  0.17272074416E+02  0.00000000000E+00 0.  1.
</event>
<event>
 7    1  0.2945316E-011  0.5052886E+02  0.7816164E-02  0.1300439E+00
        -11   -1    0    0    0    0  0.00000000000E+00  0.00000000000E+00  0.45593999997E+02  0.45594000000E+02  0.51100000000E-03 0. -1.
         11   -1    0    0    0    0 -0.00000000000E+00 -0.00000000000E+00 -0.45593999997E+02  0.45594000000E+02  0.51100000000E-03 0.  1.
    9900012    2    1    2    0    0  0.37172530924E+02 -0.54727148220E+01  0.15537637365E+02  0.50528857883E+02  0.29999994021E+02 0.  0.
        -12    1    1    2    0    0 -0.37172530924E+02  0.54727148220E+01 -0.15537637365E+02  0.40659142117E+02  0.00000000000E+00 0.  1.
         11    1    3    3    0    0  0.13684048496E+02  0.78748722828E+00 -0.64884730637E+01  0.15164880558E+02  0.51100000000E-03 0. -1.
        -11    1    3    3    0    0  0.41315779854E+01  0.33975826538E+01  0.15297837248E+01  0.55636088148E+01  0.51100000000E-03 0.  1.
         12    1    3    3    0    0  0.19356904442E+02 -0.96577847040E+01  0.20496326704E+02  0.29800368510E+02  0.00000000000E+00 0. -1.
</event>
<event>
 7    1  0.2945316E-011  0.5052886E+02  0.7816164E-02  0.1300439E+00
        -11   -1    0    0    0    0  0.00000000000E+00  0.00000000000E+00  0.45593999997E+02  0.45594000000E+02  0.51100000000E-03 0.  1.
         11   -1    0    0    0    0 -0.00000000000E+00 -0.00000000000E+00 -0.45593999997E+02  0.45594000000E+02  0.51100000000E-03 0. -1.
    9900012    2    1    2    0    0 -0.29255396223E+02  0.56258102260E+01 -0.27670161507E+02  0.50528858510E+02  0.29999995928E+02 0.  0.
        -12    1    1    2    0    0  0.29255396223E+02 -0.56258102260E+01  0.27670161507E+02  0.40659141490E+02  0.00000000000E+00 0.  1.
         11    1    3    3    0    0 -0.14659284397E+02  0.15419422498E+02 -0.20924627724E+02  0.29841133606E+02  0.51100000000E-03 0. -1.
        -11    1    3    3    0    0 -0.43534118354E+01  0.11816839546E+01 -0.20778223695E+01  0.49664794007E+01  0.51100000000E-03 0.  1.
        -12    1    3    3    0    0 -0.10242699990E+02 -0.10975296227E+02 -0.46677114134E+01  0.15721245504E+02  0.00000000000E+00 0.  1.
</event>
<event>
 7    1  0.2945316E-011  0.5052886E+02  0.7816164E-02  0.1300439E+00
        -11   -1    0    0    0    0  0.00000000000E+00  0.00000000000E+00  0.45593999997E+02  0.45594000000E+02  0.51100000000E-03 0. -1.
         11   -1    0    0    0    0 -0.00000000000E+00 -0.00000000000E+00 -0.45593999997E+02  0.45594000000E+02  0.51100000000E-03 0.  1.
    9900012    2    1    2    0    0 -0.91394548069E+01 -0.82876382633E+01  0.38742110282E+02  0.50528859684E+02  0.29999999495E+02 0.  0.
        -12    1    1    2    0    0  0.91394548069E+01  0.82876382633E+01 -0.38742110282E+02  0.40659140316E+02  0.00000000000E+00 0.  1.
         11    1    3    3    0    0 -0.26363311012E+01  0.83811034568E+00  0.24160524802E+02  0.24318380489E+02  0.51100000000E-03 0. -1.
        -11    1    3    3    0    0 -0.72974871454E+01 -0.12636079955E+02  0.16585773965E+02  0.22090987609E+02  0.51100000000E-03 0.  1.
         12    1    3    3    0    0  0.79436343977E+00  0.35103313462E+01 -0.20041884856E+01  0.41194915852E+01  0.00000000000E+00 0. -1.
</event>
<event>
 7    1  0.2945316E-011  0.5052884E+02  0.7816164E-02  0.1300439E+00
        -11   -1    0    0    0    0  0.00000000000E+00  0.00000000000E+00  0.45593999997E+02  0.45594000000E+02  0.51100000000E-03 0.  1.
         11   -1    0    0    0    0 -0.00000000000E+00 -0.00000000000E+00 -0.45593999997E+02  0.45594000000E+02  0.51100000000E-03 0. -1.
    9900012    2    1    2    0    0 -0.26580848298E+02 -0.26812859151E+02 -0.15089602114E+02  0.50528843540E+02  0.29999950423E+02 0.  0.
        -12    1    1    2    0    0  0.26580848298E+02  0.26812859151E+02  0.15089602114E+02  0.40659156460E+02  0.00000000000E+00 0.  1.
         11    1    3    3    0    0 -0.23663569920E+01 -0.65554318177E+01 -0.31827600442E+01  0.76618074558E+01  0.51100000000E-03 0. -1.
        -11    1    3    3    0    0  0.17675006466E+01 -0.88276695607E+01  0.45175823093E+01  0.10072753278E+02  0.51100000000E-03 0.  1.
         12    1    3    3    0    0 -0.25981991953E+02 -0.11429757773E+02 -0.16424424379E+02  0.32794282806E+02  0.00000000000E+00 0. -1.
</event>
<event>
 7    1  0.2945316E-011  0.5052885E+02  0.7816164E-02  0.1300439E+00
        -11   -1    0    0    0    0  0.00000000000E+00  0.00000000000E+00  0.45593999997E+02  0.45594000000E+02  0.51100000000E-03 0.  1.
         11   -1    0    0    0    0 -0.00000000000E+00 -0.00000000000E+00 -0.45593999997E+02  0.45594000000E+02  0.51100000000E-03 0. -1.
    9900012    2    1    2    0    0  0.33106259521E+02  0.66077922124E+01 -0.22660080256E+02  0.50528848821E+02  0.29999966475E+02 0.  0.
        -12    1    1    2    0    0 -0.33106259521E+02 -0.66077922124E+01  0.22660080256E+02  0.40659151179E+02  0.00000000000E+00 0.  1.
         11    1    3    3    0    0  0.34257253328E+01  0.39220245415E+01  0.43205329509E+01  0.67664522315E+01  0.51100000000E-03 0. -1.
        -11    1    3    3    0    0  0.73886585528E+01  0.22057843316E+00  0.14680133307E+01  0.75363116612E+01  0.51100000000E-03 0.  1.
         12    1    3    3    0    0  0.22291875636E+02  0.24651892378E+01 -0.28448626537E+02  0.36226084928E+02  0.00000000000E+00 0. -1.
</event>
<event>
 7    1  0.2945316E-011  0.5052890E+02  0.7816164E-02  0.1300439E+00
        -11   -1    0    0    0    0  0.00000000000E+00  0.00000000000E+00  0.45593999997E+02  0.45594000000E+02  0.51100000000E-03 0.  1.
         11   -1    0    0    0    0 -0.00000000000E+00 -0.00000000000E+00 -0.45593999997E+02  0.45594000000E+02  0.51100000000E-03 0. -1.
    9900012    2    1    2    0    0  0.45959444680E+01  0.18968131480E+02 -0.35668614505E+02  0.50528895508E+02  0.30000108386E+02 0.  0.
        -12    1    1    2    0    0 -0.45959444680E+01 -0.18968131480E+02  0.35668614505E+02  0.40659104492E+02  0.00000000000E+00 0.  1.
         11    1    3    3    0    0 -0.19970882521E+01  0.87137625685E+01 -0.23412417172E+02  0.25061111262E+02  0.51100000000E-03 0. -1.
        -11    1    3    3    0    0  0.14515344958E+00  0.13272443961E+02 -0.26898204999E+01  0.13543041490E+02  0.51100000000E-03 0.  1.
         12    1    3    3    0    0  0.64478792706E+01 -0.30180750489E+01 -0.95663768329E+01  0.11924742756E+02  0.00000000000E+00 0. -1.
</event>
<event>
 7    1  0.2945316E-011  0.5052887E+02  0.7816164E-02  0.1300439E+00
        -11   -1    0    0    0    0  0.00000000000E+00  0.00000000000E+00  0.45593999997E+02  0.45594000000E+02  0.51100000000E-03 0.  1.
         11   -1    0    0    0    0 -0.00000000000E+00 -0.00000000000E+00 -0.45593999997E+02  0.45594000000E+02  0.51100000000E-03 0. -1.
    9900012    2    1    2    0    0  0.28775456887E+02  0.20136368397E+02 -0.20485708142E+02  0.50528874464E+02  0.30000044420E+02 0.  0.
        -12    1    1    2    0    0 -0.28775456887E+02 -0.20136368397E+02  0.20485708142E+02  0.40659125536E+02  0.00000000000E+00 0.  1.
         11    1    3    3    0    0 -0.45308900650E+01  0.49093698571E+01 -0.32672255962E+01  0.74367762191E+01  0.51100000000E-03 0. -1.
        -11    1    3    3    0    0  0.89887212763E+01  0.11108041778E+02 -0.29249447326E+01  0.14585643773E+02  0.51100000000E-03 0.  1.
         12    1    3    3    0    0  0.24317625676E+02  0.41189567617E+01 -0.14293537813E+02  0.28506454472E+02  0.00000000000E+00 0. -1.
</event>
<event>
 7    1  0.2945316E-011  0.5052885E+02  0.7816164E-02  0.1300439E+00
        -11   -1    0    0    0    0  0.00000000000E+00  0.00000000000E+00  0.45593999997E+02  0.45594000000E+02  0.51100000000E-03 0.  1.
         11   -1    0    0    0    0 -0.00000000000E+00 -0.00000000000E+00 -0.45593999997E+02  0.45594000000E+02  0.51100000000E-03 0. -1.
    9900012    2    1    2    0    0  0.10156072262E+02  0.38144038357E+02 -0.97495115151E+01  0.50528850467E+02  0.29999971478E+02 0.  0.
        -12    1    1    2    0    0 -0.10156072262E+02 -0.38144038357E+02  0.97495115151E+01  0.40659149533E+02  0.00000000000E+00 0.  1.
         11    1    3    3    0    0  0.23352822945E+01  0.30248998200E+01 -0.31841789838E+01  0.49741892182E+01  0.51100000000E-03 0.  1.
        -11    1    3    3    0    0  0.17674131716E+02  0.24553557517E+02 -0.71835500982E+01  0.31094300296E+02  0.51100000000E-03 0. -1.
        -12    1    3    3    0    0 -0.98533417482E+01  0.10565581021E+02  0.61821756693E+00  0.14460360952E+02  0.00000000000E+00 0.  1.
</event>
<event>
 7    1  0.2945316E-011  0.5052886E+02  0.7816164E-02  0.1300439E+00
        -11   -1    0    0    0    0  0.00000000000E+00  0.00000000000E+00  0.45593999997E+02  0.45594000000E+02  0.51100000000E-03 0. -1.
         11   -1    0    0    0    0 -0.00000000000E+00 -0.00000000000E+00 -0.45593999997E+02  0.45594000000E+02  0.51100000000E-03 0.  1.
    9900012    2    1    2    0    0 -0.16002122447E+02  0.69657960203E+00  0.37371284672E+02  0.50528855101E+02  0.29999985564E+02 0.  0.
        -12    1    1    2    0    0  0.16002122447E+02 -0.69657960203E+00 -0.37371284672E+02  0.40659144899E+02  0.00000000000E+00 0.  1.
         11    1    3    3    0    0  0.25583025438E+01 -0.40920496778E+01  0.11176116808E+02  0.12173552055E+02  0.51100000000E-03 0. -1.
        -11    1    3    3    0    0 -0.40503528805E+01  0.10310353509E+02  0.17062985577E+02  0.20343407409E+02  0.51100000000E-03 0.  1.
        -12    1    3    3    0    0 -0.14510072110E+02 -0.55217242297E+01  0.91321822869E+01  0.18011895637E+02  0.00000000000E+00 0.  1.
</event>
<event>
 7    1  0.2945316E-011  0.5052886E+02  0.7816164E-02  0.1300439E+00
        -11   -1    0    0    0    0  0.00000000000E+00  0.00000000000E+00  0.45593999997E+02  0.45594000000E+02  0.51100000000E-03 0.  1.
         11   -1    0    0    0    0 -0.00000000000E+00 -0.00000000000E+00 -0.45593999997E+02  0.45594000000E+02  0.51100000000E-03 0. -1.
    9900012    2    1    2    0    0  0.58798844979E+01  0.39207475420E+02 -0.90203566006E+01  0.50528855841E+02  0.29999987814E+02 0.  0.
        -12    1    1    2    0    0 -0.58798844979E+01 -0.39207475420E+02  0.90203566006E+01  0.40659144159E+02  0.00000000000E+00 0.  1.
         11    1    3    3    0    0  0.76617279235E+01  0.61857992897E+01  0.10509585672E+00  0.98477019160E+01  0.51100000000E-03 0. -1.
        -11    1    3    3    0    0  0.80852743346E+01  0.52222556511E+01  0.53764863633E+00  0.96401598259E+01  0.51100000000E-03 0.  1.
         12    1    3    3    0    0 -0.98671177602E+01  0.27799420480E+02 -0.96631010937E+01  0.31040994099E+02  0.00000000000E+00 0. -1.
</event>
<event>
 7    1  0.2945316E-011  0.5052886E+02  0.7816164E-02  0.1300439E+00
        -11   -1    0    0    0    0  0.00000000000E+00  0.00000000000E+00  0.45593999997E+02  0.45594000000E+02  0.51100000000E-03 0.  1.
         11   -1    0    0    0    0 -0.00000000000E+00 -0.00000000000E+00 -0.45593999997E+02  0.45594000000E+02  0.51100000000E-03 0. -1.
    9900012    2    1    2    0    0 -0.28504518553E+02  0.90539353331E+01 -0.27544231400E+02  0.50528855809E+02  0.29999987716E+02 0.  0.
        -12    1    1    2    0    0  0.28504518553E+02 -0.90539353331E+01  0.27544231400E+02  0.40659144191E+02  0.00000000000E+00 0.  1.
         11    1    3    3    0    0 -0.88911665089E+01  0.26752474268E+01 -0.11215781216E+01  0.93524183197E+01  0.51100000000E-03 0. -1.
        -11    1    3    3    0    0 -0.19873703549E+02  0.83113593888E+01 -0.85159458832E+01  0.23163853785E+02  0.51100000000E-03 0.  1.
        -12    1    3    3    0    0  0.26035150446E+00 -0.19326714826E+01 -0.17906707395E+02  0.18012583704E+02  0.00000000000E+00 0.  1.
</event>
<event>
 7    1  0.2945316E-011  0.5052886E+02  0.7816164E-02  0.1300439E+00
        -11   -1    0    0    0    0  0.00000000000E+00  0.00000000000E+00  0.45593999997E+02  0.45594000000E+02  0.51100000000E-03 0. -1.
         11   -1    0    0    0    0 -0.00000000000E+00 -0.00000000000E+00 -0.45593999997E+02  0.45594000000E+02  0.51100000000E-03 0.  1.
    9900012    2    1    2    0    0 -0.18513999449E+02 -0.31809325501E+02  0.17279020088E+02  0.50528857121E+02  0.29999991706E+02 0.  0.
        -12    1    1    2    0    0  0.18513999449E+02  0.31809325501E+02 -0.17279020088E+02  0.40659142879E+02  0.00000000000E+00 0.  1.
         11    1    3    3    0    0 -0.13113339007E+02 -0.10703331963E+02  0.47661617760E+01  0.17585143541E+02  0.51100000000E-03 0. -1.
        -11    1    3    3    0    0 -0.55129843549E+01  0.42489833991E+00  0.97866234675E+01  0.11240619834E+02  0.51100000000E-03 0.  1.
        -12    1    3    3    0    0  0.11232391315E+00 -0.21530891878E+02  0.27262348445E+01  0.21703093746E+02  0.00000000000E+00 0.  1.
</event>
<event>
 7    1  0.2945316E-011  0.5052886E+02  0.7816164E-02  0.1300439E+00
        -11   -1    0    0    0    0  0.00000000000E+00  0.00000000000E+00  0.45593999997E+02  0.45594000000E+02  0.51100000000E-03 0. -1.
         11   -1    0    0    0    0 -0.00000000000E+00 -0.00000000000E+00 -0.45593999997E+02  0.45594000000E+02  0.51100000000E-03 0.  1.
    9900012    2    1    2    0    0  0.39694411586E+02 -0.88044817038E+01  0.24883911859E-01  0.50528857996E+02  0.29999994366E+02 0.  0.
        -12    1    1    2    0    0 -0.39694411586E+02  0.88044817038E+01 -0.24883911859E-01  0.40659142004E+02  0.00000000000E+00 0.  1.
         11    1    3    3    0    0  0.80182660232E+01 -0.32268936545E+00  0.97790352394E+01  0.12650148178E+02  0.51100000000E-03 0. -1.
        -11    1    3    3    0    0 -0.72112925987E+00 -0.35593206510E+01  0.18236749797E+00  0.36362135624E+01  0.51100000000E-03 0.  1.
         12    1    3    3    0    0  0.32397274823E+02 -0.49224716874E+01 -0.99365188255E+01  0.34242496256E+02  0.00000000000E+00 0. -1.
</event>
<event>
 7    1  0.2945316E-011  0.5052888E+02  0.7816164E-02  0.1300439E+00
        -11   -1    0    0    0    0  0.00000000000E+00  0.00000000000E+00  0.45593999997E+02  0.45594000000E+02  0.51100000000E-03 0.  1.
         11   -1    0    0    0    0 -0.00000000000E+00 -0.00000000000E+00 -0.45593999997E+02  0.45594000000E+02  0.51100000000E-03 0. -1.
    9900012    2    1    2    0    0  0.81622073396E+01 -0.38737637014E+02  0.92702905325E+01  0.50528875112E+02  0.30000046391E+02 0.  0.
        -12    1    1    2    0    0 -0.81622073396E+01  0.38737637014E+02 -0.92702905325E+01  0.40659124888E+02  0.00000000000E+00 0.  1.
         11    1    3    3    0    0 -0.11215019945E+01 -0.99596386200E+01 -0.17999422367E+01  0.10182924947E+02  0.51100000000E-03 0. -1.
        -11    1    3    3    0    0  0.26981730431E+01 -0.22461555604E+01 -0.68233188920E+01  0.76735281022E+01  0.51100000000E-03 0.  1.
        -12    1    3    3    0    0  0.65855362909E+01 -0.26531842834E+02  0.17893551661E+02  0.32672422063E+02  0.00000000000E+00 0.  1.
</event>
<event>
 7    1  0.2945316E-011  0.5052886E+02  0.7816164E-02  0.1300439E+00
        -11   -1    0    0    0    0  0.00000000000E+00  0.00000000000E+00  0.45593999997E+02  0.45594000000E+02  0.51100000000E-03 0.  1.
         11   -1    0    0    0    0 -0.00000000000E+00 -0.00000000000E+00 -0.45593999997E+02  0.45594000000E+02  0.51100000000E-03 0. -1.
    9900012    2    1    2    0    0 -0.27879805039E+02 -0.21092283411E+02 -0.20760486812E+02  0.50528858824E+02  0.29999996882E+02 0.  0.
        -12    1    1    2    0    0  0.27879805039E+02  0.21092283411E+02  0.20760486812E+02  0.40659141176E+02  0.00000000000E+00 0.  1.
         11    1    3    3    0    0 -0.79088285653E+01 -0.28490483610E+00 -0.30453264533E+01  0.84796670636E+01  0.51100000000E-03 0.  1.
        -11    1    3    3    0    0 -0.22712754644E+02 -0.11418999694E+02 -0.48365620402E+01  0.25877695225E+02  0.51100000000E-03 0. -1.
        -12    1    3    3    0    0  0.27417781705E+01 -0.93883788807E+01 -0.12878598318E+02  0.16171496535E+02  0.00000000000E+00 0.  1.
</event>
<event>
 7    1  0.2945316E-011  0.5052886E+02  0.7816164E-02  0.1300439E+00
        -11   -1    0    0    0    0  0.00000000000E+00  0.00000000000E+00  0.45593999997E+02  0.45594000000E+02  0.51100000000E-03 0.  1.
         11   -1    0    0    0    0 -0.00000000000E+00 -0.00000000000E+00 -0.45593999997E+02  0.45594000000E+02  0.51100000000E-03 0. -1.
    9900012    2    1    2    0    0 -0.60684738827E+01  0.31424310748E+02 -0.25076923552E+02  0.50528858641E+02  0.29999996324E+02 0.  0.
        -12    1    1    2    0    0  0.60684738827E+01 -0.31424310748E+02  0.25076923552E+02  0.40659141359E+02  0.00000000000E+00 0.  1.
         11    1    3    3    0    0  0.55283100431E+00  0.88336232439E+01 -0.12779103884E+02  0.15544903283E+02  0.51100000000E-03 0. -1.
        -11    1    3    3    0    0  0.13825457758E+01  0.14640120188E+02 -0.17246595159E+02  0.22664721414E+02  0.51100000000E-03 0.  1.
        -12    1    3    3    0    0 -0.80038506628E+01  0.79505673162E+01  0.49487754916E+01  0.12319233943E+02  0.00000000000E+00 0.  1.
</event>
<event>
 7    1  0.2945316E-011  0.5052886E+02  0.7816164E-02  0.1300439E+00
        -11   -1    0    0    0    0  0.00000000000E+00  0.00000000000E+00  0.45593999997E+02  0.45594000000E+02  0.51100000000E-03 0. -1.
         11   -1    0    0    0    0 -0.00000000000E+00 -0.00000000000E+00 -0.45593999997E+02  0.45594000000E+02  0.51100000000E-03 0.  1.
    9900012    2    1    2    0    0 -0.25623874153E+02 -0.31454259853E+02  0.26855597960E+01  0.50528860549E+02  0.30000002123E+02 0.  0.
        -12    1    1    2    0    0  0.25623874153E+02  0.31454259853E+02 -0.26855597960E+01  0.40659139451E+02  0.00000000000E+00 0.  1.
         11    1    3    3    0    0 -0.14889962965E+02 -0.28723692535E+02 -0.52009245529E+01  0.32769057454E+02  0.51100000000E-03 0. -1.
        -11    1    3    3    0    0 -0.10277367121E+02 -0.54980084520E+01  0.90163821296E+01  0.14735926128E+02  0.51100000000E-03 0.  1.
        -12    1    3    3    0    0 -0.45654406694E+00  0.27674411340E+01 -0.11298977808E+01  0.30238769668E+01  0.00000000000E+00 0.  1.
</event>
<event>
 7    1  0.2945316E-011  0.5052886E+02  0.7816164E-02  0.1300439E+00
        -11   -1    0    0    0    0  0.00000000000E+00  0.00000000000E+00  0.45593999997E+02  0.45594000000E+02  0.51100000000E-03 0.  1.
         11   -1    0    0    0    0 -0.00000000000E+00 -0.00000000000E+00 -0.45593999997E+02  0.45594000000E+02  0.51100000000E-03 0. -1.
    9900012    2    1    2    0    0 -0.14068670004E+02  0.73283819575E+01 -0.37437056158E+02  0.50528857958E+02  0.29999994250E+02 0.  0.
        -12    1    1    2    0    0  0.14068670004E+02 -0.73283819575E+01  0.37437056158E+02  0.40659142042E+02  0.00000000000E+00 0.  1.
         11    1    3    3    0    0 -0.11355886524E+01  0.47865773508E+01 -0.93608934356E+01  0.10574838556E+02  0.51100000000E-03 0. -1.
        -11    1    3    3    0    0 -0.20670332167E+00  0.85124675245E+01  0.44940200290E-01  0.85150953901E+01  0.51100000000E-03 0.  1.
         12    1    3    3    0    0 -0.12726378030E+02 -0.59706629178E+01 -0.28121102923E+02  0.31438924012E+02  0.00000000000E+00 0. -1.
</event>
<event>
 7    1  0.2945316E-011  0.5052891E+02  0.7816164E-02  0.1300439E+00
        -11   -1    0    0    0    0  0.00000000000E+00  0.00000000000E+00  0.45593999997E+02  0.45594000000E+02  0.51100000000E-03 0.  1.
         11   -1    0    0    0    0 -0.00000000000E+00 -0.00000000000E+00 -0.45593999997E+02  0.45594000000E+02  0.51100000000E-03 0. -1.
    9900012    2    1    2    0    0 -0.10208136928E+02 -0.19128018839E+01 -0.39310258530E+02  0.50528913730E+02  0.30000163773E+02 0.  0.
        -12    1    1    2    0    0  0.10208136928E+02  0.19128018839E+01  0.39310258530E+02  0.40659086270E+02  0.00000000000E+00 0.  1.
         11    1    3    3    0    0 -0.24874803181E+01 -0.11456286562E+02 -0.20616544270E+02  0.23716575597E+02  0.51100000000E-03 0. -1.
        -11    1    3    3    0    0 -0.11973645169E+02  0.53829931301E+01 -0.11295366557E+02  0.17318490107E+02  0.51100000000E-03 0.  1.
        -12    1    3    3    0    0  0.42529885591E+01  0.41604915480E+01 -0.73983477035E+01  0.94938480263E+01  0.00000000000E+00 0.  1.
</event>
<event>
 7    1  0.2945316E-011  0.5052886E+02  0.7816164E-02  0.1300439E+00
        -11   -1    0    0    0    0  0.00000000000E+00  0.00000000000E+00  0.45593999997E+02  0.45594000000E+02  0.51100000000E-03 0. -1.
         11   -1    0    0    0    0 -0.00000000000E+00 -0.00000000000E+00 -0.45593999997E+02  0.45594000000E+02  0.51100000000E-03 0.  1.
    9900012    2    1    2    0    0 -0.38254550531E+02 -0.77174121465E+01  0.11410356724E+02  0.50528864162E+02  0.30000013106E+02 0.  0.
        -12    1    1    2    0    0  0.38254550531E+02  0.77174121465E+01 -0.11410356724E+02  0.40659135838E+02  0.00000000000E+00 0.  1.
         11    1    3    3    0    0 -0.48811963007E+01  0.48952937923E+00  0.78972651056E+01  0.92969087738E+01  0.51100000000E-03 0. -1.
        -11    1    3    3    0    0 -0.59226695193E+00  0.46194504667E+01  0.38293890200E+01  0.60294546423E+01  0.51100000000E-03 0.  1.
         12    1    3    3    0    0 -0.32781087278E+02 -0.12826391992E+02 -0.31629740184E+00  0.35202500746E+02  0.00000000000E+00 0. -1.
</event>
<event>
 7    1  0.2945316E-011  0.5052887E+02  0.7816164E-02  0.1300439E+00
        -11   -1    0    0    0    0  0.00000000000E+00  0.00000000000E+00  0.45593999997E+02  0.45594000000E+02  0.51100000000E-03 0. -1.
         11   -1    0    0    0    0 -0.00000000000E+00 -0.00000000000E+00 -0.45593999997E+02  0.45594000000E+02  0.51100000000E-03 0.  1.
    9900012    2    1    2    0    0 -0.31826789007E+02  0.34395236269E+01  0.25067702360E+02  0.50528874052E+02  0.30000043168E+02 0.  0.
        -12    1    1    2    0    0  0.31826789007E+02 -0.34395236269E+01 -0.25067702360E+02  0.40659125948E+02  0.00000000000E+00 0.  1.
         11    1    3    3    0    0 -0.15627538592E+02  0.63412708036E+00  0.13846845192E+02  0.20889164694E+02  0.51100000000E-03 0. -1.
        -11    1    3    3    0    0 -0.20687399313E+02  0.40805241864E+01  0.46697002393E+01  0.21596880991E+02  0.51100000000E-03 0.  1.
        -12    1    3    3    0    0  0.44881488978E+01 -0.12751276398E+01  0.65511569286E+01  0.80428283663E+01  0.00000000000E+00 0.  1.
</event>
<event>
 7    1  0.2945316E-011  0.5052885E+02  0.7816164E-02  0.1300439E+00
        -11   -1    0    0    0    0  0.00000000000E+00  0.00000000000E+00  0.45593999997E+02  0.45594000000E+02  0.51100000000E-03 0.  1.
         11   -1    0    0    0    0 -0.00000000000E+00 -0.00000000000E+00 -0.45593999997E+02  0.45594000000E+02  0.51100000000E-03 0. -1.
    9900012    2    1    2    0    0  0.10683779620E+02  0.20758706103E+02 -0.33288128440E+02  0.50528849479E+02  0.29999968476E+02 0.  0.
        -12    1    1    2    0    0 -0.10683779620E+02 -0.20758706103E+02  0.33288128440E+02  0.40659150521E+02  0.00000000000E+00 0.  1.
         11    1    3    3    0    0  0.11463669077E+01  0.17571582477E+02 -0.17887886356E+02  0.25100819636E+02  0.51100000000E-03 0. -1.
        -11    1    3    3    0    0  0.89217178391E+00  0.92221987688E+01 -0.46356365006E+01  0.10360214604E+02  0.51100000000E-03 0.  1.
        -12    1    3    3    0    0  0.86452409282E+01 -0.60350751433E+01 -0.10764605584E+02  0.15067815239E+02  0.00000000000E+00 0.  1.
</event>
<event>
 7    1  0.2945316E-011  0.5052886E+02  0.7816164E-02  0.1300439E+00
        -11   -1    0    0    0    0  0.00000000000E+00  0.00000000000E+00  0.45593999997E+02  0.45594000000E+02  0.51100000000E-03 0.  1.
         11   -1    0    0    0    0 -0.00000000000E+00 -0.00000000000E+00 -0.45593999997E+02  0.45594000000E+02  0.51100000000E-03 0. -1.
    9900012    2    1    2    0    0 -0.11164490816E+02  0.83326501173E+01 -0.38197994000E+02  0.50528860083E+02  0.30000000709E+02 0.  0.
        -12    1    1    2    0    0  0.11164490816E+02 -0.83326501173E+01  0.38197994000E+02  0.40659139917E+02  0.00000000000E+00 0.  1.
         11    1    3    3    0    0 -0.48973729341E+01  0.90122599055E+01 -0.68599176669E+01  0.12339512183E+02  0.51100000000E-03 0. -1.
        -11    1    3    3    0    0  0.62744147096E+00  0.87277652899E+01 -0.70172842862E+01  0.11216498953E+02  0.51100000000E-03 0.  1.
         12    1    3    3    0    0 -0.68945593530E+01 -0.94073750780E+01 -0.24320792047E+02  0.26972848947E+02  0.00000000000E+00 0. -1.
</event>
<event>
 7    1  0.2945316E-011  0.5052884E+02  0.7816164E-02  0.1300439E+00
        -11   -1    0    0    0    0  0.00000000000E+00  0.00000000000E+00  0.45593999997E+02  0.45594000000E+02  0.51100000000E-03 0.  1.
         11   -1    0    0    0    0 -0.00000000000E+00 -0.00000000000E+00 -0.45593999997E+02  0.45594000000E+02  0.51100000000E-03 0. -1.
    9900012    2    1    2    0    0 -0.13252565606E+02  0.16855920744E+02 -0.34545830876E+02  0.50528843711E+02  0.29999950943E+02 0.  0.
        -12    1    1    2    0    0  0.13252565606E+02 -0.16855920744E+02  0.34545830876E+02  0.40659156289E+02  0.00000000000E+00 0.  1.
         11    1    3    3    0    0 -0.15370951004E+01  0.37024726806E+01 -0.92184227373E+01  0.10052376999E+02  0.51100000000E-03 0. -1.
        -11    1    3    3    0    0 -0.11926434640E+02  0.20665855786E+02 -0.17245061562E+02  0.29439931846E+02  0.51100000000E-03 0.  1.
        -12    1    3    3    0    0  0.21096413458E+00 -0.75124077226E+01 -0.80823465766E+01  0.11036534866E+02  0.00000000000E+00 0.  1.
</event>
<event>
 7    1  0.2945316E-011  0.5052889E+02  0.7816164E-02  0.1300439E+00
        -11   -1    0    0    0    0  0.00000000000E+00  0.00000000000E+00  0.45593999997E+02  0.45594000000E+02  0.51100000000E-03 0.  1.
         11   -1    0    0    0    0 -0.00000000000E+00 -0.00000000000E+00 -0.45593999997E+02  0.45594000000E+02  0.51100000000E-03 0. -1.
    9900012    2    1    2    0    0 -0.68353983533E+01  0.31252268392E+02 -0.25094549221E+02  0.50528888464E+02  0.30000086974E+02 0.  0.
        -12    1    1    2    0    0  0.68353983533E+01 -0.31252268392E+02  0.25094549221E+02  0.40659111536E+02  0.00000000000E+00 0.  1.
         11    1    3    3    0    0 -0.15116511118E+02  0.21536346039E+02 -0.10406950820E+02  0.28295365958E+02  0.51100000000E-03 0. -1.
        -11    1    3    3    0    0 -0.44204530188E+00  0.34910799530E+01 -0.98802342464E+01  0.10488187275E+02  0.51100000000E-03 0.  1.
        -12    1    3    3    0    0  0.87231580665E+01  0.62248424005E+01 -0.48073641547E+01  0.11745335231E+02  0.00000000000E+00 0.  1.
</event>
<event>
 7    1  0.2945316E-011  0.5052887E+02  0.7816164E-02  0.1300439E+00
        -11   -1    0    0    0    0  0.00000000000E+00  0.00000000000E+00  0.45593999997E+02  0.45594000000E+02  0.51100000000E-03 0. -1.
         11   -1    0    0    0    0 -0.00000000000E+00 -0.00000000000E+00 -0.45593999997E+02  0.45594000000E+02  0.51100000000E-03 0.  1.
    9900012    2    1    2    0    0  0.37284378451E+02 -0.14082818749E+02 -0.80445313901E+01  0.50528866393E+02  0.30000019887E+02 0.  0.
        -12    1    1    2    0    0 -0.37284378451E+02  0.14082818749E+02  0.80445313901E+01  0.40659133607E+02  0.00000000000E+00 0.  1.
         11    1    3    3    0    0  0.11362400885E+02 -0.32984325289E+00  0.32395712330E+01  0.11819804249E+02  0.51100000000E-03 0. -1.
        -11    1    3    3    0    0 -0.33910265566E+01 -0.56938324795E+01 -0.20048166823E+01  0.69237330684E+01  0.51100000000E-03 0.  1.
         12    1    3    3    0    0  0.29313004122E+02 -0.80591430170E+01 -0.92792859408E+01  0.31785329075E+02  0.00000000000E+00 0. -1.
</event>
<event>
 7    1  0.2945316E-011  0.5052889E+02  0.7816164E-02  0.1300439E+00
        -11   -1    0    0    0    0  0.00000000000E+00  0.00000000000E+00  0.45593999997E+02  0.45594000000E+02  0.51100000000E-03 0. -1.
         11   -1    0    0    0    0 -0.00000000000E+00 -0.00000000000E+00 -0.45593999997E+02  0.45594000000E+02  0.51100000000E-03 0.  1.
    9900012    2    1    2    0    0 -0.59216888453E+01 -0.37776765832E+02  0.13820734022E+02  0.50528891249E+02  0.30000095440E+02 0.  0.
        -12    1    1    2    0    0  0.59216888453E+01  0.37776765832E+02 -0.13820734022E+02  0.40659108751E+02  0.00000000000E+00 0.  1.
         11    1    3    3    0    0  0.46579178002E+01  0.15976014828E+01  0.33852222694E+01  0.59756387780E+01  0.51100000000E-03 0. -1.
        -11    1    3    3    0    0 -0.68051968484E+01 -0.14175662694E+02  0.10790805437E+02  0.19070962199E+02  0.51100000000E-03 0.  1.
        -12    1    3    3    0    0 -0.37744097971E+01 -0.25198704621E+02 -0.35529368464E+00  0.25482290272E+02  0.00000000000E+00 0.  1.
</event>
<event>
 7    1  0.2945316E-011  0.5052886E+02  0.7816164E-02  0.1300439E+00
        -11   -1    0    0    0    0  0.00000000000E+00  0.00000000000E+00  0.45593999997E+02  0.45594000000E+02  0.51100000000E-03 0. -1.
         11   -1    0    0    0    0 -0.00000000000E+00 -0.00000000000E+00 -0.45593999997E+02  0.45594000000E+02  0.51100000000E-03 0.  1.
    9900012    2    1    2    0    0  0.17997697209E+02  0.35955221270E+02  0.60390637001E+01  0.50528864105E+02  0.30000012932E+02 0.  0.
        -12    1    1    2    0    0 -0.17997697209E+02 -0.35955221270E+02 -0.60390637001E+01  0.40659135895E+02  0.00000000000E+00 0.  1.
         11    1    3    3    0    0  0.15069959147E+02  0.21188702096E+02  0.20446155715E+01  0.26081511043E+02  0.51100000000E-03 0. -1.
        -11    1    3    3    0    0  0.10602449741E+02  0.84848586091E+01  0.50178602032E+01  0.14477005471E+02  0.51100000000E-03 0.  1.
        -12    1    3    3    0    0 -0.76747116788E+01  0.62816605652E+01 -0.10234120746E+01  0.99703475910E+01  0.00000000000E+00 0.  1.
</event>
<event>
 7    1  0.2945316E-011  0.5052885E+02  0.7816164E-02  0.1300439E+00
        -11   -1    0    0    0    0  0.00000000000E+00  0.00000000000E+00  0.45593999997E+02  0.45594000000E+02  0.51100000000E-03 0. -1.
         11   -1    0    0    0    0 -0.00000000000E+00 -0.00000000000E+00 -0.45593999997E+02  0.45594000000E+02  0.51100000000E-03 0.  1.
    9900012    2    1    2    0    0 -0.16494851949E+02  0.30096550137E+02  0.21801002926E+02  0.50528853433E+02  0.29999980496E+02 0.  0.
        -12    1    1    2    0    0  0.16494851949E+02 -0.30096550137E+02 -0.21801002926E+02  0.40659146567E+02  0.00000000000E+00 0.  1.
         11    1    3    3    0    0 -0.99387997436E+00  0.36339646245E+00  0.81704083984E+00  0.13369406821E+01  0.51100000000E-03 0. -1.
        -11    1    3    3    0    0 -0.85343641554E+01  0.10605027536E+02  0.24978036735E+02  0.28446516482E+02  0.51100000000E-03 0.  1.
        -12    1    3    3    0    0 -0.69666078190E+01  0.19128126138E+02 -0.39940746486E+01  0.20745396269E+02  0.00000000000E+00 0.  1.
</event>
<event>
 7    1  0.2945316E-011  0.5052885E+02  0.7816164E-02  0.1300439E+00
        -11   -1    0    0    0    0  0.00000000000E+00  0.00000000000E+00  0.45593999997E+02  0.45594000000E+02  0.51100000000E-03 0.  1.
         11   -1    0    0    0    0 -0.00000000000E+00 -0.00000000000E+00 -0.45593999997E+02  0.45594000000E+02  0.51100000000E-03 0. -1.
    9900012    2    1    2    0    0  0.33257299986E+02 -0.23347207166E+02 -0.14235463352E+01  0.50528848890E+02  0.29999966686E+02 0.  0.
        -12    1    1    2    0    0 -0.33257299986E+02  0.23347207166E+02  0.14235463352E+01  0.40659151110E+02  0.00000000000E+00 0.  1.
         11    1    3    3    0    0  0.30274453358E+02 -0.13454414264E+02 -0.18470406335E+01  0.33180948581E+02  0.51100000000E-03 0. -1.
        -11    1    3    3    0    0  0.12565196943E+01  0.34074430116E+01 -0.12304107009E+01  0.38345039279E+01  0.51100000000E-03 0.  1.
        -12    1    3    3    0    0  0.17263269337E+01 -0.13300235913E+02  0.16539049992E+01  0.13513396382E+02  0.00000000000E+00 0.  1.
</event>
<event>
 7    1  0.2945316E-011  0.5052885E+02  0.7816164E-02  0.1300439E+00
        -11   -1    0    0    0    0  0.00000000000E+00  0.00000000000E+00  0.45593999997E+02  0.45594000000E+02  0.51100000000E-03 0.  1.
         11   -1    0    0    0    0 -0.00000000000E+00 -0.00000000000E+00 -0.45593999997E+02  0.45594000000E+02  0.51100000000E-03 0. -1.
    9900012    2    1    2    0    0 -0.31811017746E+02 -0.10036679123E+02 -0.23248452981E+02  0.50528851658E+02  0.29999975101E+02 0.  0.
        -12    1    1    2    0    0  0.31811017746E+02  0.10036679123E+02  0.23248452981E+02  0.40659148342E+02  0.00000000000E+00 0.  1.
         11    1    3    3    0    0 -0.35881011021E+01  0.17793621543E+01 -0.62545262826E+01  0.74269575518E+01  0.51100000000E-03 0. -1.
        -11    1    3    3    0    0 -0.34583113604E+01 -0.41546899537E+01 -0.16296757174E+02  0.17169905670E+02  0.51100000000E-03 0.  1.
        -12    1    3    3    0    0 -0.24764605283E+02 -0.76613513240E+01 -0.69716952522E+00  0.25931988437E+02  0.00000000000E+00 0.  1.
</event>
<event>
 7    1  0.2945316E-011  0.5052884E+02  0.7816164E-02  0.1300439E+00
        -11   -1    0    0    0    0  0.00000000000E+00  0.00000000000E+00  0.45593999997E+02  0.45594000000E+02  0.51100000000E-03 0.  1.
         11   -1    0    0    0    0 -0.00000000000E+00 -0.00000000000E+00 -0.45593999997E+02  0.45594000000E+02  0.51100000000E-03 0. -1.
    9900012    2    1    2    0    0  0.12783939710E+02 -0.28761484171E+02 -0.25739365223E+02  0.50528843487E+02  0.29999950264E+02 0.  0.
        -12    1    1    2    0    0 -0.12783939710E+02  0.28761484171E+02  0.25739365223E+02  0.40659156513E+02  0.00000000000E+00 0.  1.
         11    1    3    3    0    0  0.57557323640E+01 -0.24089363936E+02 -0.12769924545E+02  0.27865693658E+02  0.51100000000E-03 0. -1.
        -11    1    3    3    0    0  0.82146162109E+01 -0.99161952292E+01 -0.11005560083E+02  0.16939102701E+02  0.51100000000E-03 0.  1.
        -12    1    3    3    0    0 -0.11864088647E+01  0.52440749940E+01 -0.19638805951E+01  0.57240471285E+01  0.00000000000E+00 0.  1.
</event>
<event>
 7    1  0.2945316E-011  0.5052886E+02  0.7816164E-02  0.1300439E+00
        -11   -1    0    0    0    0  0.00000000000E+00  0.00000000000E+00  0.45593999997E+02  0.45594000000E+02  0.51100000000E-03 0.  1.
         11   -1    0    0    0    0 -0.00000000000E+00 -0.00000000000E+00 -0.45593999997E+02  0.45594000000E+02  0.51100000000E-03 0. -1.
    9900012    2    1    2    0    0  0.78999576418E+01 -0.30522289224E+02 -0.25673841401E+02  0.50528860775E+02  0.30000002812E+02 0.  0.
        -12    1    1    2    0    0 -0.78999576418E+01  0.30522289224E+02  0.25673841401E+02  0.40659139225E+02  0.00000000000E+00 0.  1.
         11    1    3    3    0    0 -0.32688860475E+00 -0.13236053518E+02 -0.13842157104E+02  0.19154771793E+02  0.51100000000E-03 0. -1.
        -11    1    3    3    0    0 -0.47774753841E+00 -0.16347388929E+02 -0.14872895098E+02  0.22105844846E+02  0.51100000000E-03 0.  1.
         12    1    3    3    0    0  0.87045937850E+01 -0.93884677795E+00  0.30412108012E+01  0.92682441364E+01  0.00000000000E+00 0. -1.
</event>
<event>
 7    1  0.2945316E-011  0.5052886E+02  0.7816164E-02  0.1300439E+00
        -11   -1    0    0    0    0  0.00000000000E+00  0.00000000000E+00  0.45593999997E+02  0.45594000000E+02  0.51100000000E-03 0.  1.
         11   -1    0    0    0    0 -0.00000000000E+00 -0.00000000000E+00 -0.45593999997E+02  0.45594000000E+02  0.51100000000E-03 0. -1.
    9900012    2    1    2    0    0  0.53413604708E+00  0.10386467392E+02 -0.39306508790E+02  0.50528860321E+02  0.30000001431E+02 0.  0.
        -12    1    1    2    0    0 -0.53413604708E+00 -0.10386467392E+02  0.39306508790E+02  0.40659139679E+02  0.00000000000E+00 0.  1.
         11    1    3    3    0    0 -0.73547224259E+01  0.90000717310E+01 -0.18033525669E+02  0.21454633099E+02  0.51100000000E-03 0. -1.
        -11    1    3    3    0    0 -0.20936540999E+01  0.77048592939E+01 -0.79412989825E+01  0.11261104476E+02  0.51100000000E-03 0.  1.
        -12    1    3    3    0    0  0.99825125729E+01 -0.63184636333E+01 -0.13331684139E+02  0.17813122745E+02  0.00000000000E+00 0.  1.
</event>
<event>
 7    1  0.2945316E-011  0.5052887E+02  0.7816164E-02  0.1300439E+00
        -11   -1    0    0    0    0  0.00000000000E+00  0.00000000000E+00  0.45593999997E+02  0.45594000000E+02  0.51100000000E-03 0.  1.
         11   -1    0    0    0    0 -0.00000000000E+00 -0.00000000000E+00 -0.45593999997E+02  0.45594000000E+02  0.51100000000E-03 0. -1.
    9900012    2    1    2    0    0  0.19616612618E+00  0.30112227216E+02 -0.27319961874E+02  0.50528867867E+02  0.30000024368E+02 0.  0.
        -12    1    1    2    0    0 -0.19616612618E+00 -0.30112227216E+02  0.27319961874E+02  0.40659132133E+02  0.00000000000E+00 0.  1.
         11    1    3    3    0    0  0.45621590910E-01  0.66178238766E+01 -0.62600213900E+01  0.91096400728E+01  0.51100000000E-03 0. -1.
        -11    1    3    3    0    0 -0.13016018567E+02  0.15543570916E+02 -0.11465279652E+02  0.23291027756E+02  0.51100000000E-03 0.  1.
         12    1    3    3    0    0  0.13166563102E+02  0.79508324232E+01 -0.95946608313E+01  0.18128200038E+02  0.00000000000E+00 0. -1.
</event>
<event>
 7    1  0.2945316E-011  0.5052886E+02  0.7816164E-02  0.1300439E+00
        -11   -1    0    0    0    0  0.00000000000E+00  0.00000000000E+00  0.45593999997E+02  0.45594000000E+02  0.51100000000E-03 0.  1.
         11   -1    0    0    0    0 -0.00000000000E+00 -0.00000000000E+00 -0.45593999997E+02  0.45594000000E+02  0.51100000000E-03 0. -1.
    9900012    2    1    2    0    0  0.19124271966E+02  0.19522758751E+02 -0.30104645235E+02  0.50528861394E+02  0.30000004692E+02 0.  0.
        -12    1    1    2    0    0 -0.19124271966E+02 -0.19522758751E+02  0.30104645235E+02  0.40659138606E+02  0.00000000000E+00 0.  1.
         11    1    3    3    0    0 -0.92148726784E+00  0.33036551796E+01 -0.17275204920E+02  0.17612381486E+02  0.51100000000E-03 0.  1.
        -11    1    3    3    0    0  0.44781870983E+01  0.24720688054E+01 -0.10922112117E+02  0.12060589423E+02  0.51100000000E-03 0. -1.
        -12    1    3    3    0    0  0.15567572136E+02  0.13747034766E+02 -0.19073281979E+01  0.20855890485E+02  0.00000000000E+00 0.  1.
</event>
<event>
 7    1  0.2945316E-011  0.5052887E+02  0.7816164E-02  0.1300439E+00
        -11   -1    0    0    0    0  0.00000000000E+00  0.00000000000E+00  0.45593999997E+02  0.45594000000E+02  0.51100000000E-03 0.  1.
         11   -1    0    0    0    0 -0.00000000000E+00 -0.00000000000E+00 -0.45593999997E+02  0.45594000000E+02  0.51100000000E-03 0. -1.
    9900012    2    1    2    0    0 -0.34073717943E+02  0.16084212717E+02 -0.15278898299E+02  0.50528869582E+02  0.30000029580E+02 0.  0.
        -12    1    1    2    0    0  0.34073717943E+02 -0.16084212717E+02  0.15278898299E+02  0.40659130418E+02  0.00000000000E+00 0.  1.
         11    1    3    3    0    0 -0.43387122009E+01 -0.15204525495E+01  0.20862217091E+01  0.50486157309E+01  0.51100000000E-03 0.  1.
        -11    1    3    3    0    0  0.86184106783E+00 -0.35558736778E+01  0.12694238304E+01  0.38727825605E+01  0.51100000000E-03 0. -1.
         12    1    3    3    0    0 -0.30596846810E+02  0.21160538944E+02 -0.18634543838E+02  0.41607471290E+02  0.00000000000E+00 0. -1.
</event>
<event>
 7    1  0.2945316E-011  0.5052887E+02  0.7816164E-02  0.1300439E+00
        -11   -1    0    0    0    0  0.00000000000E+00  0.00000000000E+00  0.45593999997E+02  0.45594000000E+02  0.51100000000E-03 0.  1.
         11   -1    0    0    0    0 -0.00000000000E+00 -0.00000000000E+00 -0.45593999997E+02  0.45594000000E+02  0.51100000000E-03 0. -1.
    9900012    2    1    2    0    0  0.22721832331E+02  0.22067500065E+02  0.25493309079E+02  0.50528867798E+02  0.30000024160E+02 0.  0.
        -12    1    1    2    0    0 -0.22721832331E+02 -0.22067500065E+02 -0.25493309079E+02  0.40659132202E+02  0.00000000000E+00 0.  1.
         11    1    3    3    0    0  0.23372854634E+02  0.64610075908E+01  0.11502960719E+02  0.26839393778E+02  0.51100000000E-03 0. -1.
        -11    1    3    3    0    0  0.27704186225E+01  0.24240317823E+01 -0.60079130837E+00  0.37298927442E+01  0.51100000000E-03 0.  1.
        -12    1    3    3    0    0 -0.34214409252E+01  0.13182460692E+02  0.14591139668E+02  0.19959581276E+02  0.00000000000E+00 0.  1.
</event>
<event>
 7    1  0.2945316E-011  0.5052886E+02  0.7816164E-02  0.1300439E+00
        -11   -1    0    0    0    0  0.00000000000E+00  0.00000000000E+00  0.45593999997E+02  0.45594000000E+02  0.51100000000E-03 0.  1.
         11   -1    0    0    0    0 -0.00000000000E+00 -0.00000000000E+00 -0.45593999997E+02  0.45594000000E+02  0.51100000000E-03 0. -1.
    9900012    2    1    2    0    0 -0.21357295730E+02  0.24442553036E+02 -0.24486596770E+02  0.50528857102E+02  0.29999991648E+02 0.  0.
        -12    1    1    2    0    0  0.21357295730E+02 -0.24442553036E+02  0.24486596770E+02  0.40659142898E+02  0.00000000000E+00 0.  1.
         11    1    3    3    0    0 -0.25541152763E+01  0.11685424865E+02  0.44985282634E+01  0.12779257252E+02  0.51100000000E-03 0. -1.
        -11    1    3    3    0    0 -0.48840081323E+01  0.11774651007E+01 -0.23582983869E+01  0.55499127059E+01  0.51100000000E-03 0.  1.
         12    1    3    3    0    0 -0.13919172321E+02  0.11579663070E+02 -0.26626826647E+02  0.32199687144E+02  0.00000000000E+00 0. -1.
</event>
<event>
 7    1  0.2945316E-011  0.5052886E+02  0.7816164E-02  0.1300439E+00
        -11   -1    0    0    0    0  0.00000000000E+00  0.00000000000E+00  0.45593999997E+02  0.45594000000E+02  0.51100000000E-03 0. -1.
         11   -1    0    0    0    0 -0.00000000000E+00 -0.00000000000E+00 -0.45593999997E+02  0.45594000000E+02  0.51100000000E-03 0.  1.
    9900012    2    1    2    0    0 -0.15203039650E+01 -0.39806231385E+02  0.81436000929E+01  0.50528860760E+02  0.30000002767E+02 0.  0.
        -12    1    1    2    0    0  0.15203039650E+01  0.39806231385E+02 -0.81436000929E+01  0.40659139240E+02  0.00000000000E+00 0.  1.
         11    1    3    3    0    0 -0.72219220719E+01 -0.31531352696E+02  0.10174221216E+02  0.33910133277E+02  0.51100000000E-03 0. -1.
        -11    1    3    3    0    0  0.12402383476E+01 -0.78681604416E+01  0.41529209261E+01  0.89829222625E+01  0.51100000000E-03 0.  1.
        -12    1    3    3    0    0  0.44613797593E+01 -0.40671824721E+00 -0.61835420493E+01  0.76358052204E+01  0.00000000000E+00 0.  1.
</event>
<event>
 7    1  0.2945316E-011  0.5052887E+02  0.7816164E-02  0.1300439E+00
        -11   -1    0    0    0    0  0.00000000000E+00  0.00000000000E+00  0.45593999997E+02  0.45594000000E+02  0.51100000000E-03 0.  1.
         11   -1    0    0    0    0 -0.00000000000E+00 -0.00000000000E+00 -0.45593999997E+02  0.45594000000E+02  0.51100000000E-03 0. -1.
    9900012    2    1    2    0    0  0.40122532433E+01 -0.27589534130E+02 -0.29595338136E+02  0.50528872993E+02  0.30000039949E+02 0.  0.
        -12    1    1    2    0    0 -0.40122532433E+01  0.27589534130E+02  0.29595338136E+02  0.40659127007E+02  0.00000000000E+00 0.  1.
         11    1    3    3    0    0  0.89412988583E+01 -0.57877753429E+01 -0.11200414498E+02  0.15456210852E+02  0.51100000000E-03 0. -1.
        -11    1    3    3    0    0 -0.49880211787E+01 -0.69875022882E+01  0.29610169972E+01  0.90814737475E+01  0.51100000000E-03 0.  1.
         12    1    3    3    0    0  0.58975563782E-01 -0.14814256499E+02 -0.21355940635E+02  0.25991188394E+02  0.00000000000E+00 0. -1.
</event>
<event>
 7    1  0.2945316E-011  0.5052884E+02  0.7816164E-02  0.1300439E+00
        -11   -1    0    0    0    0  0.00000000000E+00  0.00000000000E+00  0.45593999997E+02  0.45594000000E+02  0.51100000000E-03 0.  1.
         11   -1    0    0    0    0 -0.00000000000E+00 -0.00000000000E+00 -0.45593999997E+02  0.45594000000E+02  0.51100000000E-03 0. -1.
    9900012    2    1    2    0    0  0.15117283603E+02 -0.26951040566E+02 -0.26424927577E+02  0.50528835614E+02  0.29999926331E+02 0.  0.
        -12    1    1    2    0    0 -0.15117283603E+02  0.26951040566E+02  0.26424927577E+02  0.40659164386E+02  0.00000000000E+00 0.  1.
         11    1    3    3    0    0  0.20442335744E+02 -0.20534520381E+02 -0.20774713726E+02  0.35653111345E+02  0.51100000000E-03 0. -1.
        -11    1    3    3    0    0  0.34223597129E+01 -0.19351999690E+01 -0.15427301147E+01  0.42234537280E+01  0.51100000000E-03 0.  1.
        -12    1    3    3    0    0 -0.87474118538E+01 -0.44813202161E+01 -0.41074837365E+01  0.10652270540E+02  0.00000000000E+00 0.  1.
</event>
<event>
 7    1  0.2945316E-011  0.5052885E+02  0.7816164E-02  0.1300439E+00
        -11   -1    0    0    0    0  0.00000000000E+00  0.00000000000E+00  0.45593999997E+02  0.45594000000E+02  0.51100000000E-03 0. -1.
         11   -1    0    0    0    0 -0.00000000000E+00 -0.00000000000E+00 -0.45593999997E+02  0.45594000000E+02  0.51100000000E-03 0.  1.
    9900012    2    1    2    0    0 -0.37985877558E+02  0.40801613980E+01  0.13913719884E+02  0.50528853282E+02  0.29999980036E+02 0.  0.
        -12    1    1    2    0    0  0.37985877558E+02 -0.40801613980E+01 -0.13913719884E+02  0.40659146718E+02  0.00000000000E+00 0.  1.
         11    1    3    3    0    0 -0.20572418669E+02  0.64479657094E+01  0.73215510046E+01  0.22768526106E+02  0.51100000000E-03 0. -1.
        -11    1    3    3    0    0 -0.18145271216E+02  0.53153065521E+01  0.66474225900E+01  0.20042244849E+02  0.51100000000E-03 0.  1.
        -12    1    3    3    0    0  0.73181232745E+00 -0.76831108635E+01 -0.55253711035E-01  0.77180823263E+01  0.00000000000E+00 0.  1.
</event>
<event>
 7    1  0.2945316E-011  0.5052887E+02  0.7816164E-02  0.1300439E+00
        -11   -1    0    0    0    0  0.00000000000E+00  0.00000000000E+00  0.45593999997E+02  0.45594000000E+02  0.51100000000E-03 0.  1.
         11   -1    0    0    0    0 -0.00000000000E+00 -0.00000000000E+00 -0.45593999997E+02  0.45594000000E+02  0.51100000000E-03 0. -1.
    9900012    2    1    2    0    0  0.25639393789E+02  0.50257419858E+01 -0.31153301111E+02  0.50528871056E+02  0.30000034061E+02 0.  0.
        -12    1    1    2    0    0 -0.25639393789E+02 -0.50257419858E+01  0.31153301111E+02  0.40659128944E+02  0.00000000000E+00 0.  1.
         11    1    3    3    0    0  0.11478711828E+02  0.73406886623E+01 -0.12663478507E+02  0.18601350043E+02  0.51100000000E-03 0. -1.
        -11    1    3    3    0    0  0.67389389737E+01  0.75869766184E+01 -0.58756464387E+00  0.10164681263E+02  0.51100000000E-03 0.  1.
         12    1    3    3    0    0  0.74217429870E+01 -0.99019232949E+01 -0.17902257960E+02  0.21762839750E+02  0.00000000000E+00 0. -1.
</event>
<event>
 7    1  0.2945316E-011  0.5052885E+02  0.7816164E-02  0.1300439E+00
        -11   -1    0    0    0    0  0.00000000000E+00  0.00000000000E+00  0.45593999997E+02  0.45594000000E+02  0.51100000000E-03 0.  1.
         11   -1    0    0    0    0 -0.00000000000E+00 -0.00000000000E+00 -0.45593999997E+02  0.45594000000E+02  0.51100000000E-03 0. -1.
    9900012    2    1    2    0    0 -0.15610497215E+02 -0.25075701483E+02 -0.27940801454E+02  0.50528845876E+02  0.29999957526E+02 0.  0.
        -12    1    1    2    0    0  0.15610497215E+02  0.25075701483E+02  0.27940801454E+02  0.40659154124E+02  0.00000000000E+00 0.  1.
         11    1    3    3    0    0 -0.62535103334E+00  0.25651497546E+01 -0.44104825314E+00  0.26768602880E+01  0.51100000000E-03 0. -1.
        -11    1    3    3    0    0 -0.20041749852E+02 -0.20923044165E+02 -0.14574266199E+02  0.32432310275E+02  0.51100000000E-03 0.  1.
         12    1    3    3    0    0  0.50566036708E+01 -0.67178070732E+01 -0.12925487001E+02  0.15419675314E+02  0.00000000000E+00 0. -1.
</event>
<event>
 7    1  0.2945316E-011  0.5052885E+02  0.7816164E-02  0.1300439E+00
        -11   -1    0    0    0    0  0.00000000000E+00  0.00000000000E+00  0.45593999997E+02  0.45594000000E+02  0.51100000000E-03 0.  1.
         11   -1    0    0    0    0 -0.00000000000E+00 -0.00000000000E+00 -0.45593999997E+02  0.45594000000E+02  0.51100000000E-03 0. -1.
    9900012    2    1    2    0    0 -0.21613223285E+02 -0.20234421428E+02 -0.27867600286E+02  0.50528851251E+02  0.29999973863E+02 0.  0.
        -12    1    1    2    0    0  0.21613223285E+02  0.20234421428E+02  0.27867600286E+02  0.40659148749E+02  0.00000000000E+00 0.  1.
         11    1    3    3    0    0 -0.72487963827E+01 -0.11955587404E+02 -0.10363793059E+02  0.17403715867E+02  0.51100000000E-03 0. -1.
        -11    1    3    3    0    0 -0.31841681267E+01 -0.14701339678E+02 -0.75153435409E+01  0.16815133178E+02  0.51100000000E-03 0.  1.
         12    1    3    3    0    0 -0.11180258775E+02  0.64225056536E+01 -0.99884636866E+01  0.16310002206E+02  0.00000000000E+00 0. -1.
</event>
<event>
 7    1  0.2945316E-011  0.5052887E+02  0.7816164E-02  0.1300439E+00
        -11   -1    0    0    0    0  0.00000000000E+00  0.00000000000E+00  0.45593999997E+02  0.45594000000E+02  0.51100000000E-03 0.  1.
         11   -1    0    0    0    0 -0.00000000000E+00 -0.00000000000E+00 -0.45593999997E+02  0.45594000000E+02  0.51100000000E-03 0. -1.
    9900012    2    1    2    0    0  0.29294856679E+02 -0.13482983322E+02 -0.24762573229E+02  0.50528874333E+02  0.30000044021E+02 0.  0.
        -12    1    1    2    0    0 -0.29294856679E+02  0.13482983322E+02  0.24762573229E+02  0.40659125667E+02  0.00000000000E+00 0.  1.
         11    1    3    3    0    0  0.84696769314E+01 -0.18122210119E+01 -0.92489980306E+01  0.12671366822E+02  0.51100000000E-03 0. -1.
        -11    1    3    3    0    0  0.25666465893E+02 -0.86795098280E+01 -0.76552817444E+01  0.28155012008E+02  0.51100000000E-03 0.  1.
        -12    1    3    3    0    0 -0.48412861457E+01 -0.29912524818E+01 -0.78582934545E+01  0.97024955023E+01  0.00000000000E+00 0.  1.
</event>
<event>
 7    1  0.2945316E-011  0.5052886E+02  0.7816164E-02  0.1300439E+00
        -11   -1    0    0    0    0  0.00000000000E+00  0.00000000000E+00  0.45593999997E+02  0.45594000000E+02  0.51100000000E-03 0.  1.
         11   -1    0    0    0    0 -0.00000000000E+00 -0.00000000000E+00 -0.45593999997E+02  0.45594000000E+02  0.51100000000E-03 0. -1.
    9900012    2    1    2    0    0  0.33006287543E+02  0.20499604663E+02 -0.11979843407E+02  0.50528862567E+02  0.30000008259E+02 0.  0.
        -12    1    1    2    0    0 -0.33006287543E+02 -0.20499604663E+02  0.11979843407E+02  0.40659137433E+02  0.00000000000E+00 0.  1.
         11    1    3    3    0    0  0.19717246594E+02  0.11381071210E+02 -0.14692496771E+02  0.27095535735E+02  0.51100000000E-03 0. -1.
        -11    1    3    3    0    0  0.92662677877E+01  0.42386623235E+01 -0.66261227385E+01  0.12154648486E+02  0.51100000000E-03 0.  1.
        -12    1    3    3    0    0  0.40227731617E+01  0.48798711288E+01  0.93387761026E+01  0.11278678346E+02  0.00000000000E+00 0.  1.
</event>
<event>
 7    1  0.2945316E-011  0.5052887E+02  0.7816164E-02  0.1300439E+00
        -11   -1    0    0    0    0  0.00000000000E+00  0.00000000000E+00  0.45593999997E+02  0.45594000000E+02  0.51100000000E-03 0. -1.
         11   -1    0    0    0    0 -0.00000000000E+00 -0.00000000000E+00 -0.45593999997E+02  0.45594000000E+02  0.51100000000E-03 0.  1.
    9900012    2    1    2    0    0  0.15066468773E+02  0.34309123199E+01  0.37608446356E+02  0.50528869685E+02  0.30000029896E+02 0.  0.
        -12    1    1    2    0    0 -0.15066468773E+02 -0.34309123199E+01 -0.37608446356E+02  0.40659130315E+02  0.00000000000E+00 0.  1.
         11    1    3    3    0    0  0.30517050096E+01  0.37794276977E+00  0.15374942466E+02  0.15679432397E+02  0.51100000000E-03 0. -1.
        -11    1    3    3    0    0  0.81433620175E+01  0.96133461754E+01  0.23931227035E+02  0.27045043858E+02  0.51100000000E-03 0.  1.
        -12    1    3    3    0    0  0.38714017455E+01 -0.65603766253E+01 -0.16977231444E+01  0.78043934304E+01  0.00000000000E+00 0.  1.
</event>
<event>
 7    1  0.2945316E-011  0.5052887E+02  0.7816164E-02  0.1300439E+00
        -11   -1    0    0    0    0  0.00000000000E+00  0.00000000000E+00  0.45593999997E+02  0.45594000000E+02  0.51100000000E-03 0.  1.
         11   -1    0    0    0    0 -0.00000000000E+00 -0.00000000000E+00 -0.45593999997E+02  0.45594000000E+02  0.51100000000E-03 0. -1.
    9900012    2    1    2    0    0  0.76283207853E+00 -0.25451501136E+02 -0.31698650348E+02  0.50528865027E+02  0.30000015737E+02 0.  0.
        -12    1    1    2    0    0 -0.76283207853E+00  0.25451501136E+02  0.31698650348E+02  0.40659134973E+02  0.00000000000E+00 0.  1.
         11    1    3    3    0    0 -0.63187784611E+01 -0.22187738190E+01 -0.79741294670E+01  0.10413292444E+02  0.51100000000E-03 0. -1.
        -11    1    3    3    0    0 -0.74219726991E+01 -0.49386422555E+01 -0.79038061725E+01  0.11914110053E+02  0.51100000000E-03 0.  1.
        -12    1    3    3    0    0  0.14503583239E+02 -0.18294085061E+02 -0.15820714709E+02  0.28201462531E+02  0.00000000000E+00 0.  1.
</event>
<event>
 7    1  0.2945316E-011  0.5052883E+02  0.7816164E-02  0.1300439E+00
        -11   -1    0    0    0    0  0.00000000000E+00  0.00000000000E+00  0.45593999997E+02  0.45594000000E+02  0.51100000000E-03 0. -1.
         11   -1    0    0    0    0 -0.00000000000E+00 -0.00000000000E+00 -0.45593999997E+02  0.45594000000E+02  0.51100000000E-03 0.  1.
    9900012    2    1    2    0    0  0.18297225560E+01 -0.38083988102E+02  0.14121962926E+02  0.50528832875E+02  0.29999918008E+02 0.  0.
        -12    1    1    2    0    0 -0.18297225560E+01  0.38083988102E+02 -0.14121962926E+02  0.40659167125E+02  0.00000000000E+00 0.  1.
         11    1    3    3    0    0  0.15900276096E+01 -0.18066046532E+02  0.11447429383E+02  0.21446535031E+02  0.51100000000E-03 0. -1.
        -11    1    3    3    0    0 -0.10001492671E+02 -0.12693240334E+02 -0.22544703883E+00  0.16161653147E+02  0.51100000000E-03 0.  1.
         12    1    3    3    0    0  0.10241187618E+02 -0.73247012366E+01  0.28999805811E+01  0.12920644697E+02  0.00000000000E+00 0. -1.
</event>
<event>
 7    1  0.2945316E-011  0.5052887E+02  0.7816164E-02  0.1300439E+00
        -11   -1    0    0    0    0  0.00000000000E+00  0.00000000000E+00  0.45593999997E+02  0.45594000000E+02  0.51100000000E-03 0.  1.
         11   -1    0    0    0    0 -0.00000000000E+00 -0.00000000000E+00 -0.45593999997E+02  0.45594000000E+02  0.51100000000E-03 0. -1.
    9900012    2    1    2    0    0 -0.62272690104E+01  0.21025726194E+02 -0.34238939902E+02  0.50528867607E+02  0.30000023579E+02 0.  0.
        -12    1    1    2    0    0  0.62272690104E+01 -0.21025726194E+02  0.34238939902E+02  0.40659132393E+02  0.00000000000E+00 0.  1.
         11    1    3    3    0    0 -0.21256510390E+01 -0.30345537189E+01 -0.24876120302E+01  0.44626362709E+01  0.51100000000E-03 0. -1.
        -11    1    3    3    0    0  0.42636393664E+01 -0.28253575085E+01 -0.62647569394E+01  0.80875487923E+01  0.51100000000E-03 0.  1.
         12    1    3    3    0    0 -0.83652573377E+01  0.26885637422E+02 -0.25486570932E+02  0.37978682544E+02  0.00000000000E+00 0. -1.
</event>
<event>
 7    1  0.2945316E-011  0.5052885E+02  0.7816164E-02  0.1300439E+00
        -11   -1    0    0    0    0  0.00000000000E+00  0.00000000000E+00  0.45593999997E+02  0.45594000000E+02  0.51100000000E-03 0. -1.
         11   -1    0    0    0    0 -0.00000000000E+00 -0.00000000000E+00 -0.45593999997E+02  0.45594000000E+02  0.51100000000E-03 0.  1.
    9900012    2    1    2    0    0  0.27665839089E+02  0.26364275879E+02  0.13881377520E+02  0.50528851743E+02  0.29999975357E+02 0.  0.
        -12    1    1    2    0    0 -0.27665839089E+02 -0.26364275879E+02 -0.13881377520E+02  0.40659148257E+02  0.00000000000E+00 0.  1.
         11    1    3    3    0    0  0.75501595892E+01  0.12093416677E+00  0.57173109055E+01  0.94713873929E+01  0.51100000000E-03 0. -1.
        -11    1    3    3    0    0  0.31969453205E+01  0.61699908299E+01  0.12642002608E+02  0.14426000015E+02  0.51100000000E-03 0.  1.
         12    1    3    3    0    0  0.16918734180E+02  0.20073350882E+02 -0.44779359930E+01  0.26631464335E+02  0.00000000000E+00 0. -1.
</event>
<event>
 7    1  0.2945316E-011  0.5052895E+02  0.7816164E-02  0.1300438E+00
        -11   -1    0    0    0    0  0.00000000000E+00  0.00000000000E+00  0.45593999997E+02  0.45594000000E+02  0.51100000000E-03 0. -1.
         11   -1    0    0    0    0 -0.00000000000E+00 -0.00000000000E+00 -0.45593999997E+02  0.45594000000E+02  0.51100000000E-03 0.  1.
    9900012    2    1    2    0    0  0.24901088369E+02  0.17174523277E+01 -0.32095869585E+02  0.50528945794E+02  0.30000261235E+02 0.  0.
        -12    1    1    2    0    0 -0.24901088369E+02 -0.17174523277E+01  0.32095869585E+02  0.40659054206E+02  0.00000000000E+00 0.  1.
         11    1    3    3    0    0 -0.34982124884E+01  0.53521978552E+00 -0.19147586499E+01  0.40237111951E+01  0.51100000000E-03 0. -1.
        -11    1    3    3    0    0  0.16451980077E+02  0.99065891614E+01 -0.23286207102E+02  0.30183697565E+02  0.51100000000E-03 0.  1.
         12    1    3    3    0    0  0.11947320781E+02 -0.87243566192E+01 -0.68949038332E+01  0.16321537034E+02  0.00000000000E+00 0. -1.
</event>
<event>
 7    1  0.2945316E-011  0.5052886E+02  0.7816164E-02  0.1300439E+00
        -11   -1    0    0    0    0  0.00000000000E+00  0.00000000000E+00  0.45593999997E+02  0.45594000000E+02  0.51100000000E-03 0.  1.
         11   -1    0    0    0    0 -0.00000000000E+00 -0.00000000000E+00 -0.45593999997E+02  0.45594000000E+02  0.51100000000E-03 0. -1.
    9900012    2    1    2    0    0  0.36287604457E+02 -0.16326581554E+02 -0.83557377502E+01  0.50528857660E+02  0.29999993344E+02 0.  0.
        -12    1    1    2    0    0 -0.36287604457E+02  0.16326581554E+02  0.83557377502E+01  0.40659142340E+02  0.00000000000E+00 0.  1.
         11    1    3    3    0    0  0.44599301849E+01  0.32682646313E+01  0.20202544948E+00  0.55329328116E+01  0.51100000000E-03 0. -1.
        -11    1    3    3    0    0 -0.33589464364E+01 -0.22766248403E+00  0.13503643885E+01  0.36273731008E+01  0.51100000000E-03 0.  1.
         12    1    3    3    0    0  0.35186620708E+02 -0.19367183701E+02 -0.99081275882E+01  0.41368551748E+02  0.00000000000E+00 0. -1.
</event>
<event>
 7    1  0.2945316E-011  0.5052886E+02  0.7816164E-02  0.1300439E+00
        -11   -1    0    0    0    0  0.00000000000E+00  0.00000000000E+00  0.45593999997E+02  0.45594000000E+02  0.51100000000E-03 0.  1.
         11   -1    0    0    0    0 -0.00000000000E+00 -0.00000000000E+00 -0.45593999997E+02  0.45594000000E+02  0.51100000000E-03 0. -1.
    9900012    2    1    2    0    0  0.19335464092E+02  0.93694073453E+01 -0.34518395417E+02  0.50528860955E+02  0.30000003360E+02 0.  0.
        -12    1    1    2    0    0 -0.19335464092E+02 -0.93694073453E+01  0.34518395417E+02  0.40659139045E+02  0.00000000000E+00 0.  1.
         11    1    3    3    0    0 -0.18529359166E+01 -0.99464701622E+00  0.45401483972E+00  0.21514701796E+01  0.51100000000E-03 0. -1.
        -11    1    3    3    0    0  0.56750937622E+01 -0.42094903136E+01  0.41918089831E+00  0.70782915168E+01  0.51100000000E-03 0.  1.
         12    1    3    3    0    0  0.15513306246E+02  0.14573544675E+02 -0.35391591155E+02  0.41299099259E+02  0.00000000000E+00 0. -1.
</event>
<event>
 7    1  0.2945316E-011  0.5052899E+02  0.7816164E-02  0.1300438E+00
        -11   -1    0    0    0    0  0.00000000000E+00  0.00000000000E+00  0.45593999997E+02  0.45594000000E+02  0.51100000000E-03 0.  1.
         11   -1    0    0    0    0 -0.00000000000E+00 -0.00000000000E+00 -0.45593999997E+02  0.45594000000E+02  0.51100000000E-03 0. -1.
    9900012    2    1    2    0    0 -0.26223381145E+02  0.17623134635E+02 -0.25591300508E+02  0.50528988026E+02  0.30000389601E+02 0.  0.
        -12    1    1    2    0    0  0.26223381145E+02 -0.17623134635E+02  0.25591300508E+02  0.40659011974E+02  0.00000000000E+00 0.  1.
         11    1    3    3    0    0 -0.29999684228E+02  0.88595528346E+01 -0.25527142228E+02  0.40374592516E+02  0.51100000000E-03 0. -1.
        -11    1    3    3    0    0  0.25348615552E+01  0.52814791889E+01 -0.17173136387E+01  0.61048105558E+01  0.51100000000E-03 0.  1.
        -12    1    3    3    0    0  0.12414415282E+01  0.34821026113E+01  0.16531553589E+01  0.40495849545E+01  0.00000000000E+00 0.  1.
</event>
<event>
 7    1  0.2945316E-011  0.5052888E+02  0.7816164E-02  0.1300439E+00
        -11   -1    0    0    0    0  0.00000000000E+00  0.00000000000E+00  0.45593999997E+02  0.45594000000E+02  0.51100000000E-03 0. -1.
         11   -1    0    0    0    0 -0.00000000000E+00 -0.00000000000E+00 -0.45593999997E+02  0.45594000000E+02  0.51100000000E-03 0.  1.
    9900012    2    1    2    0    0  0.25820921037E+02  0.31112172734E+02 -0.42984847302E+01  0.50528877697E+02  0.30000054249E+02 0.  0.
        -12    1    1    2    0    0 -0.25820921037E+02 -0.31112172734E+02  0.42984847302E+01  0.40659122303E+02  0.00000000000E+00 0.  1.
         11    1    3    3    0    0 -0.12140060980E+01  0.36610505630E+01  0.35995688530E+01  0.52757936104E+01  0.51100000000E-03 0. -1.
        -11    1    3    3    0    0 -0.15526276622E+01  0.11914751144E+02 -0.17878452936E+01  0.12147770929E+02  0.51100000000E-03 0.  1.
        -12    1    3    3    0    0  0.28587554797E+02  0.15536371027E+02 -0.61102082896E+01  0.33105313158E+02  0.00000000000E+00 0.  1.
</event>
<event>
 7    1  0.2945316E-011  0.5052887E+02  0.7816164E-02  0.1300439E+00
        -11   -1    0    0    0    0  0.00000000000E+00  0.00000000000E+00  0.45593999997E+02  0.45594000000E+02  0.51100000000E-03 0.  1.
         11   -1    0    0    0    0 -0.00000000000E+00 -0.00000000000E+00 -0.45593999997E+02  0.45594000000E+02  0.51100000000E-03 0. -1.
    9900012    2    1    2    0    0 -0.11718578663E+02 -0.14236844987E+02 -0.36237440155E+02  0.50528869290E+02  0.30000028695E+02 0.  0.
        -12    1    1    2    0    0  0.11718578663E+02  0.14236844987E+02  0.36237440155E+02  0.40659130710E+02  0.00000000000E+00 0.  1.
         11    1    3    3    0    0  0.68498270807E+01 -0.47849429352E+01 -0.17350773348E+02  0.19257859329E+02  0.51100000000E-03 0. -1.
        -11    1    3    3    0    0 -0.31715800071E+01 -0.67094225715E+01 -0.12161832940E+02  0.14247296294E+02  0.51100000000E-03 0.  1.
        -12    1    3    3    0    0 -0.15396825736E+02 -0.27424794800E+01 -0.67248338681E+01  0.17023713667E+02  0.00000000000E+00 0.  1.
</event>
<event>
 7    1  0.2945316E-011  0.5052879E+02  0.7816164E-02  0.1300439E+00
        -11   -1    0    0    0    0  0.00000000000E+00  0.00000000000E+00  0.45593999997E+02  0.45594000000E+02  0.51100000000E-03 0. -1.
         11   -1    0    0    0    0 -0.00000000000E+00 -0.00000000000E+00 -0.45593999997E+02  0.45594000000E+02  0.51100000000E-03 0.  1.
    9900012    2    1    2    0    0  0.24770001559E+02  0.27372276496E+02  0.17040437955E+02  0.50528794111E+02  0.29999800180E+02 0.  0.
        -12    1    1    2    0    0 -0.24770001559E+02 -0.27372276496E+02 -0.17040437955E+02  0.40659205889E+02  0.00000000000E+00 0.  1.
         11    1    3    3    0    0  0.17248078308E+02  0.21068681846E+02  0.16942401054E+02  0.32069152059E+02  0.51100000000E-03 0. -1.
        -11    1    3    3    0    0  0.35630227270E+00  0.69101806380E+01  0.59985238218E+01  0.91575016277E+01  0.51100000000E-03 0.  1.
        -12    1    3    3    0    0  0.71656209787E+01 -0.60658598860E+00 -0.59004869210E+01  0.93021404245E+01  0.00000000000E+00 0.  1.
</event>
<event>
 7    1  0.2945316E-011  0.5052887E+02  0.7816164E-02  0.1300439E+00
        -11   -1    0    0    0    0  0.00000000000E+00  0.00000000000E+00  0.45593999997E+02  0.45594000000E+02  0.51100000000E-03 0. -1.
         11   -1    0    0    0    0 -0.00000000000E+00 -0.00000000000E+00 -0.45593999997E+02  0.45594000000E+02  0.51100000000E-03 0.  1.
    9900012    2    1    2    0    0 -0.28549722538E+02  0.12232009166E+02  0.26238442006E+02  0.50528873791E+02  0.30000042374E+02 0.  0.
        -12    1    1    2    0    0  0.28549722538E+02 -0.12232009166E+02 -0.26238442006E+02  0.40659126209E+02  0.00000000000E+00 0.  1.
         11    1    3    3    0    0 -0.17721488832E+02 -0.47997735730E+00  0.67633136993E+01  0.18974297277E+02  0.51100000000E-03 0. -1.
        -11    1    3    3    0    0 -0.14391201860E+02  0.37044699971E+01  0.14057553048E+02  0.20455918139E+02  0.51100000000E-03 0.  1.
        -12    1    3    3    0    0  0.35629681548E+01  0.90075165261E+01  0.54175752588E+01  0.11098658375E+02  0.00000000000E+00 0.  1.
</event>
<event>
 7    1  0.2945316E-011  0.5052885E+02  0.7816164E-02  0.1300439E+00
        -11   -1    0    0    0    0  0.00000000000E+00  0.00000000000E+00  0.45593999997E+02  0.45594000000E+02  0.51100000000E-03 0. -1.
         11   -1    0    0    0    0 -0.00000000000E+00 -0.00000000000E+00 -0.45593999997E+02  0.45594000000E+02  0.51100000000E-03 0.  1.
    9900012    2    1    2    0    0 -0.22561021163E+02  0.29645553778E+02 -0.16288268168E+02  0.50528853248E+02  0.29999979931E+02 0.  0.
        -12    1    1    2    0    0  0.22561021163E+02 -0.29645553778E+02  0.16288268168E+02  0.40659146752E+02  0.00000000000E+00 0.  1.
         11    1    3    3    0    0 -0.12583167507E+02  0.19338882217E+02  0.80628399527E+00  0.23086328510E+02  0.51100000000E-03 0. -1.
        -11    1    3    3    0    0 -0.84357444489E+01  0.12968181668E+02 -0.71681508696E+01  0.17050451822E+02  0.51100000000E-03 0.  1.
        -12    1    3    3    0    0 -0.15421092065E+01 -0.26615101066E+01 -0.99264012935E+01  0.10392072916E+02  0.00000000000E+00 0.  1.
</event>
<event>
 7    1  0.2945316E-011  0.5052887E+02  0.7816164E-02  0.1300439E+00
        -11   -1    0    0    0    0  0.00000000000E+00  0.00000000000E+00  0.45593999997E+02  0.45594000000E+02  0.51100000000E-03 0.  1.
         11   -1    0    0    0    0 -0.00000000000E+00 -0.00000000000E+00 -0.45593999997E+02  0.45594000000E+02  0.51100000000E-03 0. -1.
    9900012    2    1    2    0    0 -0.41235784604E+01  0.22369486236E+01 -0.40387583192E+02  0.50528871695E+02  0.30000036004E+02 0.  0.
        -12    1    1    2    0    0  0.41235784604E+01 -0.22369486236E+01  0.40387583192E+02  0.40659128305E+02  0.00000000000E+00 0.  1.
         11    1    3    3    0    0 -0.85104851714E+01  0.24151973412E+01 -0.10571698759E+02  0.13784859483E+02  0.51100000000E-03 0. -1.
        -11    1    3    3    0    0 -0.61598559026E+01  0.63494161452E+01 -0.15075909342E+02  0.17479758376E+02  0.51100000000E-03 0.  1.
         12    1    3    3    0    0  0.10546762614E+02 -0.65276648628E+01 -0.14739975090E+02  0.19264253836E+02  0.00000000000E+00 0. -1.
</event>
<event>
 7    1  0.2945316E-011  0.5052886E+02  0.7816164E-02  0.1300439E+00
        -11   -1    0    0    0    0  0.00000000000E+00  0.00000000000E+00  0.45593999997E+02  0.45594000000E+02  0.51100000000E-03 0.  1.
         11   -1    0    0    0    0 -0.00000000000E+00 -0.00000000000E+00 -0.45593999997E+02  0.45594000000E+02  0.51100000000E-03 0. -1.
    9900012    2    1    2    0    0 -0.29864971030E+02 -0.27361599125E+02  0.35484939514E+01  0.50528863134E+02  0.30000009983E+02 0.  0.
        -12    1    1    2    0    0  0.29864971030E+02  0.27361599125E+02 -0.35484939514E+01  0.40659136866E+02  0.00000000000E+00 0.  1.
         11    1    3    3    0    0 -0.96898918902E+01 -0.21346551103E+01 -0.74927894085E+01  0.12433529292E+02  0.51100000000E-03 0. -1.
        -11    1    3    3    0    0 -0.44969682737E+00 -0.12884812011E+02  0.16283144659E+01  0.12995076608E+02  0.51100000000E-03 0.  1.
        -12    1    3    3    0    0 -0.19725382313E+02 -0.12342132004E+02  0.94129688939E+01  0.25100257234E+02  0.00000000000E+00 0.  1.
</event>
<event>
 7    1  0.2945316E-011  0.5052886E+02  0.7816164E-02  0.1300439E+00
        -11   -1    0    0    0    0  0.00000000000E+00  0.00000000000E+00  0.45593999997E+02  0.45594000000E+02  0.51100000000E-03 0. -1.
         11   -1    0    0    0    0 -0.00000000000E+00 -0.00000000000E+00 -0.45593999997E+02  0.45594000000E+02  0.51100000000E-03 0.  1.
    9900012    2    1    2    0    0  0.32416717415E+02  0.20311470767E+02  0.13775554869E+02  0.50528864193E+02  0.30000013200E+02 0.  0.
        -12    1    1    2    0    0 -0.32416717415E+02 -0.20311470767E+02 -0.13775554869E+02  0.40659135807E+02  0.00000000000E+00 0.  1.
         11    1    3    3    0    0  0.21467254985E+02  0.19311172356E+01  0.15033474495E+02  0.26278843316E+02  0.51100000000E-03 0. -1.
        -11    1    3    3    0    0  0.51539166113E+01  0.50710142684E+01  0.46291354541E+01  0.85852744545E+01  0.51100000000E-03 0.  1.
        -12    1    3    3    0    0  0.57955458187E+01  0.13309339263E+02 -0.58870550807E+01  0.15664746422E+02  0.00000000000E+00 0.  1.
</event>
<event>
 7    1  0.2945316E-011  0.5052885E+02  0.7816164E-02  0.1300439E+00
        -11   -1    0    0    0    0  0.00000000000E+00  0.00000000000E+00  0.45593999997E+02  0.45594000000E+02  0.51100000000E-03 0.  1.
         11   -1    0    0    0    0 -0.00000000000E+00 -0.00000000000E+00 -0.45593999997E+02  0.45594000000E+02  0.51100000000E-03 0. -1.
    9900012    2    1    2    0    0 -0.27341119033E+02 -0.24219882691E+02 -0.17861323361E+02  0.50528851217E+02  0.29999973758E+02 0.  0.
        -12    1    1    2    0    0  0.27341119033E+02  0.24219882691E+02  0.17861323361E+02  0.40659148783E+02  0.00000000000E+00 0.  1.
         11    1    3    3    0    0 -0.80910279257E+01 -0.17705232024E+02 -0.83752603747E+01  0.21191624773E+02  0.51100000000E-03 0.  1.
        -11    1    3    3    0    0  0.62837640477E+00 -0.34332050311E+01  0.38543606489E+01  0.51997932617E+01  0.51100000000E-03 0. -1.
         12    1    3    3    0    0 -0.19878467512E+02 -0.30814456362E+01 -0.13340423636E+02  0.24137433182E+02  0.00000000000E+00 0. -1.
</event>
<event>
 7    1  0.2945316E-011  0.5052888E+02  0.7816164E-02  0.1300439E+00
        -11   -1    0    0    0    0  0.00000000000E+00  0.00000000000E+00  0.45593999997E+02  0.45594000000E+02  0.51100000000E-03 0.  1.
         11   -1    0    0    0    0 -0.00000000000E+00 -0.00000000000E+00 -0.45593999997E+02  0.45594000000E+02  0.51100000000E-03 0. -1.
    9900012    2    1    2    0    0  0.37092787754E+01  0.39292589739E+02  0.97722987518E+01  0.50528878265E+02  0.30000055973E+02 0.  0.
        -12    1    1    2    0    0 -0.37092787754E+01 -0.39292589739E+02 -0.97722987518E+01  0.40659121735E+02  0.00000000000E+00 0.  1.
         11    1    3    3    0    0  0.51303363269E+00 -0.14458052473E+01 -0.32240276028E+01  0.35704216230E+01  0.51100000000E-03 0. -1.
        -11    1    3    3    0    0 -0.61161779664E+01  0.42123565356E+01  0.19287922533E+01  0.76727974245E+01  0.51100000000E-03 0.  1.
         12    1    3    3    0    0  0.93124231091E+01  0.36526038450E+02  0.11067534101E+02  0.39285659217E+02  0.00000000000E+00 0. -1.
</event>
<event>
 7    1  0.2945316E-011  0.5052886E+02  0.7816164E-02  0.1300439E+00
        -11   -1    0    0    0    0  0.00000000000E+00  0.00000000000E+00  0.45593999997E+02  0.45594000000E+02  0.51100000000E-03 0.  1.
         11   -1    0    0    0    0 -0.00000000000E+00 -0.00000000000E+00 -0.45593999997E+02  0.45594000000E+02  0.51100000000E-03 0. -1.
    9900012    2    1    2    0    0 -0.23975317112E+02  0.53082110383E+01 -0.32406370019E+02  0.50528858926E+02  0.29999997193E+02 0.  0.
        -12    1    1    2    0    0  0.23975317112E+02 -0.53082110383E+01  0.32406370019E+02  0.40659141074E+02  0.00000000000E+00 0.  1.
         11    1    3    3    0    0 -0.11777853256E+02 -0.81205524221E+01 -0.10852667652E+02  0.17956658775E+02  0.51100000000E-03 0. -1.
        -11    1    3    3    0    0  0.35520535907E+00 -0.25673577670E+01  0.42947901670E+00  0.26271561122E+01  0.51100000000E-03 0.  1.
        -12    1    3    3    0    0 -0.12552669215E+02  0.15996121227E+02 -0.21983181384E+02  0.29945044039E+02  0.00000000000E+00 0.  1.
</event>
<event>
 7    1  0.2945316E-011  0.5052885E+02  0.7816164E-02  0.1300439E+00
        -11   -1    0    0    0    0  0.00000000000E+00  0.00000000000E+00  0.45593999997E+02  0.45594000000E+02  0.51100000000E-03 0. -1.
         11   -1    0    0    0    0 -0.00000000000E+00 -0.00000000000E+00 -0.45593999997E+02  0.45594000000E+02  0.51100000000E-03 0.  1.
    9900012    2    1    2    0    0 -0.16829830068E+02  0.14803459883E+02  0.33923163290E+02  0.50528848358E+02  0.29999965069E+02 0.  0.
        -12    1    1    2    0    0  0.16829830068E+02 -0.14803459883E+02 -0.33923163290E+02  0.40659151642E+02  0.00000000000E+00 0.  1.
         11    1    3    3    0    0 -0.25240377690E+01 -0.49443672437E+01  0.10075972975E+02  0.11504032586E+02  0.51100000000E-03 0.  1.
        -11    1    3    3    0    0 -0.14378466968E+01 -0.23183401956E+01  0.91638186455E+01  0.95612591647E+01  0.51100000000E-03 0. -1.
        -12    1    3    3    0    0 -0.12867945602E+02  0.22066167323E+02  0.14683371670E+02  0.29463556607E+02  0.00000000000E+00 0.  1.
</event>
<event>
 7    1  0.2945316E-011  0.5052886E+02  0.7816164E-02  0.1300439E+00
        -11   -1    0    0    0    0  0.00000000000E+00  0.00000000000E+00  0.45593999997E+02  0.45594000000E+02  0.51100000000E-03 0.  1.
         11   -1    0    0    0    0 -0.00000000000E+00 -0.00000000000E+00 -0.45593999997E+02  0.45594000000E+02  0.51100000000E-03 0. -1.
    9900012    2    1    2    0    0 -0.27222684204E+01 -0.21737100838E+02 -0.34252786314E+02  0.50528859964E+02  0.30000000347E+02 0.  0.
        -12    1    1    2    0    0  0.27222684204E+01  0.21737100838E+02  0.34252786314E+02  0.40659140036E+02  0.00000000000E+00 0.  1.
         11    1    3    3    0    0 -0.15534639697E+00 -0.83567779477E+01 -0.19101459315E+02  0.20850074782E+02  0.51100000000E-03 0. -1.
        -11    1    3    3    0    0  0.73310529005E+01 -0.35896622969E+01 -0.13340057773E+02  0.15639282390E+02  0.51100000000E-03 0.  1.
         12    1    3    3    0    0 -0.98979749239E+01 -0.97906605931E+01 -0.18112692257E+01  0.14039502792E+02  0.00000000000E+00 0. -1.
</event>
<event>
 7    1  0.2945316E-011  0.5052887E+02  0.7816164E-02  0.1300439E+00
        -11   -1    0    0    0    0  0.00000000000E+00  0.00000000000E+00  0.45593999997E+02  0.45594000000E+02  0.51100000000E-03 0.  1.
         11   -1    0    0    0    0 -0.00000000000E+00 -0.00000000000E+00 -0.45593999997E+02  0.45594000000E+02  0.51100000000E-03 0. -1.
    9900012    2    1    2    0    0 -0.30659560355E+02  0.97961354698E+01 -0.24843345278E+02  0.50528871678E+02  0.30000035951E+02 0.  0.
        -12    1    1    2    0    0  0.30659560355E+02 -0.97961354698E+01  0.24843345278E+02  0.40659128322E+02  0.00000000000E+00 0.  1.
         11    1    3    3    0    0  0.63835597622E+00 -0.50436426890E+01  0.10971921886E+00  0.50850632734E+01  0.51100000000E-03 0. -1.
        -11    1    3    3    0    0 -0.15087569018E+02  0.64921426953E+01 -0.26522441241E+01  0.16637820014E+02  0.51100000000E-03 0.  1.
         12    1    3    3    0    0 -0.16210347313E+02  0.83476354635E+01 -0.22300820373E+02  0.28805988390E+02  0.00000000000E+00 0. -1.
</event>
<event>
 7    1  0.2945316E-011  0.5052886E+02  0.7816164E-02  0.1300439E+00
        -11   -1    0    0    0    0  0.00000000000E+00  0.00000000000E+00  0.45593999997E+02  0.45594000000E+02  0.51100000000E-03 0.  1.
         11   -1    0    0    0    0 -0.00000000000E+00 -0.00000000000E+00 -0.45593999997E+02  0.45594000000E+02  0.51100000000E-03 0. -1.
    9900012    2    1    2    0    0  0.25297981924E+02  0.30624296083E+02 -0.86793093276E+01  0.50528858219E+02  0.29999995041E+02 0.  0.
        -12    1    1    2    0    0 -0.25297981924E+02 -0.30624296083E+02  0.86793093276E+01  0.40659141781E+02  0.00000000000E+00 0.  1.
         11    1    3    3    0    0  0.13819850416E+02  0.24908940150E+02  0.12362269618E+01  0.28512660737E+02  0.51100000000E-03 0. -1.
        -11    1    3    3    0    0  0.74000111038E+01  0.91180270301E+01 -0.11924805297E+01  0.11803414393E+02  0.51100000000E-03 0.  1.
        -12    1    3    3    0    0  0.40781204045E+01 -0.34026710976E+01 -0.87230557597E+01  0.10212783089E+02  0.00000000000E+00 0.  1.
</event>
<event>
 7    1  0.2945316E-011  0.5052885E+02  0.7816164E-02  0.1300439E+00
        -11   -1    0    0    0    0  0.00000000000E+00  0.00000000000E+00  0.45593999997E+02  0.45594000000E+02  0.51100000000E-03 0.  1.
         11   -1    0    0    0    0 -0.00000000000E+00 -0.00000000000E+00 -0.45593999997E+02  0.45594000000E+02  0.51100000000E-03 0. -1.
    9900012    2    1    2    0    0  0.28362274414E+02 -0.26153015478E+02  0.12836181463E+02  0.50528851176E+02  0.29999973635E+02 0.  0.
        -12    1    1    2    0    0 -0.28362274414E+02  0.26153015478E+02 -0.12836181463E+02  0.40659148824E+02  0.00000000000E+00 0.  1.
         11    1    3    3    0    0  0.79062799524E+01 -0.21413763441E+02  0.10152912812E+01  0.22849274475E+02  0.51100000000E-03 0. -1.
        -11    1    3    3    0    0  0.48016599130E+01 -0.59041938369E+01 -0.64044103447E+00  0.76371203843E+01  0.51100000000E-03 0.  1.
        -12    1    3    3    0    0  0.15654334548E+02  0.11649417991E+01  0.12461331216E+02  0.20042456317E+02  0.00000000000E+00 0.  1.
</event>
<event>
 7    1  0.3004800E-011  0.5052887E+02  0.7816164E-02  0.1300439E+00
        -11   -1    0    0    0    0  0.00000000000E+00  0.00000000000E+00  0.45593999997E+02  0.45594000000E+02  0.51100000000E-03 0.  1.
         11   -1    0    0    0    0 -0.00000000000E+00 -0.00000000000E+00 -0.45593999997E+02  0.45594000000E+02  0.51100000000E-03 0. -1.
    9900012    2    1    2    0    0 -0.17569943193E+02  0.16113811533E+02 -0.32936414338E+02  0.50528865536E+02  0.30000017283E+02 0.  0.
        -12    1    1    2    0    0  0.17569943193E+02 -0.16113811533E+02  0.32936414338E+02  0.40659134464E+02  0.00000000000E+00 0.  1.
         11    1    3    3    0    0 -0.75674527352E+01  0.71096986234E+01 -0.23114629365E+02  0.25339697046E+02  0.51100000000E-03 0. -1.
        -11    1    3    3    0    0 -0.13290941920E+02  0.63717280143E+01 -0.13202714340E+02  0.19787868031E+02  0.51100000000E-03 0.  1.
        -12    1    3    3    0    0  0.32884514624E+01  0.26323848954E+01  0.33809293674E+01  0.54013004587E+01  0.00000000000E+00 0.  1.
</event>
<event>
 7    1  0.2945316E-011  0.5052886E+02  0.7816164E-02  0.1300439E+00
        -11   -1    0    0    0    0  0.00000000000E+00  0.00000000000E+00  0.45593999997E+02  0.45594000000E+02  0.51100000000E-03 0.  1.
         11   -1    0    0    0    0 -0.00000000000E+00 -0.00000000000E+00 -0.45593999997E+02  0.45594000000E+02  0.51100000000E-03 0. -1.
    9900012    2    1    2    0    0  0.39968740434E+02 -0.69441255902E+01  0.27284977514E+01  0.50528858444E+02  0.29999995727E+02 0.  0.
        -12    1    1    2    0    0 -0.39968740434E+02  0.69441255902E+01 -0.27284977514E+01  0.40659141556E+02  0.00000000000E+00 0.  1.
         11    1    3    3    0    0  0.25565590065E+02  0.20308426992E+01  0.73688493262E+01  0.26683771436E+02  0.51100000000E-03 0.  1.
        -11    1    3    3    0    0  0.12696679487E+02 -0.41232654337E+01  0.38720517165E+01  0.13899632103E+02  0.51100000000E-03 0. -1.
        -12    1    3    3    0    0  0.17064708818E+01 -0.48517028557E+01 -0.85124032913E+01  0.99454549048E+01  0.00000000000E+00 0.  1.
</event>
<event>
 7    1  0.2945316E-011  0.5052883E+02  0.7816164E-02  0.1300439E+00
        -11   -1    0    0    0    0  0.00000000000E+00  0.00000000000E+00  0.45593999997E+02  0.45594000000E+02  0.51100000000E-03 0. -1.
         11   -1    0    0    0    0 -0.00000000000E+00 -0.00000000000E+00 -0.45593999997E+02  0.45594000000E+02  0.51100000000E-03 0.  1.
    9900012    2    1    2    0    0 -0.36082701817E+02 -0.17853760438E+02 -0.56964668481E+01  0.50528832931E+02  0.29999918176E+02 0.  0.
        -12    1    1    2    0    0  0.36082701817E+02  0.17853760438E+02  0.56964668481E+01  0.40659167069E+02  0.00000000000E+00 0.  1.
         11    1    3    3    0    0 -0.75044403124E+01 -0.93552744901E+01 -0.93769754261E+01  0.15223844902E+02  0.51100000000E-03 0. -1.
        -11    1    3    3    0    0 -0.12279404096E+02 -0.22355734676E+01 -0.75095974742E+01  0.14566248939E+02  0.51100000000E-03 0.  1.
         12    1    3    3    0    0 -0.16298857409E+02 -0.62629124803E+01  0.11190106052E+02  0.20738739090E+02  0.00000000000E+00 0. -1.
</event>
<event>
 7    1  0.2945316E-011  0.5052886E+02  0.7816164E-02  0.1300439E+00
        -11   -1    0    0    0    0  0.00000000000E+00  0.00000000000E+00  0.45593999997E+02  0.45594000000E+02  0.51100000000E-03 0.  1.
         11   -1    0    0    0    0 -0.00000000000E+00 -0.00000000000E+00 -0.45593999997E+02  0.45594000000E+02  0.51100000000E-03 0. -1.
    9900012    2    1    2    0    0 -0.39707540425E+02  0.84543430888E+01  0.22362909456E+01  0.50528859812E+02  0.29999999883E+02 0.  0.
        -12    1    1    2    0    0  0.39707540425E+02 -0.84543430888E+01 -0.22362909456E+01  0.40659140188E+02  0.00000000000E+00 0.  1.
         11    1    3    3    0    0 -0.65005708465E+01 -0.37189542015E+01  0.69177310252E+01  0.10195246171E+02  0.51100000000E-03 0. -1.
        -11    1    3    3    0    0  0.39401126063E+00  0.58333271976E+01 -0.22927954762E+00  0.58511127523E+01  0.51100000000E-03 0.  1.
         12    1    3    3    0    0 -0.33600980839E+02  0.63399700927E+01 -0.44521605319E+01  0.34482500889E+02  0.00000000000E+00 0. -1.
</event>
<event>
 7    1  0.2945316E-011  0.5052886E+02  0.7816164E-02  0.1300439E+00
        -11   -1    0    0    0    0  0.00000000000E+00  0.00000000000E+00  0.45593999997E+02  0.45594000000E+02  0.51100000000E-03 0.  1.
         11   -1    0    0    0    0 -0.00000000000E+00 -0.00000000000E+00 -0.45593999997E+02  0.45594000000E+02  0.51100000000E-03 0. -1.
    9900012    2    1    2    0    0 -0.16539410915E+02  0.30885278288E+02  0.20632819740E+02  0.50528858608E+02  0.29999996225E+02 0.  0.
        -12    1    1    2    0    0  0.16539410915E+02 -0.30885278288E+02 -0.20632819740E+02  0.40659141392E+02  0.00000000000E+00 0.  1.
         11    1    3    3    0    0 -0.16852560250E+02  0.18036202859E+02  0.11524201982E+02  0.27241891126E+02  0.51100000000E-03 0. -1.
        -11    1    3    3    0    0 -0.10689482841E+01  0.11877177012E+02  0.13836451703E+02  0.18266290817E+02  0.51100000000E-03 0.  1.
         12    1    3    3    0    0  0.13820976193E+01  0.97189841663E+00 -0.47278339450E+01  0.50206766649E+01  0.00000000000E+00 0. -1.
</event>
<event>
 7    1  0.2945316E-011  0.5052886E+02  0.7816164E-02  0.1300439E+00
        -11   -1    0    0    0    0  0.00000000000E+00  0.00000000000E+00  0.45593999997E+02  0.45594000000E+02  0.51100000000E-03 0. -1.
         11   -1    0    0    0    0 -0.00000000000E+00 -0.00000000000E+00 -0.45593999997E+02  0.45594000000E+02  0.51100000000E-03 0.  1.
    9900012    2    1    2    0    0 -0.17907276431E+02  0.21571285356E+02  0.29447826487E+02  0.50528863438E+02  0.30000010908E+02 0.  0.
        -12    1    1    2    0    0  0.17907276431E+02 -0.21571285356E+02 -0.29447826487E+02  0.40659136562E+02  0.00000000000E+00 0.  1.
         11    1    3    3    0    0 -0.13905607465E+02 -0.15608428142E+01  0.16814468536E+02  0.21875294322E+02  0.51100000000E-03 0. -1.
        -11    1    3    3    0    0 -0.59705306612E+01  0.11600545381E+02  0.10533255283E+02  0.16768105339E+02  0.51100000000E-03 0.  1.
        -12    1    3    3    0    0  0.19688616953E+01  0.11531582789E+02  0.21001026677E+01  0.11885463778E+02  0.00000000000E+00 0.  1.
</event>
<event>
 7    1  0.2945316E-011  0.5052888E+02  0.7816164E-02  0.1300439E+00
        -11   -1    0    0    0    0  0.00000000000E+00  0.00000000000E+00  0.45593999997E+02  0.45594000000E+02  0.51100000000E-03 0.  1.
         11   -1    0    0    0    0 -0.00000000000E+00 -0.00000000000E+00 -0.45593999997E+02  0.45594000000E+02  0.51100000000E-03 0. -1.
    9900012    2    1    2    0    0  0.31564127571E+02 -0.25362342025E+02 -0.36907648029E+01  0.50528876951E+02  0.30000051981E+02 0.  0.
        -12    1    1    2    0    0 -0.31564127571E+02  0.25362342025E+02  0.36907648029E+01  0.40659123049E+02  0.00000000000E+00 0.  1.
         11    1    3    3    0    0 -0.19617909051E+01 -0.70038504981E+01 -0.10766131563E+00  0.72742103747E+01  0.51100000000E-03 0. -1.
        -11    1    3    3    0    0  0.56292997732E+00 -0.18886850371E+01  0.50391473074E+01  0.54108249995E+01  0.51100000000E-03 0.  1.
         12    1    3    3    0    0  0.32962988498E+02 -0.16469806489E+02 -0.86222507947E+01  0.37843841577E+02  0.00000000000E+00 0. -1.
</event>
<event>
 7    1  0.2945316E-011  0.5052886E+02  0.7816164E-02  0.1300439E+00
        -11   -1    0    0    0    0  0.00000000000E+00  0.00000000000E+00  0.45593999997E+02  0.45594000000E+02  0.51100000000E-03 0.  1.
         11   -1    0    0    0    0 -0.00000000000E+00 -0.00000000000E+00 -0.45593999997E+02  0.45594000000E+02  0.51100000000E-03 0. -1.
    9900012    2    1    2    0    0  0.23264222050E+02  0.15039221489E+01 -0.33311858440E+02  0.50528859304E+02  0.29999998339E+02 0.  0.
        -12    1    1    2    0    0 -0.23264222050E+02 -0.15039221489E+01  0.33311858440E+02  0.40659140696E+02  0.00000000000E+00 0.  1.
         11    1    3    3    0    0  0.12192766314E+01  0.41001815421E+01  0.50683710463E+00  0.43075524714E+01  0.51100000000E-03 0. -1.
        -11    1    3    3    0    0  0.77788604314E+01  0.72972134858E+01 -0.33957482584E+01  0.11193350739E+02  0.51100000000E-03 0.  1.
         12    1    3    3    0    0  0.14266084987E+02 -0.98934728789E+01 -0.30422947287E+02  0.35027956093E+02  0.00000000000E+00 0. -1.
</event>
<event>
 7    1  0.2945316E-011  0.5052876E+02  0.7816164E-02  0.1300439E+00
        -11   -1    0    0    0    0  0.00000000000E+00  0.00000000000E+00  0.45593999997E+02  0.45594000000E+02  0.51100000000E-03 0.  1.
         11   -1    0    0    0    0 -0.00000000000E+00 -0.00000000000E+00 -0.45593999997E+02  0.45594000000E+02  0.51100000000E-03 0. -1.
    9900012    2    1    2    0    0 -0.19035249606E+02  0.30921977699E+02 -0.18293826382E+02  0.50528763459E+02  0.29999707009E+02 0.  0.
        -12    1    1    2    0    0  0.19035249606E+02 -0.30921977699E+02  0.18293826382E+02  0.40659236541E+02  0.00000000000E+00 0.  1.
         11    1    3    3    0    0 -0.15754023338E+02  0.10050544330E+02 -0.12382066445E+02  0.22416919109E+02  0.51100000000E-03 0. -1.
        -11    1    3    3    0    0 -0.60339188496E+01 -0.35054556470E+00 -0.19303621457E+01  0.63448685684E+01  0.51100000000E-03 0.  1.
        -12    1    3    3    0    0  0.27526925809E+01  0.21221978933E+02 -0.39813977917E+01  0.21766975781E+02  0.00000000000E+00 0.  1.
</event>
<event>
 7    1  0.2945316E-011  0.5052886E+02  0.7816164E-02  0.1300439E+00
        -11   -1    0    0    0    0  0.00000000000E+00  0.00000000000E+00  0.45593999997E+02  0.45594000000E+02  0.51100000000E-03 0.  1.
         11   -1    0    0    0    0 -0.00000000000E+00 -0.00000000000E+00 -0.45593999997E+02  0.45594000000E+02  0.51100000000E-03 0. -1.
    9900012    2    1    2    0    0  0.25258852699E+01 -0.40476881053E+02 -0.28995772141E+01  0.50528861493E+02  0.30000004993E+02 0.  0.
        -12    1    1    2    0    0 -0.25258852699E+01  0.40476881053E+02  0.28995772141E+01  0.40659138507E+02  0.00000000000E+00 0.  1.
         11    1    3    3    0    0  0.20049196517E+01 -0.65431794915E+01 -0.53214302211E+01  0.86689399887E+01  0.51100000000E-03 0. -1.
        -11    1    3    3    0    0 -0.17786549757E+01 -0.85223717864E+01 -0.10186124652E+02  0.13399685447E+02  0.51100000000E-03 0.  1.
         12    1    3    3    0    0  0.22996205939E+01 -0.25411329775E+02  0.12607977659E+02  0.28460236057E+02  0.00000000000E+00 0. -1.
</event>
<event>
 7    1  0.2945316E-011  0.5052886E+02  0.7816164E-02  0.1300439E+00
        -11   -1    0    0    0    0  0.00000000000E+00  0.00000000000E+00  0.45593999997E+02  0.45594000000E+02  0.51100000000E-03 0. -1.
         11   -1    0    0    0    0 -0.00000000000E+00 -0.00000000000E+00 -0.45593999997E+02  0.45594000000E+02  0.51100000000E-03 0.  1.
    9900012    2    1    2    0    0 -0.16609432284E+00 -0.34462332415E+02  0.21575115507E+02  0.50528861397E+02  0.30000004701E+02 0.  0.
        -12    1    1    2    0    0  0.16609432284E+00  0.34462332415E+02 -0.21575115507E+02  0.40659138603E+02  0.00000000000E+00 0.  1.
         11    1    3    3    0    0 -0.40636318538E+01 -0.21124083238E+01  0.24719747654E+01  0.52044242978E+01  0.51100000000E-03 0. -1.
        -11    1    3    3    0    0 -0.10087748607E+02 -0.19542869257E+02  0.12154864550E+02  0.25128214088E+02  0.51100000000E-03 0.  1.
        -12    1    3    3    0    0  0.13985286138E+02 -0.12807054834E+02  0.69482761919E+01  0.20196223011E+02  0.00000000000E+00 0.  1.
</event>
<event>
 7    1  0.2945316E-011  0.5052886E+02  0.7816164E-02  0.1300439E+00
        -11   -1    0    0    0    0  0.00000000000E+00  0.00000000000E+00  0.45593999997E+02  0.45594000000E+02  0.51100000000E-03 0. -1.
         11   -1    0    0    0    0 -0.00000000000E+00 -0.00000000000E+00 -0.45593999997E+02  0.45594000000E+02  0.51100000000E-03 0.  1.
    9900012    2    1    2    0    0 -0.19246202710E+02 -0.13043305634E+02  0.33355985456E+02  0.50528857039E+02  0.29999991455E+02 0.  0.
        -12    1    1    2    0    0  0.19246202710E+02  0.13043305634E+02 -0.33355985456E+02  0.40659142961E+02  0.00000000000E+00 0.  1.
         11    1    3    3    0    0 -0.20620501857E+02 -0.14184955021E+02  0.18975371359E+02  0.31408323168E+02  0.51100000000E-03 0.  1.
        -11    1    3    3    0    0 -0.40390781001E+01  0.55325918375E+00  0.37545524018E+00  0.40940462285E+01  0.51100000000E-03 0. -1.
         12    1    3    3    0    0  0.54133772468E+01  0.58839020318E+00  0.14005158857E+02  0.15026487642E+02  0.00000000000E+00 0. -1.
</event>
<event>
 7    1  0.2945316E-011  0.5052885E+02  0.7816164E-02  0.1300439E+00
        -11   -1    0    0    0    0  0.00000000000E+00  0.00000000000E+00  0.45593999997E+02  0.45594000000E+02  0.51100000000E-03 0. -1.
         11   -1    0    0    0    0 -0.00000000000E+00 -0.00000000000E+00 -0.45593999997E+02  0.45594000000E+02  0.51100000000E-03 0.  1.
    9900012    2    1    2    0    0 -0.24759587287E+02  0.23207275721E+02  0.22395348952E+02  0.50528850185E+02  0.29999970623E+02 0.  0.
        -12    1    1    2    0    0  0.24759587287E+02 -0.23207275721E+02 -0.22395348952E+02  0.40659149815E+02  0.00000000000E+00 0.  1.
         11    1    3    3    0    0  0.24244350479E+01  0.40375996461E+00  0.26406604117E+00  0.24719705795E+01  0.51100000000E-03 0. -1.
        -11    1    3    3    0    0 -0.50621302603E+01 -0.74825528636E+00  0.13756238689E+02  0.14677164300E+02  0.51100000000E-03 0.  1.
         12    1    3    3    0    0 -0.22121892074E+02  0.23551771043E+02  0.83750442215E+01  0.33379715306E+02  0.00000000000E+00 0. -1.
</event>
<event>
 7    1  0.2945316E-011  0.5052890E+02  0.7816164E-02  0.1300439E+00
        -11   -1    0    0    0    0  0.00000000000E+00  0.00000000000E+00  0.45593999997E+02  0.45594000000E+02  0.51100000000E-03 0.  1.
         11   -1    0    0    0    0 -0.00000000000E+00 -0.00000000000E+00 -0.45593999997E+02  0.45594000000E+02  0.51100000000E-03 0. -1.
    9900012    2    1    2    0    0  0.18041490311E+02  0.33622220205E+02 -0.14043270440E+02  0.50528898820E+02  0.30000118453E+02 0.  0.
        -12    1    1    2    0    0 -0.18041490311E+02 -0.33622220205E+02  0.14043270440E+02  0.40659101180E+02  0.00000000000E+00 0.  1.
         11    1    3    3    0    0  0.87741414487E+01  0.65496350159E+01  0.30066382436E+01  0.11354433090E+02  0.51100000000E-03 0. -1.
        -11    1    3    3    0    0  0.10514710756E+02  0.58922601786E+01 -0.15763166299E+00  0.12054157801E+02  0.51100000000E-03 0.  1.
        -12    1    3    3    0    0 -0.12473618937E+01  0.21180325010E+02 -0.16892277021E+02  0.27120307929E+02  0.00000000000E+00 0.  1.
</event>
<event>
 7    1  0.2945316E-011  0.5052886E+02  0.7816164E-02  0.1300439E+00
        -11   -1    0    0    0    0  0.00000000000E+00  0.00000000000E+00  0.45593999997E+02  0.45594000000E+02  0.51100000000E-03 0.  1.
         11   -1    0    0    0    0 -0.00000000000E+00 -0.00000000000E+00 -0.45593999997E+02  0.45594000000E+02  0.51100000000E-03 0. -1.
    9900012    2    1    2    0    0 -0.18785735963E+02 -0.35958660698E+02 -0.26900976814E+01  0.50528858587E+02  0.29999996162E+02 0.  0.
        -12    1    1    2    0    0  0.18785735963E+02  0.35958660698E+02  0.26900976814E+01  0.40659141413E+02  0.00000000000E+00 0.  1.
         11    1    3    3    0    0 -0.58077195513E+01 -0.68808499506E+01 -0.55682131704E+01  0.10586817303E+02  0.51100000000E-03 0. -1.
        -11    1    3    3    0    0 -0.76762912398E+01 -0.43432669568E+01 -0.84596524254E+01  0.12221093833E+02  0.51100000000E-03 0.  1.
         12    1    3    3    0    0 -0.53017251721E+01 -0.24734543791E+02  0.11337767914E+02  0.27720947452E+02  0.00000000000E+00 0. -1.
</event>
<event>
 7    1  0.2945316E-011  0.5052885E+02  0.7816164E-02  0.1300439E+00
        -11   -1    0    0    0    0  0.00000000000E+00  0.00000000000E+00  0.45593999997E+02  0.45594000000E+02  0.51100000000E-03 0. -1.
         11   -1    0    0    0    0 -0.00000000000E+00 -0.00000000000E+00 -0.45593999997E+02  0.45594000000E+02  0.51100000000E-03 0.  1.
    9900012    2    1    2    0    0 -0.10759298029E+02  0.14266213610E+01  0.39183778034E+02  0.50528853383E+02  0.29999980344E+02 0.  0.
        -12    1    1    2    0    0  0.10759298029E+02 -0.14266213610E+01 -0.39183778034E+02  0.40659146617E+02  0.00000000000E+00 0.  1.
         11    1    3    3    0    0 -0.13559488302E+02 -0.20482680703E+01  0.23994775319E+02  0.27637010836E+02  0.51100000000E-03 0. -1.
        -11    1    3    3    0    0 -0.41904575873E+01 -0.12550223778E+01  0.13622046162E+02  0.14307171554E+02  0.51100000000E-03 0.  1.
        -12    1    3    3    0    0  0.69906478602E+01  0.47299118091E+01  0.15669565526E+01  0.85846709934E+01  0.00000000000E+00 0.  1.
</event>
<event>
 7    1  0.2945316E-011  0.5052886E+02  0.7816164E-02  0.1300439E+00
        -11   -1    0    0    0    0  0.00000000000E+00  0.00000000000E+00  0.45593999997E+02  0.45594000000E+02  0.51100000000E-03 0.  1.
         11   -1    0    0    0    0 -0.00000000000E+00 -0.00000000000E+00 -0.45593999997E+02  0.45594000000E+02  0.51100000000E-03 0. -1.
    9900012    2    1    2    0    0  0.72736147676E+01  0.16767645454E+02 -0.36319500659E+02  0.50528861618E+02  0.30000005373E+02 0.  0.
        -12    1    1    2    0    0 -0.72736147676E+01 -0.16767645454E+02  0.36319500659E+02  0.40659138382E+02  0.00000000000E+00 0.  1.
         11    1    3    3    0    0  0.12860417479E+02  0.22295402151E+01 -0.13653677408E+02  0.18888729294E+02  0.51100000000E-03 0. -1.
        -11    1    3    3    0    0  0.27193917107E+01  0.93935130644E+01 -0.39878204083E+01  0.10561055385E+02  0.51100000000E-03 0.  1.
        -12    1    3    3    0    0 -0.83061944221E+01  0.51445921741E+01 -0.18678002843E+02  0.21079076939E+02  0.00000000000E+00 0.  1.
</event>
<event>
 7    1  0.2945316E-011  0.5052886E+02  0.7816164E-02  0.1300439E+00
        -11   -1    0    0    0    0  0.00000000000E+00  0.00000000000E+00  0.45593999997E+02  0.45594000000E+02  0.51100000000E-03 0. -1.
         11   -1    0    0    0    0 -0.00000000000E+00 -0.00000000000E+00 -0.45593999997E+02  0.45594000000E+02  0.51100000000E-03 0.  1.
    9900012    2    1    2    0    0  0.40123712879E+02  0.54941218177E+01  0.36149580813E+01  0.50528860416E+02  0.30000001721E+02 0.  0.
        -12    1    1    2    0    0 -0.40123712879E+02 -0.54941218177E+01 -0.36149580813E+01  0.40659139584E+02  0.00000000000E+00 0.  1.
         11    1    3    3    0    0  0.17896520353E+01  0.92929343881E+01  0.79664636876E+00  0.94971642950E+01  0.51100000000E-03 0. -1.
        -11    1    3    3    0    0  0.17747231066E+02 -0.16547998433E+01  0.82377982856E+01  0.19635780960E+02  0.51100000000E-03 0.  1.
        -12    1    3    3    0    0  0.20586829778E+02 -0.21440127271E+01 -0.54194865731E+01  0.21395915162E+02  0.00000000000E+00 0.  1.
</event>
<event>
 7    1  0.2945316E-011  0.5052886E+02  0.7816164E-02  0.1300439E+00
        -11   -1    0    0    0    0  0.00000000000E+00  0.00000000000E+00  0.45593999997E+02  0.45594000000E+02  0.51100000000E-03 0. -1.
         11   -1    0    0    0    0 -0.00000000000E+00 -0.00000000000E+00 -0.45593999997E+02  0.45594000000E+02  0.51100000000E-03 0.  1.
    9900012    2    1    2    0    0 -0.33977968521E+02  0.11984571916E+02  0.18842322263E+02  0.50528863056E+02  0.30000009744E+02 0.  0.
        -12    1    1    2    0    0  0.33977968521E+02 -0.11984571916E+02 -0.18842322263E+02  0.40659136944E+02  0.00000000000E+00 0.  1.
         11    1    3    3    0    0 -0.34523686622E+01  0.14726924583E+00  0.13027552064E+00  0.34579632131E+01  0.51100000000E-03 0. -1.
        -11    1    3    3    0    0  0.34877893749E+01  0.40508762458E+01  0.96315064582E+01  0.11015452328E+02  0.51100000000E-03 0.  1.
        -12    1    3    3    0    0 -0.34013389233E+02  0.77864264245E+01  0.90805402840E+01  0.36055447514E+02  0.00000000000E+00 0.  1.
</event>
<event>
 7    1  0.2945316E-011  0.5052893E+02  0.7816164E-02  0.1300439E+00
        -11   -1    0    0    0    0  0.00000000000E+00  0.00000000000E+00  0.45593999997E+02  0.45594000000E+02  0.51100000000E-03 0.  1.
         11   -1    0    0    0    0 -0.00000000000E+00 -0.00000000000E+00 -0.45593999997E+02  0.45594000000E+02  0.51100000000E-03 0. -1.
    9900012    2    1    2    0    0 -0.22045842425E+02 -0.22551872862E+02 -0.25662297649E+02  0.50528933872E+02  0.30000224995E+02 0.  0.
        -12    1    1    2    0    0  0.22045842425E+02  0.22551872862E+02  0.25662297649E+02  0.40659066128E+02  0.00000000000E+00 0.  1.
         11    1    3    3    0    0 -0.18005301248E+01 -0.71886138694E+01 -0.14004057648E+02  0.15843980212E+02  0.51100000000E-03 0. -1.
        -11    1    3    3    0    0 -0.14006263091E+02 -0.19100454287E+02 -0.38185167086E+01  0.23991328222E+02  0.51100000000E-03 0.  1.
         12    1    3    3    0    0 -0.62390492094E+01  0.37371952939E+01 -0.78397232923E+01  0.10693625438E+02  0.00000000000E+00 0. -1.
</event>
<event>
 7    1  0.2945316E-011  0.5052885E+02  0.7816164E-02  0.1300439E+00
        -11   -1    0    0    0    0  0.00000000000E+00  0.00000000000E+00  0.45593999997E+02  0.45594000000E+02  0.51100000000E-03 0.  1.
         11   -1    0    0    0    0 -0.00000000000E+00 -0.00000000000E+00 -0.45593999997E+02  0.45594000000E+02  0.51100000000E-03 0. -1.
    9900012    2    1    2    0    0 -0.15189633360E+01 -0.31150667975E+01 -0.40511178003E+02  0.50528850551E+02  0.29999971734E+02 0.  0.
        -12    1    1    2    0    0  0.15189633360E+01  0.31150667975E+01  0.40511178003E+02  0.40659149449E+02  0.00000000000E+00 0.  1.
         11    1    3    3    0    0 -0.49685166803E+01  0.41142160429E+01 -0.15898719940E+02  0.17157570564E+02  0.51100000000E-03 0. -1.
        -11    1    3    3    0    0 -0.43712899191E+01 -0.45042031114E+01  0.10872045780E+01  0.63700891109E+01  0.51100000000E-03 0.  1.
         12    1    3    3    0    0  0.78208432633E+01 -0.27250797290E+01 -0.25699662641E+02  0.27001190876E+02  0.00000000000E+00 0. -1.
</event>
<event>
 7    1  0.2945316E-011  0.5052888E+02  0.7816164E-02  0.1300439E+00
        -11   -1    0    0    0    0  0.00000000000E+00  0.00000000000E+00  0.45593999997E+02  0.45594000000E+02  0.51100000000E-03 0. -1.
         11   -1    0    0    0    0 -0.00000000000E+00 -0.00000000000E+00 -0.45593999997E+02  0.45594000000E+02  0.51100000000E-03 0.  1.
    9900012    2    1    2    0    0 -0.37185127171E+02  0.83217998305E+01  0.14183728101E+02  0.50528878293E+02  0.30000056059E+02 0.  0.
        -12    1    1    2    0    0  0.37185127171E+02 -0.83217998305E+01 -0.14183728101E+02  0.40659121707E+02  0.00000000000E+00 0.  1.
         11    1    3    3    0    0 -0.29407448490E+00 -0.60903627134E+00 -0.55053553799E+01  0.55467416654E+01  0.51100000000E-03 0.  1.
        -11    1    3    3    0    0 -0.12780807722E+02  0.91115269204E+01  0.39391647853E+01  0.16182891840E+02  0.51100000000E-03 0. -1.
        -12    1    3    3    0    0 -0.24110244964E+02 -0.18069081854E+00  0.15749918696E+02  0.28799244788E+02  0.00000000000E+00 0.  1.
</event>
<event>
 7    1  0.2945316E-011  0.5052887E+02  0.7816164E-02  0.1300439E+00
        -11   -1    0    0    0    0  0.00000000000E+00  0.00000000000E+00  0.45593999997E+02  0.45594000000E+02  0.51100000000E-03 0.  1.
         11   -1    0    0    0    0 -0.00000000000E+00 -0.00000000000E+00 -0.45593999997E+02  0.45594000000E+02  0.51100000000E-03 0. -1.
    9900012    2    1    2    0    0 -0.39713054085E+02 -0.86917096507E+01  0.70148726940E+00  0.50528873523E+02  0.30000041562E+02 0.  0.
        -12    1    1    2    0    0  0.39713054085E+02  0.86917096507E+01 -0.70148726940E+00  0.40659126477E+02  0.00000000000E+00 0.  1.
         11    1    3    3    0    0 -0.85085960418E+01 -0.48958054847E+01  0.66087654337E+01  0.11833887728E+02  0.51100000000E-03 0. -1.
        -11    1    3    3    0    0 -0.27087334814E+02 -0.21440881885E+01  0.43513654352E+01  0.27518270347E+02  0.51100000000E-03 0.  1.
        -12    1    3    3    0    0 -0.41171232301E+01 -0.16518159775E+01 -0.10258643599E+02  0.11176715449E+02  0.00000000000E+00 0.  1.
</event>
<event>
 7    1  0.2945316E-011  0.5052886E+02  0.7816164E-02  0.1300439E+00
        -11   -1    0    0    0    0  0.00000000000E+00  0.00000000000E+00  0.45593999997E+02  0.45594000000E+02  0.51100000000E-03 0. -1.
         11   -1    0    0    0    0 -0.00000000000E+00 -0.00000000000E+00 -0.45593999997E+02  0.45594000000E+02  0.51100000000E-03 0.  1.
    9900012    2    1    2    0    0  0.39354728544E+01  0.42228686674E+01  0.40247300203E+02  0.50528859084E+02  0.29999997673E+02 0.  0.
        -12    1    1    2    0    0 -0.39354728544E+01 -0.42228686674E+01 -0.40247300203E+02  0.40659140916E+02  0.00000000000E+00 0.  1.
         11    1    3    3    0    0 -0.29519897031E+01 -0.26671926832E+01  0.16870128950E+02  0.17332899673E+02  0.51100000000E-03 0. -1.
        -11    1    3    3    0    0  0.29997599423E+00 -0.41973749604E+01  0.19175833672E+02  0.19632130283E+02  0.51100000000E-03 0.  1.
        -12    1    3    3    0    0  0.65874865632E+01  0.11087436311E+02  0.42013375809E+01  0.13563829129E+02  0.00000000000E+00 0.  1.
</event>
<event>
 7    1  0.2945316E-011  0.5052887E+02  0.7816164E-02  0.1300439E+00
        -11   -1    0    0    0    0  0.00000000000E+00  0.00000000000E+00  0.45593999997E+02  0.45594000000E+02  0.51100000000E-03 0.  1.
         11   -1    0    0    0    0 -0.00000000000E+00 -0.00000000000E+00 -0.45593999997E+02  0.45594000000E+02  0.51100000000E-03 0. -1.
    9900012    2    1    2    0    0  0.23299444681E+02  0.29512529294E+02  0.15469698521E+02  0.50528867200E+02  0.30000022340E+02 0.  0.
        -12    1    1    2    0    0 -0.23299444681E+02 -0.29512529294E+02 -0.15469698521E+02  0.40659132800E+02  0.00000000000E+00 0.  1.
         11    1    3    3    0    0 -0.28272919113E+01  0.71114308544E+01  0.55798039349E+01  0.94710210939E+01  0.51100000000E-03 0. -1.
        -11    1    3    3    0    0 -0.20325824463E+01 -0.16509581670E+01 -0.33295875046E+00  0.26396810528E+01  0.51100000000E-03 0.  1.
        -12    1    3    3    0    0  0.28159319038E+02  0.24052056606E+02  0.10222853337E+02  0.38418165053E+02  0.00000000000E+00 0.  1.
</event>
<event>
 7    1  0.2945316E-011  0.5052887E+02  0.7816164E-02  0.1300439E+00
        -11   -1    0    0    0    0  0.00000000000E+00  0.00000000000E+00  0.45593999997E+02  0.45594000000E+02  0.51100000000E-03 0. -1.
         11   -1    0    0    0    0 -0.00000000000E+00 -0.00000000000E+00 -0.45593999997E+02  0.45594000000E+02  0.51100000000E-03 0.  1.
    9900012    2    1    2    0    0  0.20915221127E+02 -0.22244605095E+02  0.26849501215E+02  0.50528872536E+02  0.30000038561E+02 0.  0.
        -12    1    1    2    0    0 -0.20915221127E+02  0.22244605095E+02 -0.26849501215E+02  0.40659127464E+02  0.00000000000E+00 0.  1.
         11    1    3    3    0    0  0.14280888764E+02 -0.62671172703E+01  0.20204953731E+02  0.25523728143E+02  0.51100000000E-03 0. -1.
        -11    1    3    3    0    0  0.49337535418E+01 -0.67720855758E+01  0.11680877537E+02  0.14375185819E+02  0.51100000000E-03 0.  1.
        -12    1    3    3    0    0  0.17005788215E+01 -0.92054022487E+01 -0.50363300523E+01  0.10629958574E+02  0.00000000000E+00 0.  1.
</event>
<event>
 7    1  0.2945316E-011  0.5052887E+02  0.7816164E-02  0.1300439E+00
        -11   -1    0    0    0    0  0.00000000000E+00  0.00000000000E+00  0.45593999997E+02  0.45594000000E+02  0.51100000000E-03 0.  1.
         11   -1    0    0    0    0 -0.00000000000E+00 -0.00000000000E+00 -0.45593999997E+02  0.45594000000E+02  0.51100000000E-03 0. -1.
    9900012    2    1    2    0    0 -0.33066626248E+02 -0.14885316329E+02 -0.18389960184E+02  0.50528867579E+02  0.30000023494E+02 0.  0.
        -12    1    1    2    0    0  0.33066626248E+02  0.14885316329E+02  0.18389960184E+02  0.40659132421E+02  0.00000000000E+00 0.  1.
         11    1    3    3    0    0 -0.33303193891E+01  0.26418738353E+01 -0.10242818046E+02  0.11089898393E+02  0.51100000000E-03 0. -1.
        -11    1    3    3    0    0 -0.80449468078E+01  0.19223179431E+01  0.21369287990E+01  0.85430053475E+01  0.51100000000E-03 0.  1.
         12    1    3    3    0    0 -0.21691360051E+02 -0.19449508107E+02 -0.10284070938E+02  0.30895963839E+02  0.00000000000E+00 0. -1.
</event>
<event>
 7    1  0.2945316E-011  0.5052886E+02  0.7816164E-02  0.1300439E+00
        -11   -1    0    0    0    0  0.00000000000E+00  0.00000000000E+00  0.45593999997E+02  0.45594000000E+02  0.51100000000E-03 0.  1.
         11   -1    0    0    0    0 -0.00000000000E+00 -0.00000000000E+00 -0.45593999997E+02  0.45594000000E+02  0.51100000000E-03 0. -1.
    9900012    2    1    2    0    0  0.17715836199E+02  0.35692867597E+02 -0.80829542795E+01  0.50528858354E+02  0.29999995451E+02 0.  0.
        -12    1    1    2    0    0 -0.17715836199E+02 -0.35692867597E+02  0.80829542795E+01  0.40659141646E+02  0.00000000000E+00 0.  1.
         11    1    3    3    0    0  0.13122327028E+02  0.14169306019E+02  0.36943115414E+01  0.19662467742E+02  0.51100000000E-03 0. -1.
        -11    1    3    3    0    0  0.99548969313E-01 -0.28919432034E+01 -0.38289680773E+01  0.47994002008E+01  0.51100000000E-03 0.  1.
        -12    1    3    3    0    0  0.44939602015E+01  0.24415504781E+02 -0.79482977436E+01  0.26066990410E+02  0.00000000000E+00 0.  1.
</event>
<event>
 7    1  0.2945316E-011  0.5052886E+02  0.7816164E-02  0.1300439E+00
        -11   -1    0    0    0    0  0.00000000000E+00  0.00000000000E+00  0.45593999997E+02  0.45594000000E+02  0.51100000000E-03 0.  1.
         11   -1    0    0    0    0 -0.00000000000E+00 -0.00000000000E+00 -0.45593999997E+02  0.45594000000E+02  0.51100000000E-03 0. -1.
    9900012    2    1    2    0    0  0.32652656549E+02 -0.18143447970E+02 -0.16055687084E+02  0.50528858695E+02  0.29999996488E+02 0.  0.
        -12    1    1    2    0    0 -0.32652656549E+02  0.18143447970E+02  0.16055687084E+02  0.40659141305E+02  0.00000000000E+00 0.  1.
         11    1    3    3    0    0  0.19771977843E+02 -0.67022030982E+01 -0.19990357772E+02  0.28904412091E+02  0.51100000000E-03 0. -1.
        -11    1    3    3    0    0  0.12153271508E+02 -0.77082540649E+01 -0.20466040414E+01  0.14536429322E+02  0.51100000000E-03 0.  1.
        -12    1    3    3    0    0  0.72740719831E+00 -0.37329908067E+01  0.59812747296E+01  0.70880172817E+01  0.00000000000E+00 0.  1.
</event>
<event>
 7    1  0.2945316E-011  0.5052892E+02  0.7816164E-02  0.1300439E+00
        -11   -1    0    0    0    0  0.00000000000E+00  0.00000000000E+00  0.45593999997E+02  0.45594000000E+02  0.51100000000E-03 0.  1.
         11   -1    0    0    0    0 -0.00000000000E+00 -0.00000000000E+00 -0.45593999997E+02  0.45594000000E+02  0.51100000000E-03 0. -1.
    9900012    2    1    2    0    0 -0.21192147220E+00  0.57768188716E+01 -0.40246041671E+02  0.50528924541E+02  0.30000196634E+02 0.  0.
        -12    1    1    2    0    0  0.21192147220E+00 -0.57768188716E+01  0.40246041671E+02  0.40659075459E+02  0.00000000000E+00 0.  1.
         11    1    3    3    0    0 -0.30554529380E+01  0.36939080160E+01 -0.51810268748E+01  0.70585968029E+01  0.51100000000E-03 0. -1.
        -11    1    3    3    0    0  0.52686966814E+01  0.11179190608E+02 -0.30698836406E+02  0.33093081216E+02  0.51100000000E-03 0.  1.
        -12    1    3    3    0    0 -0.24251652156E+01 -0.90962797523E+01 -0.43661783900E+01  0.10377246523E+02  0.00000000000E+00 0.  1.
</event>
<event>
 7    1  0.2945316E-011  0.5052884E+02  0.7816164E-02  0.1300439E+00
        -11   -1    0    0    0    0  0.00000000000E+00  0.00000000000E+00  0.45593999997E+02  0.45594000000E+02  0.51100000000E-03 0. -1.
         11   -1    0    0    0    0 -0.00000000000E+00 -0.00000000000E+00 -0.45593999997E+02  0.45594000000E+02  0.51100000000E-03 0.  1.
    9900012    2    1    2    0    0  0.26337827058E+02 -0.24486737633E+02 -0.18970656905E+02  0.50528840178E+02  0.29999940204E+02 0.  0.
        -12    1    1    2    0    0 -0.26337827058E+02  0.24486737633E+02  0.18970656905E+02  0.40659159822E+02  0.00000000000E+00 0.  1.
         11    1    3    3    0    0  0.36492081034E+01 -0.86116282526E+01 -0.24723759039E+01  0.96741668279E+01  0.51100000000E-03 0. -1.
        -11    1    3    3    0    0 -0.17669284632E+01 -0.12441941229E+02 -0.40780411175E+01  0.13211902110E+02  0.51100000000E-03 0.  1.
         12    1    3    3    0    0  0.24455547418E+02 -0.34331681513E+01 -0.12420239884E+02  0.27642771240E+02  0.00000000000E+00 0. -1.
</event>
<event>
 7    1  0.2945316E-011  0.5052886E+02  0.7816164E-02  0.1300439E+00
        -11   -1    0    0    0    0  0.00000000000E+00  0.00000000000E+00  0.45593999997E+02  0.45594000000E+02  0.51100000000E-03 0.  1.
         11   -1    0    0    0    0 -0.00000000000E+00 -0.00000000000E+00 -0.45593999997E+02  0.45594000000E+02  0.51100000000E-03 0. -1.
    9900012    2    1    2    0    0  0.17991794064E+02  0.54999074243E+01 -0.36044587030E+02  0.50528857246E+02  0.29999992085E+02 0.  0.
        -12    1    1    2    0    0 -0.17991794064E+02 -0.54999074243E+01  0.36044587030E+02  0.40659142754E+02  0.00000000000E+00 0.  1.
         11    1    3    3    0    0  0.48332073552E+01 -0.19417064133E+01 -0.30382987157E+01  0.60300395091E+01  0.51100000000E-03 0. -1.
        -11    1    3    3    0    0  0.19684907825E+02  0.78746944482E+01 -0.16893110296E+02  0.27108736312E+02  0.51100000000E-03 0.  1.
        -12    1    3    3    0    0 -0.65263211154E+01 -0.43308061065E+00 -0.16113178018E+02  0.17390081425E+02  0.00000000000E+00 0.  1.
</event>
<event>
 7    1  0.2945316E-011  0.5052884E+02  0.7816164E-02  0.1300439E+00
        -11   -1    0    0    0    0  0.00000000000E+00  0.00000000000E+00  0.45593999997E+02  0.45594000000E+02  0.51100000000E-03 0.  1.
         11   -1    0    0    0    0 -0.00000000000E+00 -0.00000000000E+00 -0.45593999997E+02  0.45594000000E+02  0.51100000000E-03 0. -1.
    9900012    2    1    2    0    0 -0.12263334140E+02 -0.21398508059E+01 -0.38706570622E+02  0.50528844388E+02  0.29999953003E+02 0.  0.
        -12    1    1    2    0    0  0.12263334140E+02  0.21398508059E+01  0.38706570622E+02  0.40659155612E+02  0.00000000000E+00 0.  1.
         11    1    3    3    0    0 -0.23852764553E+01  0.19345465574E+01  0.26058896250E+01  0.40277382176E+01  0.51100000000E-03 0. -1.
        -11    1    3    3    0    0 -0.19185717163E+01  0.49185817833E+01 -0.24405766936E+01  0.58163372536E+01  0.51100000000E-03 0.  1.
         12    1    3    3    0    0 -0.79594859684E+01 -0.89929791465E+01 -0.38871883554E+02  0.40684768917E+02  0.00000000000E+00 0. -1.
</event>
<event>
 7    1  0.2945316E-011  0.5052883E+02  0.7816164E-02  0.1300439E+00
        -11   -1    0    0    0    0  0.00000000000E+00  0.00000000000E+00  0.45593999997E+02  0.45594000000E+02  0.51100000000E-03 0.  1.
         11   -1    0    0    0    0 -0.00000000000E+00 -0.00000000000E+00 -0.45593999997E+02  0.45594000000E+02  0.51100000000E-03 0. -1.
    9900012    2    1    2    0    0  0.24793710320E+02  0.19502412646E+02 -0.25653384550E+02  0.50528827489E+02  0.29999901636E+02 0.  0.
        -12    1    1    2    0    0 -0.24793710320E+02 -0.19502412646E+02  0.25653384550E+02  0.40659172511E+02  0.00000000000E+00 0.  1.
         11    1    3    3    0    0  0.13664213237E+02  0.63864166743E+01 -0.52804023132E+01  0.15980603561E+02  0.51100000000E-03 0. -1.
        -11    1    3    3    0    0  0.13250946912E+02  0.27965175105E+01 -0.19811496255E+02  0.23997989257E+02  0.51100000000E-03 0.  1.
         12    1    3    3    0    0 -0.21214498301E+01  0.10319478461E+02 -0.56148598089E+00  0.10550234670E+02  0.00000000000E+00 0. -1.
</event>
<event>
 7    1  0.2945316E-011  0.5052886E+02  0.7816164E-02  0.1300439E+00
        -11   -1    0    0    0    0  0.00000000000E+00  0.00000000000E+00  0.45593999997E+02  0.45594000000E+02  0.51100000000E-03 0. -1.
         11   -1    0    0    0    0 -0.00000000000E+00 -0.00000000000E+00 -0.45593999997E+02  0.45594000000E+02  0.51100000000E-03 0.  1.
    9900012    2    1    2    0    0 -0.21198889735E+02  0.23373099708E+02  0.25641202646E+02  0.50528856021E+02  0.29999988363E+02 0.  0.
        -12    1    1    2    0    0  0.21198889735E+02 -0.23373099708E+02 -0.25641202646E+02  0.40659143979E+02  0.00000000000E+00 0.  1.
         11    1    3    3    0    0  0.58618893202E-03  0.28015956354E+01  0.57872128738E+01  0.64296789621E+01  0.51100000000E-03 0. -1.
        -11    1    3    3    0    0 -0.17936289933E+02  0.91051274355E+01  0.24147491715E+02  0.31427936594E+02  0.51100000000E-03 0.  1.
         12    1    3    3    0    0 -0.32631859906E+01  0.11466376637E+02 -0.42935019430E+01  0.12671240465E+02  0.00000000000E+00 0. -1.
</event>
<event>
 7    1  0.2945316E-011  0.5052885E+02  0.7816164E-02  0.1300439E+00
        -11   -1    0    0    0    0  0.00000000000E+00  0.00000000000E+00  0.45593999997E+02  0.45594000000E+02  0.51100000000E-03 0.  1.
         11   -1    0    0    0    0 -0.00000000000E+00 -0.00000000000E+00 -0.45593999997E+02  0.45594000000E+02  0.51100000000E-03 0. -1.
    9900012    2    1    2    0    0 -0.25134188206E+02  0.30786137183E+02 -0.85821405033E+01  0.50528846110E+02  0.29999958235E+02 0.  0.
        -12    1    1    2    0    0  0.25134188206E+02 -0.30786137183E+02  0.85821405033E+01  0.40659153890E+02  0.00000000000E+00 0.  1.
         11    1    3    3    0    0 -0.99450840185E+01  0.68303942806E+01 -0.68235624244E+01  0.13860735427E+02  0.51100000000E-03 0. -1.
        -11    1    3    3    0    0 -0.17040891062E+02  0.63954061910E+01 -0.46234841035E+01  0.18779504628E+02  0.51100000000E-03 0.  1.
        -12    1    3    3    0    0  0.18517868744E+01  0.17560336712E+02  0.28649060246E+01  0.17888606055E+02  0.00000000000E+00 0.  1.
</event>
<event>
 7    1  0.2945316E-011  0.5052887E+02  0.7816164E-02  0.1300439E+00
        -11   -1    0    0    0    0  0.00000000000E+00  0.00000000000E+00  0.45593999997E+02  0.45594000000E+02  0.51100000000E-03 0.  1.
         11   -1    0    0    0    0 -0.00000000000E+00 -0.00000000000E+00 -0.45593999997E+02  0.45594000000E+02  0.51100000000E-03 0. -1.
    9900012    2    1    2    0    0 -0.32126060419E+02 -0.19110843426E+02  0.15995527580E+02  0.50528868220E+02  0.30000025443E+02 0.  0.
        -12    1    1    2    0    0  0.32126060419E+02  0.19110843426E+02 -0.15995527580E+02  0.40659131780E+02  0.00000000000E+00 0.  1.
         11    1    3    3    0    0  0.46355464782E+00 -0.35686090447E+01  0.46684271962E+01  0.58944097391E+01  0.51100000000E-03 0. -1.
        -11    1    3    3    0    0  0.14919936061E+01 -0.93486883429E+00  0.70990364853E+01  0.73141194917E+01  0.51100000000E-03 0.  1.
         12    1    3    3    0    0 -0.34081608673E+02 -0.14607365547E+02  0.42280638985E+01  0.37320338990E+02  0.00000000000E+00 0. -1.
</event>
<event>
 7    1  0.2945316E-011  0.5052887E+02  0.7816164E-02  0.1300439E+00
        -11   -1    0    0    0    0  0.00000000000E+00  0.00000000000E+00  0.45593999997E+02  0.45594000000E+02  0.51100000000E-03 0.  1.
         11   -1    0    0    0    0 -0.00000000000E+00 -0.00000000000E+00 -0.45593999997E+02  0.45594000000E+02  0.51100000000E-03 0. -1.
    9900012    2    1    2    0    0  0.55870607469E+01 -0.39746747623E+02  0.64919989345E+01  0.50528865177E+02  0.30000016193E+02 0.  0.
        -12    1    1    2    0    0 -0.55870607469E+01  0.39746747623E+02 -0.64919989345E+01  0.40659134823E+02  0.00000000000E+00 0.  1.
         11    1    3    3    0    0  0.22562422917E+01 -0.11263967782E+02 -0.19781322339E+00  0.11489418166E+02  0.51100000000E-03 0. -1.
        -11    1    3    3    0    0  0.22186578886E+01 -0.15681153088E+02 -0.94242201179E+01  0.18429241170E+02  0.51100000000E-03 0.  1.
        -12    1    3    3    0    0  0.11121605666E+01 -0.12801626753E+02  0.16114032276E+02  0.20610205841E+02  0.00000000000E+00 0.  1.
</event>
<event>
 7    1  0.2945316E-011  0.5052887E+02  0.7816164E-02  0.1300439E+00
        -11   -1    0    0    0    0  0.00000000000E+00  0.00000000000E+00  0.45593999997E+02  0.45594000000E+02  0.51100000000E-03 0.  1.
         11   -1    0    0    0    0 -0.00000000000E+00 -0.00000000000E+00 -0.45593999997E+02  0.45594000000E+02  0.51100000000E-03 0. -1.
    9900012    2    1    2    0    0  0.11414427774E+02  0.72408338217E+01 -0.38346396450E+02  0.50528868719E+02  0.30000026958E+02 0.  0.
        -12    1    1    2    0    0 -0.11414427774E+02 -0.72408338217E+01  0.38346396450E+02  0.40659131281E+02  0.00000000000E+00 0.  1.
         11    1    3    3    0    0  0.83420094896E+01 -0.54605661433E+01 -0.85059661213E+01  0.13105661557E+02  0.51100000000E-03 0. -1.
        -11    1    3    3    0    0 -0.54301667669E+01  0.90430230388E+00 -0.17517938735E+02  0.18362533909E+02  0.51100000000E-03 0.  1.
         12    1    3    3    0    0  0.85025850507E+01  0.11797097661E+02 -0.12322491594E+02  0.19060673253E+02  0.00000000000E+00 0. -1.
</event>
<event>
 7    1  0.2945316E-011  0.5052887E+02  0.7816164E-02  0.1300439E+00
        -11   -1    0    0    0    0  0.00000000000E+00  0.00000000000E+00  0.45593999997E+02  0.45594000000E+02  0.51100000000E-03 0.  1.
         11   -1    0    0    0    0 -0.00000000000E+00 -0.00000000000E+00 -0.45593999997E+02  0.45594000000E+02  0.51100000000E-03 0. -1.
    9900012    2    1    2    0    0  0.14191633734E+02  0.12761169098E+02 -0.35901464690E+02  0.50528867303E+02  0.30000022654E+02 0.  0.
        -12    1    1    2    0    0 -0.14191633734E+02 -0.12761169098E+02  0.35901464690E+02  0.40659132697E+02  0.00000000000E+00 0.  1.
         11    1    3    3    0    0 -0.40508072685E+01 -0.36273169450E+01 -0.33579511242E+01  0.63907983664E+01  0.51100000000E-03 0.  1.
        -11    1    3    3    0    0  0.48211752289E+00  0.97584685679E+01 -0.17065660489E+02  0.19664610708E+02  0.51100000000E-03 0. -1.
        -12    1    3    3    0    0  0.17760323480E+02  0.66300174749E+01 -0.15477853076E+02  0.24473458229E+02  0.00000000000E+00 0.  1.
</event>
<event>
 7    1  0.2945316E-011  0.5052886E+02  0.7816164E-02  0.1300439E+00
        -11   -1    0    0    0    0  0.00000000000E+00  0.00000000000E+00  0.45593999997E+02  0.45594000000E+02  0.51100000000E-03 0. -1.
         11   -1    0    0    0    0 -0.00000000000E+00 -0.00000000000E+00 -0.45593999997E+02  0.45594000000E+02  0.51100000000E-03 0.  1.
    9900012    2    1    2    0    0 -0.19377985761E+02 -0.35742778785E+02 -0.33669105355E+00  0.50528856769E+02  0.29999990635E+02 0.  0.
        -12    1    1    2    0    0  0.19377985761E+02  0.35742778785E+02  0.33669105355E+00  0.40659143231E+02  0.00000000000E+00 0.  1.
         11    1    3    3    0    0 -0.93105507585E+01 -0.68019834140E+01  0.57035436638E+01  0.12864048522E+02  0.51100000000E-03 0. -1.
        -11    1    3    3    0    0 -0.10761674790E+02 -0.59771803323E+01  0.34855869676E+01  0.12794125440E+02  0.51100000000E-03 0.  1.
        -12    1    3    3    0    0  0.69423978705E+00 -0.22963615039E+02 -0.95258216850E+01  0.24870682807E+02  0.00000000000E+00 0.  1.
</event>
<event>
 7    1  0.2945316E-011  0.5052886E+02  0.7816164E-02  0.1300439E+00
        -11   -1    0    0    0    0  0.00000000000E+00  0.00000000000E+00  0.45593999997E+02  0.45594000000E+02  0.51100000000E-03 0. -1.
         11   -1    0    0    0    0 -0.00000000000E+00 -0.00000000000E+00 -0.45593999997E+02  0.45594000000E+02  0.51100000000E-03 0.  1.
    9900012    2    1    2    0    0  0.31055956402E+02 -0.69597889367E+01  0.25303250658E+02  0.50528861003E+02  0.30000003506E+02 0.  0.
        -12    1    1    2    0    0 -0.31055956402E+02  0.69597889367E+01 -0.25303250658E+02  0.40659138997E+02  0.00000000000E+00 0.  1.
         11    1    3    3    0    0 -0.91716035533E+00  0.47434568085E+00  0.43420555841E+01  0.44631417072E+01  0.51100000000E-03 0. -1.
        -11    1    3    3    0    0 -0.19231310124E+01 -0.18249160256E+01  0.94756250615E+01  0.98395234620E+01  0.51100000000E-03 0.  1.
         12    1    3    3    0    0  0.33896247770E+02 -0.56092185919E+01  0.11485570012E+02  0.36226195834E+02  0.00000000000E+00 0. -1.
</event>
<event>
 7    1  0.2945316E-011  0.5052886E+02  0.7816164E-02  0.1300439E+00
        -11   -1    0    0    0    0  0.00000000000E+00  0.00000000000E+00  0.45593999997E+02  0.45594000000E+02  0.51100000000E-03 0.  1.
         11   -1    0    0    0    0 -0.00000000000E+00 -0.00000000000E+00 -0.45593999997E+02  0.45594000000E+02  0.51100000000E-03 0. -1.
    9900012    2    1    2    0    0  0.17811793879E+02  0.36148016435E+02 -0.54061677451E+01  0.50528859047E+02  0.29999997558E+02 0.  0.
        -12    1    1    2    0    0 -0.17811793879E+02 -0.36148016435E+02  0.54061677451E+01  0.40659140953E+02  0.00000000000E+00 0.  1.
         11    1    3    3    0    0  0.14546262150E+02  0.10413394720E+02 -0.10932272004E+02  0.20965378688E+02  0.51100000000E-03 0. -1.
        -11    1    3    3    0    0  0.25139232830E+01 -0.66432852883E+00  0.90098278293E+00  0.27518926039E+01  0.51100000000E-03 0.  1.
        -12    1    3    3    0    0  0.75160844602E+00  0.26398950244E+02  0.46251214757E+01  0.26811587754E+02  0.00000000000E+00 0.  1.
</event>
<event>
 7    1  0.2945316E-011  0.5052884E+02  0.7816164E-02  0.1300439E+00
        -11   -1    0    0    0    0  0.00000000000E+00  0.00000000000E+00  0.45593999997E+02  0.45594000000E+02  0.51100000000E-03 0. -1.
         11   -1    0    0    0    0 -0.00000000000E+00 -0.00000000000E+00 -0.45593999997E+02  0.45594000000E+02  0.51100000000E-03 0.  1.
    9900012    2    1    2    0    0  0.39538403918E+02 -0.40169971559E+00 -0.94720917259E+01  0.50528840286E+02  0.29999940532E+02 0.  0.
        -12    1    1    2    0    0 -0.39538403918E+02  0.40169971559E+00  0.94720917259E+01  0.40659159714E+02  0.00000000000E+00 0.  1.
         11    1    3    3    0    0  0.23263250923E+02 -0.15929207187E+01 -0.12050310149E+02  0.26247403964E+02  0.51100000000E-03 0. -1.
        -11    1    3    3    0    0  0.15876411315E+02 -0.56626054911E+01  0.38723721021E+01  0.17295109226E+02  0.51100000000E-03 0.  1.
        -12    1    3    3    0    0  0.39874167997E+00  0.68538264941E+01 -0.12941536794E+01  0.69863270955E+01  0.00000000000E+00 0.  1.
</event>
<event>
 7    1  0.2945316E-011  0.5052885E+02  0.7816164E-02  0.1300439E+00
        -11   -1    0    0    0    0  0.00000000000E+00  0.00000000000E+00  0.45593999997E+02  0.45594000000E+02  0.51100000000E-03 0.  1.
         11   -1    0    0    0    0 -0.00000000000E+00 -0.00000000000E+00 -0.45593999997E+02  0.45594000000E+02  0.51100000000E-03 0. -1.
    9900012    2    1    2    0    0  0.34043590521E+02 -0.20033401004E+02  0.96365566372E+01  0.50528850535E+02  0.29999971686E+02 0.  0.
        -12    1    1    2    0    0 -0.34043590521E+02  0.20033401004E+02 -0.96365566372E+01  0.40659149465E+02  0.00000000000E+00 0.  1.
         11    1    3    3    0    0  0.93728429861E+00 -0.72272213005E+01  0.10654624125E+01  0.73652182586E+01  0.51100000000E-03 0. -1.
        -11    1    3    3    0    0 -0.33352570856E+01  0.21445741003E+00 -0.59582170510E+00  0.33948395505E+01  0.51100000000E-03 0.  1.
        -12    1    3    3    0    0  0.36441563309E+02 -0.13020637114E+02  0.91669159299E+01  0.39768792726E+02  0.00000000000E+00 0.  1.
</event>
<event>
 7    1  0.2945316E-011  0.5052887E+02  0.7816164E-02  0.1300439E+00
        -11   -1    0    0    0    0  0.00000000000E+00  0.00000000000E+00  0.45593999997E+02  0.45594000000E+02  0.51100000000E-03 0.  1.
         11   -1    0    0    0    0 -0.00000000000E+00 -0.00000000000E+00 -0.45593999997E+02  0.45594000000E+02  0.51100000000E-03 0. -1.
    9900012    2    1    2    0    0 -0.30646920522E+02 -0.24847482697E+02 -0.98251523515E+01  0.50528871227E+02  0.30000034581E+02 0.  0.
        -12    1    1    2    0    0  0.30646920522E+02  0.24847482697E+02  0.98251523515E+01  0.40659128773E+02  0.00000000000E+00 0.  1.
         11    1    3    3    0    0  0.32501026444E+00  0.14124694025E+01 -0.14936050005E+01  0.20812394489E+01  0.51100000000E-03 0.  1.
        -11    1    3    3    0    0 -0.13765116566E+02 -0.55433036203E+01 -0.14578132186E+02  0.20802129396E+02  0.51100000000E-03 0. -1.
        -12    1    3    3    0    0 -0.17206814220E+02 -0.20716648479E+02  0.62465848353E+01  0.27645502382E+02  0.00000000000E+00 0.  1.
</event>
<event>
 7    1  0.2945316E-011  0.5052886E+02  0.7816164E-02  0.1300439E+00
        -11   -1    0    0    0    0  0.00000000000E+00  0.00000000000E+00  0.45593999997E+02  0.45594000000E+02  0.51100000000E-03 0.  1.
         11   -1    0    0    0    0 -0.00000000000E+00 -0.00000000000E+00 -0.45593999997E+02  0.45594000000E+02  0.51100000000E-03 0. -1.
    9900012    2    1    2    0    0 -0.43269983789E+01  0.17989065983E+02 -0.36205478109E+02  0.50528855211E+02  0.29999985900E+02 0.  0.
        -12    1    1    2    0    0  0.43269983789E+01 -0.17989065983E+02  0.36205478109E+02  0.40659144789E+02  0.00000000000E+00 0.  1.
         11    1    3    3    0    0 -0.95744914849E+01  0.15191072176E+02 -0.20708031362E+02  0.27409161319E+02  0.51100000000E-03 0. -1.
        -11    1    3    3    0    0 -0.46850986334E+01  0.51366153291E+01 -0.62439957162E+01  0.93446481480E+01  0.51100000000E-03 0.  1.
         12    1    3    3    0    0  0.99325917395E+01 -0.23386215226E+01 -0.92534510303E+01  0.13775045744E+02  0.00000000000E+00 0. -1.
</event>
<event>
 7    1  0.2945316E-011  0.5052884E+02  0.7816164E-02  0.1300439E+00
        -11   -1    0    0    0    0  0.00000000000E+00  0.00000000000E+00  0.45593999997E+02  0.45594000000E+02  0.51100000000E-03 0. -1.
         11   -1    0    0    0    0 -0.00000000000E+00 -0.00000000000E+00 -0.45593999997E+02  0.45594000000E+02  0.51100000000E-03 0.  1.
    9900012    2    1    2    0    0 -0.97886100001E+01 -0.39386528019E+02  0.24599654329E+01  0.50528844757E+02  0.29999954123E+02 0.  0.
        -12    1    1    2    0    0  0.97886100001E+01  0.39386528019E+02 -0.24599654329E+01  0.40659155243E+02  0.00000000000E+00 0.  1.
         11    1    3    3    0    0  0.23227318812E+01 -0.59929657025E+01  0.10219627970E+02  0.12072759313E+02  0.51100000000E-03 0. -1.
        -11    1    3    3    0    0 -0.10410551461E+01  0.22878633004E+00  0.15251573176E+01  0.18607106456E+01  0.51100000000E-03 0.  1.
         12    1    3    3    0    0 -0.11070286735E+02 -0.33622348647E+02 -0.92848198551E+01  0.36595374799E+02  0.00000000000E+00 0. -1.
</event>
<event>
 7    1  0.2945316E-011  0.5052886E+02  0.7816164E-02  0.1300439E+00
        -11   -1    0    0    0    0  0.00000000000E+00  0.00000000000E+00  0.45593999997E+02  0.45594000000E+02  0.51100000000E-03 0.  1.
         11   -1    0    0    0    0 -0.00000000000E+00 -0.00000000000E+00 -0.45593999997E+02  0.45594000000E+02  0.51100000000E-03 0. -1.
    9900012    2    1    2    0    0 -0.37645988258E+02  0.11056438476E+02 -0.10663031901E+02  0.50528861876E+02  0.30000006157E+02 0.  0.
        -12    1    1    2    0    0  0.37645988258E+02 -0.11056438476E+02  0.10663031901E+02  0.40659138124E+02  0.00000000000E+00 0.  1.
         11    1    3    3    0    0 -0.27336381989E+02  0.12543525879E+02 -0.38620285013E+01  0.30323803952E+02  0.51100000000E-03 0. -1.
        -11    1    3    3    0    0 -0.13327272929E+01  0.66346749576E+01 -0.12261009184E+01  0.68773830454E+01  0.51100000000E-03 0.  1.
         12    1    3    3    0    0 -0.89768789759E+01 -0.81217623598E+01 -0.55749024809E+01  0.13327674878E+02  0.00000000000E+00 0. -1.
</event>
<event>
 7    1  0.2945316E-011  0.5052887E+02  0.7816164E-02  0.1300439E+00
        -11   -1    0    0    0    0  0.00000000000E+00  0.00000000000E+00  0.45593999997E+02  0.45594000000E+02  0.51100000000E-03 0.  1.
         11   -1    0    0    0    0 -0.00000000000E+00 -0.00000000000E+00 -0.45593999997E+02  0.45594000000E+02  0.51100000000E-03 0. -1.
    9900012    2    1    2    0    0  0.40617763295E+02 -0.18530078651E+00 -0.18242097548E+01  0.50528870980E+02  0.30000033831E+02 0.  0.
        -12    1    1    2    0    0 -0.40617763295E+02  0.18530078651E+00  0.18242097548E+01  0.40659129020E+02  0.00000000000E+00 0.  1.
         11    1    3    3    0    0  0.76094578136E+01  0.36967716717E+01  0.66573077889E+01  0.10765208603E+02  0.51100000000E-03 0. -1.
        -11    1    3    3    0    0  0.20018522015E+01 -0.66818760027E+01 -0.46799596048E+01  0.83998155525E+01  0.51100000000E-03 0.  1.
        -12    1    3    3    0    0  0.31006453280E+02  0.27998035445E+01 -0.38015579388E+01  0.31363846824E+02  0.00000000000E+00 0.  1.
</event>
<event>
 7    1  0.2945316E-011  0.5052886E+02  0.7816164E-02  0.1300439E+00
        -11   -1    0    0    0    0  0.00000000000E+00  0.00000000000E+00  0.45593999997E+02  0.45594000000E+02  0.51100000000E-03 0.  1.
         11   -1    0    0    0    0 -0.00000000000E+00 -0.00000000000E+00 -0.45593999997E+02  0.45594000000E+02  0.51100000000E-03 0. -1.
    9900012    2    1    2    0    0 -0.38031360197E+02  0.12121806026E+02 -0.77358410317E+01  0.50528858638E+02  0.29999996317E+02 0.  0.
        -12    1    1    2    0    0  0.38031360197E+02 -0.12121806026E+02  0.77358410317E+01  0.40659141362E+02  0.00000000000E+00 0.  1.
         11    1    3    3    0    0 -0.26544525626E+02 -0.38910372766E+01 -0.87220206026E+01  0.28210382051E+02  0.51100000000E-03 0. -1.
        -11    1    3    3    0    0 -0.53071487390E+01  0.26827987243E+01  0.41974147140E+01  0.72788410668E+01  0.51100000000E-03 0.  1.
         12    1    3    3    0    0 -0.61796858321E+01  0.13330044579E+02 -0.32112351430E+01  0.15039635521E+02  0.00000000000E+00 0. -1.
</event>
<event>
 7    1  0.2945316E-011  0.5052886E+02  0.7816164E-02  0.1300439E+00
        -11   -1    0    0    0    0  0.00000000000E+00  0.00000000000E+00  0.45593999997E+02  0.45594000000E+02  0.51100000000E-03 0.  1.
         11   -1    0    0    0    0 -0.00000000000E+00 -0.00000000000E+00 -0.45593999997E+02  0.45594000000E+02  0.51100000000E-03 0. -1.
    9900012    2    1    2    0    0 -0.31983751889E+02 -0.79393981313E+01 -0.23815360328E+02  0.50528858160E+02  0.29999994864E+02 0.  0.
        -12    1    1    2    0    0  0.31983751889E+02  0.79393981313E+01  0.23815360328E+02  0.40659141840E+02  0.00000000000E+00 0.  1.
         11    1    3    3    0    0 -0.12112226322E+02 -0.38665135610E+01 -0.12177794876E+01  0.12772585515E+02  0.51100000000E-03 0. -1.
        -11    1    3    3    0    0 -0.82451047578E+01 -0.11895265082E+02 -0.51145902492E+01  0.15350508706E+02  0.51100000000E-03 0.  1.
        -12    1    3    3    0    0 -0.11626420809E+02  0.78223805120E+01 -0.17482990591E+02  0.22405763940E+02  0.00000000000E+00 0.  1.
</event>
<event>
 7    1  0.2945316E-011  0.5052884E+02  0.7816164E-02  0.1300439E+00
        -11   -1    0    0    0    0  0.00000000000E+00  0.00000000000E+00  0.45593999997E+02  0.45594000000E+02  0.51100000000E-03 0.  1.
         11   -1    0    0    0    0 -0.00000000000E+00 -0.00000000000E+00 -0.45593999997E+02  0.45594000000E+02  0.51100000000E-03 0. -1.
    9900012    2    1    2    0    0 -0.26796421931E+02  0.30025173452E+02 -0.57972599003E+01  0.50528837546E+02  0.29999932204E+02 0.  0.
        -12    1    1    2    0    0  0.26796421931E+02 -0.30025173452E+02  0.57972599003E+01  0.40659162454E+02  0.00000000000E+00 0.  1.
         11    1    3    3    0    0 -0.43504212172E+01 -0.17984459441E+01  0.13409262069E+01  0.48947580057E+01  0.51100000000E-03 0. -1.
        -11    1    3    3    0    0 -0.54900952486E+01  0.24692864445E+01  0.67104381381E+01  0.90149044171E+01  0.51100000000E-03 0.  1.
        -12    1    3    3    0    0 -0.16955905465E+02  0.29354332952E+02 -0.13848624245E+02  0.36619175123E+02  0.00000000000E+00 0.  1.
</event>
<event>
 7    1  0.2945316E-011  0.5052887E+02  0.7816164E-02  0.1300439E+00
        -11   -1    0    0    0    0  0.00000000000E+00  0.00000000000E+00  0.45593999997E+02  0.45594000000E+02  0.51100000000E-03 0. -1.
         11   -1    0    0    0    0 -0.00000000000E+00 -0.00000000000E+00 -0.45593999997E+02  0.45594000000E+02  0.51100000000E-03 0.  1.
    9900012    2    1    2    0    0  0.27040484954E+02 -0.15202879807E+02  0.26284019772E+02  0.50528867246E+02  0.30000022479E+02 0.  0.
        -12    1    1    2    0    0 -0.27040484954E+02  0.15202879807E+02 -0.26284019772E+02  0.40659132754E+02  0.00000000000E+00 0.  1.
         11    1    3    3    0    0  0.48213432891E+00 -0.17447673406E+01  0.74419391522E+01  0.76589245453E+01  0.51100000000E-03 0. -1.
        -11    1    3    3    0    0  0.10832724195E+01 -0.12975811312E+02  0.59964992782E+01  0.14335381481E+02  0.51100000000E-03 0.  1.
        -12    1    3    3    0    0  0.25475078206E+02 -0.48230115405E+00  0.12845581341E+02  0.28534561220E+02  0.00000000000E+00 0.  1.
</event>
<event>
 7    1  0.2945316E-011  0.5052886E+02  0.7816164E-02  0.1300439E+00
        -11   -1    0    0    0    0  0.00000000000E+00  0.00000000000E+00  0.45593999997E+02  0.45594000000E+02  0.51100000000E-03 0. -1.
         11   -1    0    0    0    0 -0.00000000000E+00 -0.00000000000E+00 -0.45593999997E+02  0.45594000000E+02  0.51100000000E-03 0.  1.
    9900012    2    1    2    0    0  0.38312378446E+01 -0.35572373242E+02  0.19315627971E+02  0.50528860740E+02  0.30000002704E+02 0.  0.
        -12    1    1    2    0    0 -0.38312378446E+01  0.35572373242E+02 -0.19315627971E+02  0.40659139260E+02  0.00000000000E+00 0.  1.
         11    1    3    3    0    0  0.39613304350E+01 -0.23607277872E+02  0.11059508607E+02  0.26368701868E+02  0.51100000000E-03 0. -1.
        -11    1    3    3    0    0  0.42200598034E+01 -0.15336362869E+02  0.94869063489E+01  0.18520645861E+02  0.51100000000E-03 0.  1.
        -12    1    3    3    0    0 -0.43501523938E+01  0.33712674981E+01 -0.12307869848E+01  0.56395130104E+01  0.00000000000E+00 0.  1.
</event>
<event>
 7    1  0.2945316E-011  0.5052886E+02  0.7816164E-02  0.1300439E+00
        -11   -1    0    0    0    0  0.00000000000E+00  0.00000000000E+00  0.45593999997E+02  0.45594000000E+02  0.51100000000E-03 0. -1.
         11   -1    0    0    0    0 -0.00000000000E+00 -0.00000000000E+00 -0.45593999997E+02  0.45594000000E+02  0.51100000000E-03 0.  1.
    9900012    2    1    2    0    0 -0.21575827754E+02 -0.17100334115E+02  0.29920360005E+02  0.50528859418E+02  0.29999998686E+02 0.  0.
        -12    1    1    2    0    0  0.21575827754E+02  0.17100334115E+02 -0.29920360005E+02  0.40659140582E+02  0.00000000000E+00 0.  1.
         11    1    3    3    0    0 -0.27889516976E+00 -0.78502028639E+01  0.14176035390E+02  0.16206895050E+02  0.51100000000E-03 0. -1.
        -11    1    3    3    0    0 -0.21222264096E+01 -0.10947226298E+02  0.71073216323E+01  0.13223449989E+02  0.51100000000E-03 0.  1.
        -12    1    3    3    0    0 -0.19174706174E+02  0.16970950478E+01  0.86370029821E+01  0.21098514379E+02  0.00000000000E+00 0.  1.
</event>
<event>
 7    1  0.2945316E-011  0.5052887E+02  0.7816164E-02  0.1300439E+00
        -11   -1    0    0    0    0  0.00000000000E+00  0.00000000000E+00  0.45593999997E+02  0.45594000000E+02  0.51100000000E-03 0. -1.
         11   -1    0    0    0    0 -0.00000000000E+00 -0.00000000000E+00 -0.45593999997E+02  0.45594000000E+02  0.51100000000E-03 0.  1.
    9900012    2    1    2    0    0 -0.23396367556E+02 -0.12639587705E+01  0.33229166942E+02  0.50528866435E+02  0.30000020015E+02 0.  0.
        -12    1    1    2    0    0  0.23396367556E+02  0.12639587705E+01 -0.33229166942E+02  0.40659133565E+02  0.00000000000E+00 0.  1.
         11    1    3    3    0    0 -0.16334148026E+02 -0.53722934352E+01  0.21727739678E+02  0.27708493288E+02  0.51100000000E-03 0. -1.
        -11    1    3    3    0    0 -0.85874780224E+01  0.13406859344E+00  0.15016968414E+02  0.17299482471E+02  0.51100000000E-03 0.  1.
        -12    1    3    3    0    0  0.15252584925E+01  0.39742660713E+01 -0.35155411499E+01  0.55208906755E+01  0.00000000000E+00 0.  1.
</event>
<event>
 7    1  0.2945316E-011  0.5052885E+02  0.7816164E-02  0.1300439E+00
        -11   -1    0    0    0    0  0.00000000000E+00  0.00000000000E+00  0.45593999997E+02  0.45594000000E+02  0.51100000000E-03 0.  1.
         11   -1    0    0    0    0 -0.00000000000E+00 -0.00000000000E+00 -0.45593999997E+02  0.45594000000E+02  0.51100000000E-03 0. -1.
    9900012    2    1    2    0    0 -0.39724096928E+02  0.71271214722E+01  0.49362654901E+01  0.50528850301E+02  0.29999970975E+02 0.  0.
        -12    1    1    2    0    0  0.39724096928E+02 -0.71271214722E+01 -0.49362654901E+01  0.40659149699E+02  0.00000000000E+00 0.  1.
         11    1    3    3    0    0 -0.14639643248E+02  0.61687383537E+01  0.27999365325E+01  0.16131092094E+02  0.51100000000E-03 0. -1.
        -11    1    3    3    0    0 -0.57011476191E+01  0.13505502127E+01  0.11470717559E+02  0.12880389421E+02  0.51100000000E-03 0.  1.
        -12    1    3    3    0    0 -0.19383306062E+02 -0.39216709428E+00 -0.93343886019E+01  0.21517368786E+02  0.00000000000E+00 0.  1.
</event>
<event>
 7    1  0.2945316E-011  0.5052885E+02  0.7816164E-02  0.1300439E+00
        -11   -1    0    0    0    0  0.00000000000E+00  0.00000000000E+00  0.45593999997E+02  0.45594000000E+02  0.51100000000E-03 0.  1.
         11   -1    0    0    0    0 -0.00000000000E+00 -0.00000000000E+00 -0.45593999997E+02  0.45594000000E+02  0.51100000000E-03 0. -1.
    9900012    2    1    2    0    0  0.26542722122E+02  0.86776905425E+01 -0.29552461833E+02  0.50528850830E+02  0.29999972584E+02 0.  0.
        -12    1    1    2    0    0 -0.26542722122E+02 -0.86776905425E+01  0.29552461833E+02  0.40659149170E+02  0.00000000000E+00 0.  1.
         11    1    3    3    0    0  0.96762132222E+01 -0.16322893350E+01 -0.13842245714E+02  0.16967652680E+02  0.51100000000E-03 0. -1.
        -11    1    3    3    0    0  0.63113738938E+01  0.39440414349E+01  0.53452965708E+01  0.91630289183E+01  0.51100000000E-03 0.  1.
         12    1    3    3    0    0  0.10555135006E+02  0.63659384426E+01 -0.21055512690E+02  0.24398169232E+02  0.00000000000E+00 0. -1.
</event>
<event>
 7    1  0.2945316E-011  0.5052883E+02  0.7816164E-02  0.1300439E+00
        -11   -1    0    0    0    0  0.00000000000E+00  0.00000000000E+00  0.45593999997E+02  0.45594000000E+02  0.51100000000E-03 0. -1.
         11   -1    0    0    0    0 -0.00000000000E+00 -0.00000000000E+00 -0.45593999997E+02  0.45594000000E+02  0.51100000000E-03 0.  1.
    9900012    2    1    2    0    0  0.37834543905E+02  0.73500344744E+00 -0.14871946995E+02  0.50528834367E+02  0.29999922543E+02 0.  0.
        -12    1    1    2    0    0 -0.37834543905E+02 -0.73500344744E+00  0.14871946995E+02  0.40659165633E+02  0.00000000000E+00 0.  1.
         11    1    3    3    0    0 -0.33390589575E+00 -0.26404874874E+01  0.51446220286E+01  0.57923055338E+01  0.51100000000E-03 0. -1.
        -11    1    3    3    0    0  0.23088339696E+01 -0.19917786825E+01  0.47761546542E+00  0.30864240495E+01  0.51100000000E-03 0.  1.
         12    1    3    3    0    0  0.35859615831E+02  0.53672696174E+01 -0.20494184489E+02  0.41650104784E+02  0.00000000000E+00 0. -1.
</event>
<event>
 7    1  0.2945316E-011  0.5052886E+02  0.7816164E-02  0.1300439E+00
        -11   -1    0    0    0    0  0.00000000000E+00  0.00000000000E+00  0.45593999997E+02  0.45594000000E+02  0.51100000000E-03 0.  1.
         11   -1    0    0    0    0 -0.00000000000E+00 -0.00000000000E+00 -0.45593999997E+02  0.45594000000E+02  0.51100000000E-03 0. -1.
    9900012    2    1    2    0    0  0.11323470188E+02  0.38761150037E+02  0.47453408137E+01  0.50528856025E+02  0.29999988375E+02 0.  0.
        -12    1    1    2    0    0 -0.11323470188E+02 -0.38761150037E+02 -0.47453408137E+01  0.40659143975E+02  0.00000000000E+00 0.  1.
         11    1    3    3    0    0 -0.26858020874E+01  0.15263033049E+02  0.66939552230E+01  0.16881432033E+02  0.51100000000E-03 0.  1.
        -11    1    3    3    0    0 -0.15662862355E+01  0.14851742621E+02  0.28372277413E+01  0.15201229324E+02  0.51100000000E-03 0. -1.
        -12    1    3    3    0    0  0.15575558511E+02  0.86463743673E+01 -0.47858421505E+01  0.18446194668E+02  0.00000000000E+00 0.  1.
</event>
<event>
 7    1  0.2945316E-011  0.5052886E+02  0.7816164E-02  0.1300439E+00
        -11   -1    0    0    0    0  0.00000000000E+00  0.00000000000E+00  0.45593999997E+02  0.45594000000E+02  0.51100000000E-03 0. -1.
         11   -1    0    0    0    0 -0.00000000000E+00 -0.00000000000E+00 -0.45593999997E+02  0.45594000000E+02  0.51100000000E-03 0.  1.
    9900012    2    1    2    0    0  0.28341543525E+02 -0.22340811252E+02 -0.18729932319E+02  0.50528864477E+02  0.30000014065E+02 0.  0.
        -12    1    1    2    0    0 -0.28341543525E+02  0.22340811252E+02  0.18729932319E+02  0.40659135523E+02  0.00000000000E+00 0.  1.
         11    1    3    3    0    0  0.12320138079E+01 -0.41268772723E+01 -0.18243459554E+01  0.46773082504E+01  0.51100000000E-03 0. -1.
        -11    1    3    3    0    0 -0.16900288379E+01  0.51532816149E+01 -0.32959527322E+01  0.63463228369E+01  0.51100000000E-03 0.  1.
        -12    1    3    3    0    0  0.28799558555E+02 -0.23367215595E+02 -0.13609633631E+02  0.39505233390E+02  0.00000000000E+00 0.  1.
</event>
<event>
 7    1  0.2945316E-011  0.5052888E+02  0.7816164E-02  0.1300439E+00
        -11   -1    0    0    0    0  0.00000000000E+00  0.00000000000E+00  0.45593999997E+02  0.45594000000E+02  0.51100000000E-03 0.  1.
         11   -1    0    0    0    0 -0.00000000000E+00 -0.00000000000E+00 -0.45593999997E+02  0.45594000000E+02  0.51100000000E-03 0. -1.
    9900012    2    1    2    0    0 -0.39251221512E+02 -0.80053427717E+01  0.69584861182E+01  0.50528875168E+02  0.30000046561E+02 0.  0.
        -12    1    1    2    0    0  0.39251221512E+02  0.80053427717E+01 -0.69584861182E+01  0.40659124832E+02  0.00000000000E+00 0.  1.
         11    1    3    3    0    0 -0.10893214198E+01 -0.20267999503E+01 -0.74812814434E+00  0.24195526810E+01  0.51100000000E-03 0. -1.
        -11    1    3    3    0    0 -0.19000693262E+02 -0.39258896348E+01  0.17821929294E+02  0.26345020742E+02  0.51100000000E-03 0.  1.
         12    1    3    3    0    0 -0.19161206830E+02 -0.20526531866E+01 -0.10115315031E+02  0.21764301745E+02  0.00000000000E+00 0. -1.
</event>
<event>
 7    1  0.2945316E-011  0.5052886E+02  0.7816164E-02  0.1300439E+00
        -11   -1    0    0    0    0  0.00000000000E+00  0.00000000000E+00  0.45593999997E+02  0.45594000000E+02  0.51100000000E-03 0. -1.
         11   -1    0    0    0    0 -0.00000000000E+00 -0.00000000000E+00 -0.45593999997E+02  0.45594000000E+02  0.51100000000E-03 0.  1.
    9900012    2    1    2    0    0  0.39132613705E+02  0.31841234630E+01  0.10567187699E+02  0.50528861378E+02  0.30000004646E+02 0.  0.
        -12    1    1    2    0    0 -0.39132613705E+02 -0.31841234630E+01 -0.10567187699E+02  0.40659138622E+02  0.00000000000E+00 0.  1.
         11    1    3    3    0    0  0.34246907225E+02  0.98127071189E+01  0.97227290462E+01  0.36927920817E+02  0.51100000000E-03 0. -1.
        -11    1    3    3    0    0  0.13079419220E+01  0.22517166594E+01  0.28060031062E+01  0.38281318784E+01  0.51100000000E-03 0.  1.
         12    1    3    3    0    0  0.35777645577E+01 -0.88803003153E+01 -0.19615444531E+01  0.97728086833E+01  0.00000000000E+00 0. -1.
</event>
<event>
 7    1  0.2945316E-011  0.5052886E+02  0.7816164E-02  0.1300439E+00
        -11   -1    0    0    0    0  0.00000000000E+00  0.00000000000E+00  0.45593999997E+02  0.45594000000E+02  0.51100000000E-03 0.  1.
         11   -1    0    0    0    0 -0.00000000000E+00 -0.00000000000E+00 -0.45593999997E+02  0.45594000000E+02  0.51100000000E-03 0. -1.
    9900012    2    1    2    0    0  0.19078408649E+02  0.19495182746E+02 -0.30151580913E+02  0.50528860087E+02  0.30000000721E+02 0.  0.
        -12    1    1    2    0    0 -0.19078408649E+02 -0.19495182746E+02  0.30151580913E+02  0.40659139913E+02  0.00000000000E+00 0.  1.
         11    1    3    3    0    0  0.86046954520E+01  0.94402796727E+00 -0.11592868100E+02  0.14468122327E+02  0.51100000000E-03 0. -1.
        -11    1    3    3    0    0  0.10856216303E+02  0.11464720814E+02 -0.22844762849E+02  0.27770135859E+02  0.51100000000E-03 0.  1.
        -12    1    3    3    0    0 -0.38250310605E+00  0.70864339653E+01  0.42860500356E+01  0.82906019008E+01  0.00000000000E+00 0.  1.
</event>
<event>
 7    1  0.2945316E-011  0.5052886E+02  0.7816164E-02  0.1300439E+00
        -11   -1    0    0    0    0  0.00000000000E+00  0.00000000000E+00  0.45593999997E+02  0.45594000000E+02  0.51100000000E-03 0. -1.
         11   -1    0    0    0    0 -0.00000000000E+00 -0.00000000000E+00 -0.45593999997E+02  0.45594000000E+02  0.51100000000E-03 0.  1.
    9900012    2    1    2    0    0 -0.23662738078E+02 -0.30047151101E+02  0.13798891205E+02  0.50528857595E+02  0.29999993145E+02 0.  0.
        -12    1    1    2    0    0  0.23662738078E+02  0.30047151101E+02 -0.13798891205E+02  0.40659142405E+02  0.00000000000E+00 0.  1.
         11    1    3    3    0    0 -0.16324348246E+01 -0.11697835207E+00  0.43628724300E+01  0.46597407109E+01  0.51100000000E-03 0. -1.
        -11    1    3    3    0    0 -0.54018522162E+01  0.32751616137E+01 -0.25997323636E+01  0.68312004498E+01  0.51100000000E-03 0.  1.
         12    1    3    3    0    0 -0.16628451037E+02 -0.33205334363E+02  0.12035751138E+02  0.39037916434E+02  0.00000000000E+00 0. -1.
</event>
<event>
 7    1  0.2945316E-011  0.5052886E+02  0.7816164E-02  0.1300439E+00
        -11   -1    0    0    0    0  0.00000000000E+00  0.00000000000E+00  0.45593999997E+02  0.45594000000E+02  0.51100000000E-03 0. -1.
         11   -1    0    0    0    0 -0.00000000000E+00 -0.00000000000E+00 -0.45593999997E+02  0.45594000000E+02  0.51100000000E-03 0.  1.
    9900012    2    1    2    0    0  0.23518085692E+02  0.21227948467E+02  0.25484099312E+02  0.50528862424E+02  0.30000007823E+02 0.  0.
        -12    1    1    2    0    0 -0.23518085692E+02 -0.21227948467E+02 -0.25484099312E+02  0.40659137576E+02  0.00000000000E+00 0.  1.
         11    1    3    3    0    0  0.19330361721E+02  0.86104990843E+01  0.73041247278E+01  0.22386465041E+02  0.51100000000E-03 0. -1.
        -11    1    3    3    0    0  0.57175414552E+01  0.57638036640E+01 -0.55205886997E+00  0.81373510570E+01  0.51100000000E-03 0.  1.
        -12    1    3    3    0    0 -0.15298174840E+01  0.68536457183E+01  0.18732033454E+02  0.20005046325E+02  0.00000000000E+00 0.  1.
</event>
<event>
 7    1  0.2945316E-011  0.5052891E+02  0.7816164E-02  0.1300439E+00
        -11   -1    0    0    0    0  0.00000000000E+00  0.00000000000E+00  0.45593999997E+02  0.45594000000E+02  0.51100000000E-03 0.  1.
         11   -1    0    0    0    0 -0.00000000000E+00 -0.00000000000E+00 -0.45593999997E+02  0.45594000000E+02  0.51100000000E-03 0. -1.
    9900012    2    1    2    0    0  0.28291243752E+01 -0.11697536865E+02 -0.38837167009E+02  0.50528906863E+02  0.30000142902E+02 0.  0.
        -12    1    1    2    0    0 -0.28291243752E+01  0.11697536865E+02  0.38837167009E+02  0.40659093137E+02  0.00000000000E+00 0.  1.
         11    1    3    3    0    0 -0.96909961878E+00 -0.13122392737E+02 -0.99235595617E+01  0.16480697190E+02  0.51100000000E-03 0. -1.
        -11    1    3    3    0    0 -0.18765169386E+01 -0.60857834301E+01 -0.42689640704E+01  0.76669505199E+01  0.51100000000E-03 0.  1.
        -12    1    3    3    0    0  0.56747409325E+01  0.75106393026E+01 -0.24644643377E+02  0.26381259154E+02  0.00000000000E+00 0.  1.
</event>
<event>
 7    1  0.2945316E-011  0.5052886E+02  0.7816164E-02  0.1300439E+00
        -11   -1    0    0    0    0  0.00000000000E+00  0.00000000000E+00  0.45593999997E+02  0.45594000000E+02  0.51100000000E-03 0.  1.
         11   -1    0    0    0    0 -0.00000000000E+00 -0.00000000000E+00 -0.45593999997E+02  0.45594000000E+02  0.51100000000E-03 0. -1.
    9900012    2    1    2    0    0 -0.91632029095E+01 -0.17315267054E+02 -0.35628399459E+02  0.50528860699E+02  0.30000002581E+02 0.  0.
        -12    1    1    2    0    0  0.91632029095E+01  0.17315267054E+02  0.35628399459E+02  0.40659139301E+02  0.00000000000E+00 0.  1.
         11    1    3    3    0    0 -0.59690868597E+01 -0.11681547125E+02 -0.14168946789E+02  0.19309261885E+02  0.51100000000E-03 0. -1.
        -11    1    3    3    0    0 -0.78142422414E+01  0.48028455526E+01 -0.32541451064E+01  0.97323772966E+01  0.51100000000E-03 0.  1.
         12    1    3    3    0    0  0.46201261916E+01 -0.10436565481E+02 -0.18205307563E+02  0.21487221517E+02  0.00000000000E+00 0. -1.
</event>
<event>
 7    1  0.2945316E-011  0.5052887E+02  0.7816164E-02  0.1300439E+00
        -11   -1    0    0    0    0  0.00000000000E+00  0.00000000000E+00  0.45593999997E+02  0.45594000000E+02  0.51100000000E-03 0.  1.
         11   -1    0    0    0    0 -0.00000000000E+00 -0.00000000000E+00 -0.45593999997E+02  0.45594000000E+02  0.51100000000E-03 0. -1.
    9900012    2    1    2    0    0 -0.25114280686E+02  0.28120413834E+02 -0.15221045907E+02  0.50528868097E+02  0.30000025068E+02 0.  0.
        -12    1    1    2    0    0  0.25114280686E+02 -0.28120413834E+02  0.15221045907E+02  0.40659131903E+02  0.00000000000E+00 0.  1.
         11    1    3    3    0    0  0.56408507312E+01  0.20183588174E+01 -0.59881542493E+00  0.60209259638E+01  0.51100000000E-03 0. -1.
        -11    1    3    3    0    0 -0.21999507564E+01 -0.22387761150E+00  0.12624852696E+01  0.25463255551E+01  0.51100000000E-03 0.  1.
        -12    1    3    3    0    0 -0.28555180661E+02  0.26325932628E+02 -0.15884715752E+02  0.41961616578E+02  0.00000000000E+00 0.  1.
</event>
<event>
 7    1  0.2945316E-011  0.5052886E+02  0.7816164E-02  0.1300439E+00
        -11   -1    0    0    0    0  0.00000000000E+00  0.00000000000E+00  0.45593999997E+02  0.45594000000E+02  0.51100000000E-03 0.  1.
         11   -1    0    0    0    0 -0.00000000000E+00 -0.00000000000E+00 -0.45593999997E+02  0.45594000000E+02  0.51100000000E-03 0. -1.
    9900012    2    1    2    0    0 -0.29120550746E+02 -0.61681984256E+01 -0.27696792570E+02  0.50528862451E+02  0.30000007906E+02 0.  0.
        -12    1    1    2    0    0  0.29120550746E+02  0.61681984256E+01  0.27696792570E+02  0.40659137549E+02  0.00000000000E+00 0.  1.
         11    1    3    3    0    0 -0.12061618630E+02  0.51920455939E+01 -0.10003743360E+02  0.16508024198E+02  0.51100000000E-03 0. -1.
        -11    1    3    3    0    0 -0.19432103677E+02 -0.14810641747E+02 -0.17026809506E+02  0.29780429891E+02  0.51100000000E-03 0.  1.
         12    1    3    3    0    0  0.23731715614E+01  0.34503977276E+01 -0.66623970374E+00  0.42404083625E+01  0.00000000000E+00 0. -1.
</event>
<event>
 7    1  0.2945316E-011  0.5052885E+02  0.7816164E-02  0.1300439E+00
        -11   -1    0    0    0    0  0.00000000000E+00  0.00000000000E+00  0.45593999997E+02  0.45594000000E+02  0.51100000000E-03 0.  1.
         11   -1    0    0    0    0 -0.00000000000E+00 -0.00000000000E+00 -0.45593999997E+02  0.45594000000E+02  0.51100000000E-03 0. -1.
    9900012    2    1    2    0    0  0.75017758940E+01  0.23869186826E+02  0.32049203426E+02  0.50528853900E+02  0.29999981915E+02 0.  0.
        -12    1    1    2    0    0 -0.75017758940E+01 -0.23869186826E+02 -0.32049203426E+02  0.40659146100E+02  0.00000000000E+00 0.  1.
         11    1    3    3    0    0  0.18096600840E+00  0.82906156299E+01  0.18415969224E+02  0.20196905182E+02  0.51100000000E-03 0.  1.
        -11    1    3    3    0    0  0.34822245812E+00 -0.25314413325E+01 -0.35756205396E+01  0.43948283931E+01  0.51100000000E-03 0. -1.
         12    1    3    3    0    0  0.69725874274E+01  0.18110012529E+02  0.17208854742E+02  0.25937120325E+02  0.00000000000E+00 0. -1.
</event>
<event>
 7    1  0.2945316E-011  0.5052882E+02  0.7816164E-02  0.1300439E+00
        -11   -1    0    0    0    0  0.00000000000E+00  0.00000000000E+00  0.45593999997E+02  0.45594000000E+02  0.51100000000E-03 0. -1.
         11   -1    0    0    0    0 -0.00000000000E+00 -0.00000000000E+00 -0.45593999997E+02  0.45594000000E+02  0.51100000000E-03 0.  1.
    9900012    2    1    2    0    0  0.23345438191E+02  0.67930592055E+01  0.32588547734E+02  0.50528824146E+02  0.29999891475E+02 0.  0.
        -12    1    1    2    0    0 -0.23345438191E+02 -0.67930592055E+01 -0.32588547734E+02  0.40659175854E+02  0.00000000000E+00 0.  1.
         11    1    3    3    0    0  0.29457780086E+01 -0.77055549934E+01  0.46340144991E+01  0.94618854607E+01  0.51100000000E-03 0. -1.
        -11    1    3    3    0    0  0.30865656754E+01 -0.36496433019E+01  0.27765063595E+01  0.55277275372E+01  0.51100000000E-03 0.  1.
        -12    1    3    3    0    0  0.17313094507E+02  0.18148257501E+02  0.25178026875E+02  0.35539211148E+02  0.00000000000E+00 0.  1.
</event>
<event>
 7    1  0.2945316E-011  0.5052886E+02  0.7816164E-02  0.1300439E+00
        -11   -1    0    0    0    0  0.00000000000E+00  0.00000000000E+00  0.45593999997E+02  0.45594000000E+02  0.51100000000E-03 0. -1.
         11   -1    0    0    0    0 -0.00000000000E+00 -0.00000000000E+00 -0.45593999997E+02  0.45594000000E+02  0.51100000000E-03 0.  1.
    9900012    2    1    2    0    0  0.14647515669E+02  0.28255434876E+02  0.25303090077E+02  0.50528859788E+02  0.29999999811E+02 0.  0.
        -12    1    1    2    0    0 -0.14647515669E+02 -0.28255434876E+02 -0.25303090077E+02  0.40659140212E+02  0.00000000000E+00 0.  1.
         11    1    3    3    0    0  0.24730073228E+01  0.10078641597E+02 -0.76278201240E+00  0.10405605140E+02  0.51100000000E-03 0. -1.
        -11    1    3    3    0    0  0.21835034018E+01  0.15008431553E+02  0.39853456462E+01  0.15681316430E+02  0.51100000000E-03 0.  1.
         12    1    3    3    0    0  0.99910049446E+01  0.31683617261E+01  0.22080526444E+02  0.24441938218E+02  0.00000000000E+00 0. -1.
</event>
<event>
 7    1  0.2945316E-011  0.5052884E+02  0.7816164E-02  0.1300439E+00
        -11   -1    0    0    0    0  0.00000000000E+00  0.00000000000E+00  0.45593999997E+02  0.45594000000E+02  0.51100000000E-03 0. -1.
         11   -1    0    0    0    0 -0.00000000000E+00 -0.00000000000E+00 -0.45593999997E+02  0.45594000000E+02  0.51100000000E-03 0.  1.
    9900012    2    1    2    0    0  0.22646841139E+02  0.79941626057E+01  0.32808246439E+02  0.50528842560E+02  0.29999947445E+02 0.  0.
        -12    1    1    2    0    0 -0.22646841139E+02 -0.79941626057E+01 -0.32808246439E+02  0.40659157440E+02  0.00000000000E+00 0.  1.
         11    1    3    3    0    0 -0.28058116448E+01 -0.54489719773E+01  0.14268298077E+02  0.15528947320E+02  0.51100000000E-03 0. -1.
        -11    1    3    3    0    0  0.39319640121E+01  0.16946486889E+01  0.62434274085E+01  0.75705060094E+01  0.51100000000E-03 0.  1.
        -12    1    3    3    0    0  0.21520688771E+02  0.11748485894E+02  0.12296520954E+02  0.27429389231E+02  0.00000000000E+00 0.  1.
</event>
<event>
 7    1  0.2945316E-011  0.5052886E+02  0.7816164E-02  0.1300439E+00
        -11   -1    0    0    0    0  0.00000000000E+00  0.00000000000E+00  0.45593999997E+02  0.45594000000E+02  0.51100000000E-03 0. -1.
         11   -1    0    0    0    0 -0.00000000000E+00 -0.00000000000E+00 -0.45593999997E+02  0.45594000000E+02  0.51100000000E-03 0.  1.
    9900012    2    1    2    0    0  0.11096372512E+02 -0.35292645343E+00  0.39114086371E+02  0.50528858437E+02  0.29999995704E+02 0.  0.
        -12    1    1    2    0    0 -0.11096372512E+02  0.35292645343E+00 -0.39114086371E+02  0.40659141563E+02  0.00000000000E+00 0.  1.
         11    1    3    3    0    0 -0.43310316726E+01  0.24927549235E+01 -0.80378559968E+00  0.50613964485E+01  0.51100000000E-03 0. -1.
        -11    1    3    3    0    0  0.35267296729E+01  0.97143926676E+00  0.20207076704E-01  0.36581313566E+01  0.51100000000E-03 0.  1.
         12    1    3    3    0    0  0.11900674512E+02 -0.38171206437E+01  0.39897664894E+02  0.41809330632E+02  0.00000000000E+00 0. -1.
</event>
<event>
 7    1  0.2945316E-011  0.5052886E+02  0.7816164E-02  0.1300439E+00
        -11   -1    0    0    0    0  0.00000000000E+00  0.00000000000E+00  0.45593999997E+02  0.45594000000E+02  0.51100000000E-03 0.  1.
         11   -1    0    0    0    0 -0.00000000000E+00 -0.00000000000E+00 -0.45593999997E+02  0.45594000000E+02  0.51100000000E-03 0. -1.
    9900012    2    1    2    0    0 -0.11733328320E+01  0.25301821922E+02 -0.31805768161E+02  0.50528858459E+02  0.29999995772E+02 0.  0.
        -12    1    1    2    0    0  0.11733328320E+01 -0.25301821922E+02  0.31805768161E+02  0.40659141541E+02  0.00000000000E+00 0.  1.
         11    1    3    3    0    0  0.36260377275E+00  0.19581643849E+02 -0.34643256126E+02  0.39796073331E+02  0.51100000000E-03 0. -1.
        -11    1    3    3    0    0  0.14713129041E+01  0.73678425919E-01 -0.21601965100E+01  0.26146968076E+01  0.51100000000E-03 0.  1.
        -12    1    3    3    0    0 -0.30072495089E+01  0.56464996471E+01  0.49976844742E+01  0.81180883203E+01  0.00000000000E+00 0.  1.
</event>
<event>
 7    1  0.2945316E-011  0.5052885E+02  0.7816164E-02  0.1300439E+00
        -11   -1    0    0    0    0  0.00000000000E+00  0.00000000000E+00  0.45593999997E+02  0.45594000000E+02  0.51100000000E-03 0.  1.
         11   -1    0    0    0    0 -0.00000000000E+00 -0.00000000000E+00 -0.45593999997E+02  0.45594000000E+02  0.51100000000E-03 0. -1.
    9900012    2    1    2    0    0 -0.11280825024E+01  0.36942045687E+02 -0.16946362441E+02  0.50528849620E+02  0.29999968904E+02 0.  0.
        -12    1    1    2    0    0  0.11280825024E+01 -0.36942045687E+02  0.16946362441E+02  0.40659150380E+02  0.00000000000E+00 0.  1.
         11    1    3    3    0    0  0.57312734321E+01  0.31976470200E+01 -0.17736884960E+01  0.67984125177E+01  0.51100000000E-03 0. -1.
        -11    1    3    3    0    0  0.70636878061E+01  0.69289898536E+01  0.56371319621E-01  0.98949362706E+01  0.51100000000E-03 0.  1.
         12    1    3    3    0    0 -0.13923043741E+02  0.26815408814E+02 -0.15229045264E+02  0.33835500831E+02  0.00000000000E+00 0. -1.
</event>
<event>
 7    1  0.2945316E-011  0.5052886E+02  0.7816164E-02  0.1300439E+00
        -11   -1    0    0    0    0  0.00000000000E+00  0.00000000000E+00  0.45593999997E+02  0.45594000000E+02  0.51100000000E-03 0.  1.
         11   -1    0    0    0    0 -0.00000000000E+00 -0.00000000000E+00 -0.45593999997E+02  0.45594000000E+02  0.51100000000E-03 0. -1.
    9900012    2    1    2    0    0 -0.10703358374E+02 -0.14031478814E+02 -0.36629513251E+02  0.50528861799E+02  0.30000005925E+02 0.  0.
        -12    1    1    2    0    0  0.10703358374E+02  0.14031478814E+02  0.36629513251E+02  0.40659138201E+02  0.00000000000E+00 0.  1.
         11    1    3    3    0    0 -0.17923622673E+01 -0.28069331127E+00 -0.12152904670E+02  0.12287572722E+02  0.51100000000E-03 0. -1.
        -11    1    3    3    0    0 -0.16946183243E+02 -0.12664181260E+02 -0.16116981323E+02  0.26595332311E+02  0.51100000000E-03 0.  1.
         12    1    3    3    0    0  0.80351871367E+01 -0.10866042434E+01 -0.83596272585E+01  0.11645956766E+02  0.00000000000E+00 0. -1.
</event>
<event>
 7    1  0.2945316E-011  0.5052887E+02  0.7816164E-02  0.1300439E+00
        -11   -1    0    0    0    0  0.00000000000E+00  0.00000000000E+00  0.45593999997E+02  0.45594000000E+02  0.51100000000E-03 0.  1.
         11   -1    0    0    0    0 -0.00000000000E+00 -0.00000000000E+00 -0.45593999997E+02  0.45594000000E+02  0.51100000000E-03 0. -1.
    9900012    2    1    2    0    0 -0.20096114817E+01  0.34311477323E+02 -0.21722090855E+02  0.50528865165E+02  0.30000016157E+02 0.  0.
        -12    1    1    2    0    0  0.20096114817E+01 -0.34311477323E+02  0.21722090855E+02  0.40659134835E+02  0.00000000000E+00 0.  1.
         11    1    3    3    0    0 -0.56018316748E+01  0.14233089080E+01  0.28785107084E+00  0.57869840902E+01  0.51100000000E-03 0. -1.
        -11    1    3    3    0    0 -0.40232431293E-01 -0.20495386028E+01  0.14421232770E+01  0.25063812440E+01  0.51100000000E-03 0.  1.
         12    1    3    3    0    0  0.36324526244E+01  0.34937707018E+02 -0.23452065203E+02  0.42235499831E+02  0.00000000000E+00 0. -1.
</event>
<event>
 7    1  0.2945316E-011  0.5052886E+02  0.7816164E-02  0.1300439E+00
        -11   -1    0    0    0    0  0.00000000000E+00  0.00000000000E+00  0.45593999997E+02  0.45594000000E+02  0.51100000000E-03 0.  1.
         11   -1    0    0    0    0 -0.00000000000E+00 -0.00000000000E+00 -0.45593999997E+02  0.45594000000E+02  0.51100000000E-03 0. -1.
    9900012    2    1    2    0    0 -0.11750530856E+02 -0.34476993410E+02 -0.18067306303E+02  0.50528860719E+02  0.30000002641E+02 0.  0.
        -12    1    1    2    0    0  0.11750530856E+02  0.34476993410E+02  0.18067306303E+02  0.40659139281E+02  0.00000000000E+00 0.  1.
         11    1    3    3    0    0 -0.17684291269E+01 -0.15530253409E+02 -0.17781266093E+02  0.23674660223E+02  0.51100000000E-03 0. -1.
        -11    1    3    3    0    0 -0.12084898139E+02 -0.16084731399E+02 -0.52106779185E+01  0.20782553064E+02  0.51100000000E-03 0.  1.
        -12    1    3    3    0    0  0.21027964101E+01 -0.28620086022E+01  0.49246377083E+01  0.60716474321E+01  0.00000000000E+00 0.  1.
</event>
<event>
 7    1  0.2945316E-011  0.5052886E+02  0.7816164E-02  0.1300439E+00
        -11   -1    0    0    0    0  0.00000000000E+00  0.00000000000E+00  0.45593999997E+02  0.45594000000E+02  0.51100000000E-03 0. -1.
         11   -1    0    0    0    0 -0.00000000000E+00 -0.00000000000E+00 -0.45593999997E+02  0.45594000000E+02  0.51100000000E-03 0.  1.
    9900012    2    1    2    0    0 -0.14802934339E+02 -0.16422677840E+02  0.34122343358E+02  0.50528861683E+02  0.30000005570E+02 0.  0.
        -12    1    1    2    0    0  0.14802934339E+02  0.16422677840E+02 -0.34122343358E+02  0.40659138317E+02  0.00000000000E+00 0.  1.
         11    1    3    3    0    0  0.18312861415E+01 -0.52368389109E+01  0.35540106837E+01  0.65885569673E+01  0.51100000000E-03 0.  1.
        -11    1    3    3    0    0  0.23342830455E+01 -0.68936566646E+01  0.21080046167E+02  0.22301114910E+02  0.51100000000E-03 0. -1.
         12    1    3    3    0    0 -0.18968503526E+02 -0.42921822641E+01  0.94882865074E+01  0.21639189806E+02  0.00000000000E+00 0. -1.
</event>
<event>
 7    1  0.2945316E-011  0.5052885E+02  0.7816164E-02  0.1300439E+00
        -11   -1    0    0    0    0  0.00000000000E+00  0.00000000000E+00  0.45593999997E+02  0.45594000000E+02  0.51100000000E-03 0.  1.
         11   -1    0    0    0    0 -0.00000000000E+00 -0.00000000000E+00 -0.45593999997E+02  0.45594000000E+02  0.51100000000E-03 0. -1.
    9900012    2    1    2    0    0  0.37715119238E+01  0.18726720940E+02 -0.35892233473E+02  0.50528846012E+02  0.29999957937E+02 0.  0.
        -12    1    1    2    0    0 -0.37715119238E+01 -0.18726720940E+02  0.35892233473E+02  0.40659153988E+02  0.00000000000E+00 0.  1.
         11    1    3    3    0    0  0.41259517123E+01  0.38297648506E+01 -0.18849320834E+02  0.19671997166E+02  0.51100000000E-03 0. -1.
        -11    1    3    3    0    0 -0.46857385902E+01  0.76496014773E+01 -0.19992991035E+02  0.21913289112E+02  0.51100000000E-03 0.  1.
        -12    1    3    3    0    0  0.43312988017E+01  0.72473546119E+01  0.29500783957E+01  0.89435597343E+01  0.00000000000E+00 0.  1.
</event>
<event>
 7    1  0.2945316E-011  0.5052885E+02  0.7816164E-02  0.1300439E+00
        -11   -1    0    0    0    0  0.00000000000E+00  0.00000000000E+00  0.45593999997E+02  0.45594000000E+02  0.51100000000E-03 0.  1.
         11   -1    0    0    0    0 -0.00000000000E+00 -0.00000000000E+00 -0.45593999997E+02  0.45594000000E+02  0.51100000000E-03 0. -1.
    9900012    2    1    2    0    0 -0.27170343674E+02 -0.59460422949E+00 -0.30242113379E+02  0.50528849109E+02  0.29999967352E+02 0.  0.
        -12    1    1    2    0    0  0.27170343674E+02  0.59460422949E+00  0.30242113379E+02  0.40659150891E+02  0.00000000000E+00 0.  1.
         11    1    3    3    0    0 -0.53648134531E+01 -0.32722652523E+01  0.26012787540E+00  0.62894045856E+01  0.51100000000E-03 0. -1.
        -11    1    3    3    0    0  0.23632672827E+01 -0.26443789002E+01  0.14436738154E+01  0.38290947186E+01  0.51100000000E-03 0.  1.
         12    1    3    3    0    0 -0.24168797504E+02  0.53220399230E+01 -0.31945915070E+02  0.40410349805E+02  0.00000000000E+00 0. -1.
</event>
<event>
 7    1  0.2945316E-011  0.5052888E+02  0.7816164E-02  0.1300439E+00
        -11   -1    0    0    0    0  0.00000000000E+00  0.00000000000E+00  0.45593999997E+02  0.45594000000E+02  0.51100000000E-03 0. -1.
         11   -1    0    0    0    0 -0.00000000000E+00 -0.00000000000E+00 -0.45593999997E+02  0.45594000000E+02  0.51100000000E-03 0.  1.
    9900012    2    1    2    0    0  0.82669026965E+01 -0.36012957603E+02  0.16967308669E+02  0.50528876067E+02  0.30000049294E+02 0.  0.
        -12    1    1    2    0    0 -0.82669026965E+01  0.36012957603E+02 -0.16967308669E+02  0.40659123933E+02  0.00000000000E+00 0.  1.
         11    1    3    3    0    0 -0.84137425491E+00 -0.42190996448E+01 -0.65407127052E+00  0.43516114185E+01  0.51100000000E-03 0. -1.
        -11    1    3    3    0    0 -0.69097416752E+01 -0.23094589385E+02  0.12932246683E+02  0.27355942561E+02  0.51100000000E-03 0.  1.
        -12    1    3    3    0    0  0.16018018627E+02 -0.86992685733E+01  0.46891332564E+01  0.18821322088E+02  0.00000000000E+00 0.  1.
</event>
<event>
 7    1  0.2945316E-011  0.5052886E+02  0.7816164E-02  0.1300439E+00
        -11   -1    0    0    0    0  0.00000000000E+00  0.00000000000E+00  0.45593999997E+02  0.45594000000E+02  0.51100000000E-03 0. -1.
         11   -1    0    0    0    0 -0.00000000000E+00 -0.00000000000E+00 -0.45593999997E+02  0.45594000000E+02  0.51100000000E-03 0.  1.
    9900012    2    1    2    0    0  0.14236069071E+02 -0.34389412504E+02  0.16366674696E+02  0.50528863320E+02  0.30000010546E+02 0.  0.
        -12    1    1    2    0    0 -0.14236069071E+02  0.34389412504E+02 -0.16366674696E+02  0.40659136680E+02  0.00000000000E+00 0.  1.
         11    1    3    3    0    0  0.70943734813E+01 -0.57763449087E+01 -0.74112212047E+01  0.11773805485E+02  0.51100000000E-03 0. -1.
        -11    1    3    3    0    0  0.34182827978E+01 -0.26610089896E+01  0.25999754021E+01  0.50522765642E+01  0.51100000000E-03 0.  1.
         12    1    3    3    0    0  0.37234127920E+01 -0.25952058606E+02  0.21177920499E+02  0.33702781270E+02  0.00000000000E+00 0. -1.
</event>
<event>
 7    1  0.2945316E-011  0.5052886E+02  0.7816164E-02  0.1300439E+00
        -11   -1    0    0    0    0  0.00000000000E+00  0.00000000000E+00  0.45593999997E+02  0.45594000000E+02  0.51100000000E-03 0.  1.
         11   -1    0    0    0    0 -0.00000000000E+00 -0.00000000000E+00 -0.45593999997E+02  0.45594000000E+02  0.51100000000E-03 0. -1.
    9900012    2    1    2    0    0  0.24827359056E+02 -0.12616222548E+02 -0.29624288671E+02  0.50528864393E+02  0.30000013809E+02 0.  0.
        -12    1    1    2    0    0 -0.24827359056E+02  0.12616222548E+02  0.29624288671E+02  0.40659135607E+02  0.00000000000E+00 0.  1.
         11    1    3    3    0    0  0.46440594021E+01 -0.28586558555E+01 -0.74050398069E+01  0.91964023310E+01  0.51100000000E-03 0. -1.
        -11    1    3    3    0    0  0.13861578874E+02  0.93820596599E-02 -0.25690333240E+02  0.29191380220E+02  0.51100000000E-03 0.  1.
        -12    1    3    3    0    0  0.63217207799E+01 -0.97669487519E+01  0.34710843766E+01  0.12141081842E+02  0.00000000000E+00 0.  1.
</event>
<event>
 7    1  0.2945316E-011  0.5052886E+02  0.7816164E-02  0.1300439E+00
        -11   -1    0    0    0    0  0.00000000000E+00  0.00000000000E+00  0.45593999997E+02  0.45594000000E+02  0.51100000000E-03 0.  1.
         11   -1    0    0    0    0 -0.00000000000E+00 -0.00000000000E+00 -0.45593999997E+02  0.45594000000E+02  0.51100000000E-03 0. -1.
    9900012    2    1    2    0    0 -0.16618841411E+02  0.36046799893E+02 -0.88095177861E+01  0.50528864790E+02  0.30000015017E+02 0.  0.
        -12    1    1    2    0    0  0.16618841411E+02 -0.36046799893E+02  0.88095177861E+01  0.40659135210E+02  0.00000000000E+00 0.  1.
         11    1    3    3    0    0 -0.19593375417E+02  0.18178120394E+02 -0.40071155741E+01  0.27025939332E+02  0.51100000000E-03 0.  1.
        -11    1    3    3    0    0 -0.49423320805E+01  0.29474196659E+01 -0.30718953833E+01  0.65230721741E+01  0.51100000000E-03 0. -1.
         12    1    3    3    0    0  0.79168660874E+01  0.14921259833E+02 -0.17305068288E+01  0.16979853284E+02  0.00000000000E+00 0. -1.
</event>
<event>
 7    1  0.2945316E-011  0.5052887E+02  0.7816164E-02  0.1300439E+00
        -11   -1    0    0    0    0  0.00000000000E+00  0.00000000000E+00  0.45593999997E+02  0.45594000000E+02  0.51100000000E-03 0.  1.
         11   -1    0    0    0    0 -0.00000000000E+00 -0.00000000000E+00 -0.45593999997E+02  0.45594000000E+02  0.51100000000E-03 0. -1.
    9900012    2    1    2    0    0 -0.89579324684E+01  0.26614010966E+02 -0.29404338086E+02  0.50528865331E+02  0.30000016659E+02 0.  0.
        -12    1    1    2    0    0  0.89579324684E+01 -0.26614010966E+02  0.29404338086E+02  0.40659134669E+02  0.00000000000E+00 0.  1.
         11    1    3    3    0    0  0.24641037579E+01  0.19322185764E+02 -0.69759732579E+01  0.20690163682E+02  0.51100000000E-03 0. -1.
        -11    1    3    3    0    0 -0.74293825344E+00  0.82952476017E+01 -0.13595886043E+02  0.15944002245E+02  0.51100000000E-03 0.  1.
        -12    1    3    3    0    0 -0.10679097973E+02 -0.10034224004E+01 -0.88324787851E+01  0.13894699404E+02  0.00000000000E+00 0.  1.
</event>
<event>
 7    1  0.2945316E-011  0.5052887E+02  0.7816164E-02  0.1300439E+00
        -11   -1    0    0    0    0  0.00000000000E+00  0.00000000000E+00  0.45593999997E+02  0.45594000000E+02  0.51100000000E-03 0. -1.
         11   -1    0    0    0    0 -0.00000000000E+00 -0.00000000000E+00 -0.45593999997E+02  0.45594000000E+02  0.51100000000E-03 0.  1.
    9900012    2    1    2    0    0  0.15490597992E+02  0.26423056346E+02  0.26740019490E+02  0.50528866031E+02  0.30000018788E+02 0.  0.
        -12    1    1    2    0    0 -0.15490597992E+02 -0.26423056346E+02 -0.26740019490E+02  0.40659133969E+02  0.00000000000E+00 0.  1.
         11    1    3    3    0    0  0.23049582880E+01  0.53089391958E+01  0.76084447587E+01  0.95596077327E+01  0.51100000000E-03 0. -1.
        -11    1    3    3    0    0 -0.22703061577E+01  0.98044813462E+01  0.19356106529E+02  0.21816072166E+02  0.51100000000E-03 0.  1.
        -12    1    3    3    0    0  0.15455945862E+02  0.11309635804E+02 -0.22453179821E+00  0.19153186132E+02  0.00000000000E+00 0.  1.
</event>
<event>
 7    1  0.2945316E-011  0.5052885E+02  0.7816164E-02  0.1300439E+00
        -11   -1    0    0    0    0  0.00000000000E+00  0.00000000000E+00  0.45593999997E+02  0.45594000000E+02  0.51100000000E-03 0. -1.
         11   -1    0    0    0    0 -0.00000000000E+00 -0.00000000000E+00 -0.45593999997E+02  0.45594000000E+02  0.51100000000E-03 0.  1.
    9900012    2    1    2    0    0 -0.22432108913E+02 -0.26342495663E+02 -0.21355084930E+02  0.50528852930E+02  0.29999978967E+02 0.  0.
        -12    1    1    2    0    0  0.22432108913E+02  0.26342495663E+02  0.21355084930E+02  0.40659147070E+02  0.00000000000E+00 0.  1.
         11    1    3    3    0    0 -0.78019712946E+01 -0.20896199433E+02 -0.24707218489E+01  0.22441621456E+02  0.51100000000E-03 0. -1.
        -11    1    3    3    0    0 -0.80240673747E+01 -0.68912677155E+01 -0.32693379336E+01  0.11070853569E+02  0.51100000000E-03 0.  1.
        -12    1    3    3    0    0 -0.66060702441E+01  0.14449714859E+01 -0.15615025148E+02  0.17016377906E+02  0.00000000000E+00 0.  1.
</event>
<event>
 7    1  0.2945316E-011  0.5052886E+02  0.7816164E-02  0.1300439E+00
        -11   -1    0    0    0    0  0.00000000000E+00  0.00000000000E+00  0.45593999997E+02  0.45594000000E+02  0.51100000000E-03 0. -1.
         11   -1    0    0    0    0 -0.00000000000E+00 -0.00000000000E+00 -0.45593999997E+02  0.45594000000E+02  0.51100000000E-03 0.  1.
    9900012    2    1    2    0    0  0.34878703153E+02 -0.12794000822E+02  0.16521364899E+02  0.50528857255E+02  0.29999992112E+02 0.  0.
        -12    1    1    2    0    0 -0.34878703153E+02  0.12794000822E+02 -0.16521364899E+02  0.40659142745E+02  0.00000000000E+00 0.  1.
         11    1    3    3    0    0 -0.13037808317E+01  0.66966376729E+00 -0.12739012461E+01  0.19419368332E+01  0.51100000000E-03 0. -1.
        -11    1    3    3    0    0  0.47002185097E+01  0.41424224137E+01 -0.30049884326E+01  0.69485015099E+01  0.51100000000E-03 0.  1.
         12    1    3    3    0    0  0.31482265475E+02 -0.17606087003E+02  0.20800254577E+02  0.41638418912E+02  0.00000000000E+00 0. -1.
</event>
<event>
 7    1  0.2956090E-011  0.5052893E+02  0.7816164E-02  0.1300439E+00
        -11   -1    0    0    0    0  0.00000000000E+00  0.00000000000E+00  0.45593999997E+02  0.45594000000E+02  0.51100000000E-03 0. -1.
         11   -1    0    0    0    0 -0.00000000000E+00 -0.00000000000E+00 -0.45593999997E+02  0.45594000000E+02  0.51100000000E-03 0.  1.
    9900012    2    1    2    0    0 -0.32718091355E+02 -0.10618690126E+02  0.21677863801E+02  0.50528931382E+02  0.30000217427E+02 0.  0.
        -12    1    1    2    0    0  0.32718091355E+02  0.10618690126E+02 -0.21677863801E+02  0.40659068618E+02  0.00000000000E+00 0.  1.
         11    1    3    3    0    0 -0.76948829635E+01  0.41167316710E+01 -0.33773829123E+01  0.93576396100E+01  0.51100000000E-03 0. -1.
        -11    1    3    3    0    0  0.64280494709E+00 -0.35995536028E+01  0.63929191315E-01  0.36570577712E+01  0.51100000000E-03 0.  1.
         12    1    3    3    0    0 -0.25666013339E+02 -0.11135868194E+02  0.24991317522E+02  0.37514234000E+02  0.00000000000E+00 0. -1.
</event>
<event>
 7    1  0.2945316E-011  0.5052886E+02  0.7816164E-02  0.1300439E+00
        -11   -1    0    0    0    0  0.00000000000E+00  0.00000000000E+00  0.45593999997E+02  0.45594000000E+02  0.51100000000E-03 0.  1.
         11   -1    0    0    0    0 -0.00000000000E+00 -0.00000000000E+00 -0.45593999997E+02  0.45594000000E+02  0.51100000000E-03 0. -1.
    9900012    2    1    2    0    0  0.13851777657E+02 -0.11125306896E+02 -0.36572141087E+02  0.50528859558E+02  0.29999999113E+02 0.  0.
        -12    1    1    2    0    0 -0.13851777657E+02  0.11125306896E+02  0.36572141087E+02  0.40659140442E+02  0.00000000000E+00 0.  1.
         11    1    3    3    0    0  0.33782336717E+01 -0.11332820083E+00 -0.16172411282E+02  0.16521870141E+02  0.51100000000E-03 0. -1.
        -11    1    3    3    0    0  0.42280236407E+01 -0.72697181192E+00 -0.21500156873E+02  0.21923991830E+02  0.51100000000E-03 0.  1.
        -12    1    3    3    0    0  0.62455203447E+01 -0.10285006883E+02  0.11004270683E+01  0.12082997587E+02  0.00000000000E+00 0.  1.
</event>
<event>
 7    1  0.2945316E-011  0.5052886E+02  0.7816164E-02  0.1300439E+00
        -11   -1    0    0    0    0  0.00000000000E+00  0.00000000000E+00  0.45593999997E+02  0.45594000000E+02  0.51100000000E-03 0. -1.
         11   -1    0    0    0    0 -0.00000000000E+00 -0.00000000000E+00 -0.45593999997E+02  0.45594000000E+02  0.51100000000E-03 0.  1.
    9900012    2    1    2    0    0 -0.35720959431E+02  0.19404580700E+02 -0.80052381598E+00  0.50528861628E+02  0.30000005403E+02 0.  0.
        -12    1    1    2    0    0  0.35720959431E+02 -0.19404580700E+02  0.80052381598E+00  0.40659138372E+02  0.00000000000E+00 0.  1.
         11    1    3    3    0    0 -0.12615230384E+02  0.26231242059E+01  0.49637851210E+01  0.13808112877E+02  0.51100000000E-03 0. -1.
        -11    1    3    3    0    0 -0.13252591610E+02 -0.33021094188E+01 -0.15861127556E+00  0.13658706703E+02  0.51100000000E-03 0.  1.
        -12    1    3    3    0    0 -0.98531374368E+01  0.20083565913E+02 -0.56056976614E+01  0.23062042047E+02  0.00000000000E+00 0.  1.
</event>
<event>
 7    1  0.2945316E-011  0.5052886E+02  0.7816164E-02  0.1300439E+00
        -11   -1    0    0    0    0  0.00000000000E+00  0.00000000000E+00  0.45593999997E+02  0.45594000000E+02  0.51100000000E-03 0.  1.
         11   -1    0    0    0    0 -0.00000000000E+00 -0.00000000000E+00 -0.45593999997E+02  0.45594000000E+02  0.51100000000E-03 0. -1.
    9900012    2    1    2    0    0 -0.13324649517E+02  0.26926075246E+02 -0.27397187068E+02  0.50528859919E+02  0.30000000209E+02 0.  0.
        -12    1    1    2    0    0  0.13324649517E+02 -0.26926075246E+02  0.27397187068E+02  0.40659140081E+02  0.00000000000E+00 0.  1.
         11    1    3    3    0    0 -0.78706512468E+00  0.94537625220E+00 -0.62692287675E+01  0.63887743245E+01  0.51100000000E-03 0. -1.
        -11    1    3    3    0    0 -0.13319469700E+02  0.21311829082E+01 -0.13510363399E+02  0.19091362788E+02  0.51100000000E-03 0.  1.
         12    1    3    3    0    0  0.78188530685E+00  0.23849516086E+02 -0.76175949015E+01  0.25048722807E+02  0.00000000000E+00 0. -1.
</event>
<event>
 7    1  0.2945316E-011  0.5052886E+02  0.7816164E-02  0.1300439E+00
        -11   -1    0    0    0    0  0.00000000000E+00  0.00000000000E+00  0.45593999997E+02  0.45594000000E+02  0.51100000000E-03 0.  1.
         11   -1    0    0    0    0 -0.00000000000E+00 -0.00000000000E+00 -0.45593999997E+02  0.45594000000E+02  0.51100000000E-03 0. -1.
    9900012    2    1    2    0    0 -0.25389149584E+02  0.31280226964E+02 -0.54867436122E+01  0.50528857473E+02  0.29999992776E+02 0.  0.
        -12    1    1    2    0    0  0.25389149584E+02 -0.31280226964E+02  0.54867436122E+01  0.40659142527E+02  0.00000000000E+00 0.  1.
         11    1    3    3    0    0 -0.14043415189E+02  0.78382123855E+01 -0.51090096339E+01  0.16874746317E+02  0.51100000000E-03 0. -1.
        -11    1    3    3    0    0 -0.17671252254E+02  0.17963970499E+02  0.75415983093E+00  0.25210040651E+02  0.51100000000E-03 0.  1.
        -12    1    3    3    0    0  0.63255178581E+01  0.54780440792E+01 -0.11318938092E+01  0.84440705055E+01  0.00000000000E+00 0.  1.
</event>
<event>
 7    1  0.2945316E-011  0.5052888E+02  0.7816164E-02  0.1300439E+00
        -11   -1    0    0    0    0  0.00000000000E+00  0.00000000000E+00  0.45593999997E+02  0.45594000000E+02  0.51100000000E-03 0. -1.
         11   -1    0    0    0    0 -0.00000000000E+00 -0.00000000000E+00 -0.45593999997E+02  0.45594000000E+02  0.51100000000E-03 0.  1.
    9900012    2    1    2    0    0 -0.29845415142E+02 -0.25965734452E+02  0.93912574990E+01  0.50528881859E+02  0.30000066897E+02 0.  0.
        -12    1    1    2    0    0  0.29845415142E+02  0.25965734452E+02 -0.93912574990E+01  0.40659118141E+02  0.00000000000E+00 0.  1.
         11    1    3    3    0    0 -0.12322252486E+02 -0.12683107326E+02  0.14801536787E+02  0.23060455531E+02  0.51100000000E-03 0. -1.
        -11    1    3    3    0    0 -0.69503298309E+01  0.29553687688E+01 -0.16265733541E+01  0.77257381819E+01  0.51100000000E-03 0.  1.
         12    1    3    3    0    0 -0.10572832824E+02 -0.16237995895E+02 -0.37837059341E+01  0.19742688146E+02  0.00000000000E+00 0. -1.
</event>
<event>
 7    1  0.2945316E-011  0.5052889E+02  0.7816164E-02  0.1300439E+00
        -11   -1    0    0    0    0  0.00000000000E+00  0.00000000000E+00  0.45593999997E+02  0.45594000000E+02  0.51100000000E-03 0.  1.
         11   -1    0    0    0    0 -0.00000000000E+00 -0.00000000000E+00 -0.45593999997E+02  0.45594000000E+02  0.51100000000E-03 0. -1.
    9900012    2    1    2    0    0 -0.22386539459E+02 -0.18711784438E+02 -0.28317396219E+02  0.50528893339E+02  0.30000101793E+02 0.  0.
        -12    1    1    2    0    0  0.22386539459E+02  0.18711784438E+02  0.28317396219E+02  0.40659106661E+02  0.00000000000E+00 0.  1.
         11    1    3    3    0    0 -0.14527209071E+02 -0.19653267878E+02 -0.86361989628E+01  0.25920545412E+02  0.51100000000E-03 0. -1.
        -11    1    3    3    0    0  0.76882273066E+00 -0.41357819884E+01 -0.30481502266E+01  0.51949014536E+01  0.51100000000E-03 0.  1.
        -12    1    3    3    0    0 -0.86281531193E+01  0.50772654280E+01 -0.16633047030E+02  0.19413446473E+02  0.00000000000E+00 0.  1.
</event>
<event>
 7    1  0.2945316E-011  0.5052886E+02  0.7816164E-02  0.1300439E+00
        -11   -1    0    0    0    0  0.00000000000E+00  0.00000000000E+00  0.45593999997E+02  0.45594000000E+02  0.51100000000E-03 0.  1.
         11   -1    0    0    0    0 -0.00000000000E+00 -0.00000000000E+00 -0.45593999997E+02  0.45594000000E+02  0.51100000000E-03 0. -1.
    9900012    2    1    2    0    0  0.36459609536E+02  0.10246284932E+02 -0.14794463674E+02  0.50528860341E+02  0.30000001491E+02 0.  0.
        -12    1    1    2    0    0 -0.36459609536E+02 -0.10246284932E+02  0.14794463674E+02  0.40659139659E+02  0.00000000000E+00 0.  1.
         11    1    3    3    0    0  0.94863339473E+01  0.95564633196E+00 -0.12171177372E+02  0.15460962149E+02  0.51100000000E-03 0. -1.
        -11    1    3    3    0    0 -0.96559568219E+00 -0.39396378397E+01 -0.34932615103E+00  0.40712590620E+01  0.51100000000E-03 0.  1.
        -12    1    3    3    0    0  0.27938871271E+02  0.13230276439E+02 -0.22739601502E+01  0.30996639130E+02  0.00000000000E+00 0.  1.
</event>
<event>
 7    1  0.2945316E-011  0.5052886E+02  0.7816164E-02  0.1300439E+00
        -11   -1    0    0    0    0  0.00000000000E+00  0.00000000000E+00  0.45593999997E+02  0.45594000000E+02  0.51100000000E-03 0.  1.
         11   -1    0    0    0    0 -0.00000000000E+00 -0.00000000000E+00 -0.45593999997E+02  0.45594000000E+02  0.51100000000E-03 0. -1.
    9900012    2    1    2    0    0 -0.33894062597E+01  0.28433566833E+02 -0.28865373618E+02  0.50528860908E+02  0.30000003215E+02 0.  0.
        -12    1    1    2    0    0  0.33894062597E+01 -0.28433566833E+02  0.28865373618E+02  0.40659139092E+02  0.00000000000E+00 0.  1.
         11    1    3    3    0    0  0.30531211021E+01  0.87930406720E+01 -0.21729512234E+02  0.23639179659E+02  0.51100000000E-03 0. -1.
        -11    1    3    3    0    0 -0.39007506309E+01 -0.18252374234E+01 -0.10296871416E+01  0.44280473131E+01  0.51100000000E-03 0.  1.
        -12    1    3    3    0    0 -0.25417767309E+01  0.21465763584E+02 -0.61061742422E+01  0.22461633936E+02  0.00000000000E+00 0.  1.
</event>
<event>
 7    1  0.2945316E-011  0.5052886E+02  0.7816164E-02  0.1300439E+00
        -11   -1    0    0    0    0  0.00000000000E+00  0.00000000000E+00  0.45593999997E+02  0.45594000000E+02  0.51100000000E-03 0. -1.
         11   -1    0    0    0    0 -0.00000000000E+00 -0.00000000000E+00 -0.45593999997E+02  0.45594000000E+02  0.51100000000E-03 0.  1.
    9900012    2    1    2    0    0  0.27218051234E+02  0.21372671987E+02  0.21343673376E+02  0.50528858174E+02  0.29999994907E+02 0.  0.
        -12    1    1    2    0    0 -0.27218051234E+02 -0.21372671987E+02 -0.21343673376E+02  0.40659141826E+02  0.00000000000E+00 0.  1.
         11    1    3    3    0    0 -0.38998490659E+00 -0.10619481654E+01  0.64107747630E+01  0.65098276057E+01  0.51100000000E-03 0. -1.
        -11    1    3    3    0    0  0.94071357459E+01 -0.30174311426E+01  0.16058594341E+01  0.10008889970E+02  0.51100000000E-03 0.  1.
         12    1    3    3    0    0  0.18200900395E+02  0.25452051295E+02  0.13327039178E+02  0.34010140599E+02  0.00000000000E+00 0. -1.
</event>
<event>
 7    1  0.2945316E-011  0.5052886E+02  0.7816164E-02  0.1300439E+00
        -11   -1    0    0    0    0  0.00000000000E+00  0.00000000000E+00  0.45593999997E+02  0.45594000000E+02  0.51100000000E-03 0. -1.
         11   -1    0    0    0    0 -0.00000000000E+00 -0.00000000000E+00 -0.45593999997E+02  0.45594000000E+02  0.51100000000E-03 0.  1.
    9900012    2    1    2    0    0 -0.33834753275E+02 -0.45001319689E+01  0.22093534703E+02  0.50528855979E+02  0.29999988233E+02 0.  0.
        -12    1    1    2    0    0  0.33834753275E+02  0.45001319689E+01 -0.22093534703E+02  0.40659144021E+02  0.00000000000E+00 0.  1.
         11    1    3    3    0    0 -0.61530389218E+01 -0.63559089381E+01 -0.16872755261E+01  0.90057962093E+01  0.51100000000E-03 0. -1.
        -11    1    3    3    0    0 -0.13878614222E+02 -0.78420358022E+01  0.60524014431E+01  0.17051246926E+02  0.51100000000E-03 0.  1.
         12    1    3    3    0    0 -0.13803100131E+02  0.96978127714E+01  0.17728408786E+02  0.24471812843E+02  0.00000000000E+00 0. -1.
</event>
<event>
 7    1  0.2945316E-011  0.5052886E+02  0.7816164E-02  0.1300439E+00
        -11   -1    0    0    0    0  0.00000000000E+00  0.00000000000E+00  0.45593999997E+02  0.45594000000E+02  0.51100000000E-03 0.  1.
         11   -1    0    0    0    0 -0.00000000000E+00 -0.00000000000E+00 -0.45593999997E+02  0.45594000000E+02  0.51100000000E-03 0. -1.
    9900012    2    1    2    0    0 -0.21055322172E+02  0.33903881780E+01 -0.34617105547E+02  0.50528864246E+02  0.30000013363E+02 0.  0.
        -12    1    1    2    0    0  0.21055322172E+02 -0.33903881780E+01  0.34617105547E+02  0.40659135754E+02  0.00000000000E+00 0.  1.
         11    1    3    3    0    0 -0.11198773416E+02  0.43380589292E+00 -0.18153767609E+02  0.21334478954E+02  0.51100000000E-03 0. -1.
        -11    1    3    3    0    0 -0.33742233354E+01 -0.47658076421E+01 -0.18065166147E+02  0.18985482185E+02  0.51100000000E-03 0.  1.
        -12    1    3    3    0    0 -0.64823254209E+01  0.77223899272E+01  0.16018282091E+01  0.10208903108E+02  0.00000000000E+00 0.  1.
</event>
<event>
 7    1  0.2945316E-011  0.5052885E+02  0.7816164E-02  0.1300439E+00
        -11   -1    0    0    0    0  0.00000000000E+00  0.00000000000E+00  0.45593999997E+02  0.45594000000E+02  0.51100000000E-03 0.  1.
         11   -1    0    0    0    0 -0.00000000000E+00 -0.00000000000E+00 -0.45593999997E+02  0.45594000000E+02  0.51100000000E-03 0. -1.
    9900012    2    1    2    0    0  0.14767937487E+02 -0.27331661877E+02 -0.26230797654E+02  0.50528850179E+02  0.29999970605E+02 0.  0.
        -12    1    1    2    0    0 -0.14767937487E+02  0.27331661877E+02  0.26230797654E+02  0.40659149821E+02  0.00000000000E+00 0.  1.
         11    1    3    3    0    0  0.13925102415E+02 -0.55126983822E+01 -0.43047930610E+01  0.15582989581E+02  0.51100000000E-03 0. -1.
        -11    1    3    3    0    0 -0.39552404431E+01 -0.30981044839E+01 -0.12442278012E+02  0.13418362819E+02  0.51100000000E-03 0.  1.
        -12    1    3    3    0    0  0.47980755147E+01 -0.18720859011E+02 -0.94837265810E+01  0.21527497779E+02  0.00000000000E+00 0.  1.
</event>
<event>
 7    1  0.2945316E-011  0.5052886E+02  0.7816164E-02  0.1300439E+00
        -11   -1    0    0    0    0  0.00000000000E+00  0.00000000000E+00  0.45593999997E+02  0.45594000000E+02  0.51100000000E-03 0.  1.
         11   -1    0    0    0    0 -0.00000000000E+00 -0.00000000000E+00 -0.45593999997E+02  0.45594000000E+02  0.51100000000E-03 0. -1.
    9900012    2    1    2    0    0 -0.37285740735E+02  0.15165209121E+02 -0.57406997865E+01  0.50528860021E+02  0.30000000518E+02 0.  0.
        -12    1    1    2    0    0  0.37285740735E+02 -0.15165209121E+02  0.57406997865E+01  0.40659139979E+02  0.00000000000E+00 0.  1.
         11    1    3    3    0    0 -0.11238735357E+02  0.76604551335E+01 -0.95394732230E+01  0.16613045925E+02  0.51100000000E-03 0. -1.
        -11    1    3    3    0    0 -0.16333103624E+02 -0.10895737560E+01 -0.62360695376E+01  0.17517020537E+02  0.51100000000E-03 0.  1.
        -12    1    3    3    0    0 -0.97139017537E+01  0.85943277438E+01  0.10034842974E+02  0.16398793558E+02  0.00000000000E+00 0.  1.
</event>
<event>
 7    1  0.2945316E-011  0.5052886E+02  0.7816164E-02  0.1300439E+00
        -11   -1    0    0    0    0  0.00000000000E+00  0.00000000000E+00  0.45593999997E+02  0.45594000000E+02  0.51100000000E-03 0. -1.
         11   -1    0    0    0    0 -0.00000000000E+00 -0.00000000000E+00 -0.45593999997E+02  0.45594000000E+02  0.51100000000E-03 0.  1.
    9900012    2    1    2    0    0  0.33140702491E+02  0.22486817276E+02 -0.70144636333E+01  0.50528858188E+02  0.29999994949E+02 0.  0.
        -12    1    1    2    0    0 -0.33140702491E+02 -0.22486817276E+02  0.70144636333E+01  0.40659141812E+02  0.00000000000E+00 0.  1.
         11    1    3    3    0    0 -0.12888685084E+01  0.13408781703E+01 -0.62311334505E+01  0.65027809927E+01  0.51100000000E-03 0.  1.
        -11    1    3    3    0    0  0.20463651047E+02  0.33843877843E+01 -0.42341695987E+01  0.21169395062E+02  0.51100000000E-03 0. -1.
        -12    1    3    3    0    0  0.13965919953E+02  0.17761551321E+02  0.34508394160E+01  0.22856682133E+02  0.00000000000E+00 0.  1.
</event>
<event>
 7    1  0.2945316E-011  0.5052886E+02  0.7816164E-02  0.1300439E+00
        -11   -1    0    0    0    0  0.00000000000E+00  0.00000000000E+00  0.45593999997E+02  0.45594000000E+02  0.51100000000E-03 0.  1.
         11   -1    0    0    0    0 -0.00000000000E+00 -0.00000000000E+00 -0.45593999997E+02  0.45594000000E+02  0.51100000000E-03 0. -1.
    9900012    2    1    2    0    0  0.25845455882E+02  0.77253377817E+01 -0.30421984971E+02  0.50528860767E+02  0.30000002787E+02 0.  0.
        -12    1    1    2    0    0 -0.25845455882E+02 -0.77253377817E+01  0.30421984971E+02  0.40659139233E+02  0.00000000000E+00 0.  1.
         11    1    3    3    0    0  0.15795668141E+00 -0.34873334627E+01  0.14753692253E+01  0.37898759354E+01  0.51100000000E-03 0. -1.
        -11    1    3    3    0    0  0.81685731488E+01  0.13114540059E+02 -0.91219993288E+01  0.17942341549E+02  0.51100000000E-03 0.  1.
         12    1    3    3    0    0  0.17518926052E+02 -0.19018688143E+01 -0.22775354868E+02  0.28796643283E+02  0.00000000000E+00 0. -1.
</event>
<event>
 7    1  0.2945316E-011  0.5052886E+02  0.7816164E-02  0.1300439E+00
        -11   -1    0    0    0    0  0.00000000000E+00  0.00000000000E+00  0.45593999997E+02  0.45594000000E+02  0.51100000000E-03 0.  1.
         11   -1    0    0    0    0 -0.00000000000E+00 -0.00000000000E+00 -0.45593999997E+02  0.45594000000E+02  0.51100000000E-03 0. -1.
    9900012    2    1    2    0    0 -0.28269208190E+02  0.25621829881E+02 -0.14054857955E+02  0.50528864123E+02  0.30000012987E+02 0.  0.
        -12    1    1    2    0    0  0.28269208190E+02 -0.25621829881E+02  0.14054857955E+02  0.40659135877E+02  0.00000000000E+00 0.  1.
         11    1    3    3    0    0 -0.15188695142E+02  0.42699779502E+01 -0.69806684297E+01  0.17252794087E+02  0.51100000000E-03 0. -1.
        -11    1    3    3    0    0 -0.13188833692E+02  0.11258955941E+02 -0.12908213389E+02  0.21617849019E+02  0.51100000000E-03 0.  1.
        -12    1    3    3    0    0  0.10832064393E+00  0.10092895990E+02  0.58340238644E+01  0.11658221017E+02  0.00000000000E+00 0.  1.
</event>
<event>
 7    1  0.2945316E-011  0.5052886E+02  0.7816164E-02  0.1300439E+00
        -11   -1    0    0    0    0  0.00000000000E+00  0.00000000000E+00  0.45593999997E+02  0.45594000000E+02  0.51100000000E-03 0.  1.
         11   -1    0    0    0    0 -0.00000000000E+00 -0.00000000000E+00 -0.45593999997E+02  0.45594000000E+02  0.51100000000E-03 0. -1.
    9900012    2    1    2    0    0 -0.31187537172E+02  0.28172053657E+01 -0.25933883661E+02  0.50528862740E+02  0.30000008786E+02 0.  0.
        -12    1    1    2    0    0  0.31187537172E+02 -0.28172053657E+01  0.25933883661E+02  0.40659137260E+02  0.00000000000E+00 0.  1.
         11    1    3    3    0    0  0.22228962648E+01  0.40533609932E+01 -0.19298234977E+01  0.50095131639E+01  0.51100000000E-03 0. -1.
        -11    1    3    3    0    0  0.37954915963E+00  0.31381735989E-01 -0.81752233974E+01  0.81840894568E+01  0.51100000000E-03 0.  1.
         12    1    3    3    0    0 -0.33789982597E+02 -0.12675373635E+01 -0.15828836766E+02  0.37335260120E+02  0.00000000000E+00 0. -1.
</event>
<event>
 7    1  0.2945316E-011  0.5052886E+02  0.7816164E-02  0.1300439E+00
        -11   -1    0    0    0    0  0.00000000000E+00  0.00000000000E+00  0.45593999997E+02  0.45594000000E+02  0.51100000000E-03 0. -1.
         11   -1    0    0    0    0 -0.00000000000E+00 -0.00000000000E+00 -0.45593999997E+02  0.45594000000E+02  0.51100000000E-03 0.  1.
    9900012    2    1    2    0    0 -0.25149834775E+02  0.19103829025E+02  0.25606547039E+02  0.50528859282E+02  0.29999998274E+02 0.  0.
        -12    1    1    2    0    0  0.25149834775E+02 -0.19103829025E+02 -0.25606547039E+02  0.40659140718E+02  0.00000000000E+00 0.  1.
         11    1    3    3    0    0 -0.10380451856E+02  0.10064844272E+02  0.18730159364E+02  0.23661651275E+02  0.51100000000E-03 0. -1.
        -11    1    3    3    0    0 -0.72215631261E+01  0.15426920993E+00  0.12100363727E+02  0.14092323284E+02  0.51100000000E-03 0.  1.
         12    1    3    3    0    0 -0.75478197927E+01  0.88847155430E+01 -0.52239760516E+01  0.12774884723E+02  0.00000000000E+00 0. -1.
</event>
<event>
 7    1  0.2945316E-011  0.5052886E+02  0.7816164E-02  0.1300439E+00
        -11   -1    0    0    0    0  0.00000000000E+00  0.00000000000E+00  0.45593999997E+02  0.45594000000E+02  0.51100000000E-03 0.  1.
         11   -1    0    0    0    0 -0.00000000000E+00 -0.00000000000E+00 -0.45593999997E+02  0.45594000000E+02  0.51100000000E-03 0. -1.
    9900012    2    1    2    0    0  0.13265249876E+02  0.26456933594E+02 -0.27878833212E+02  0.50528861658E+02  0.30000005496E+02 0.  0.
        -12    1    1    2    0    0 -0.13265249876E+02 -0.26456933594E+02  0.27878833212E+02  0.40659138342E+02  0.00000000000E+00 0.  1.
         11    1    3    3    0    0  0.50177389503E+01  0.39016940060E+01  0.34523481149E+01  0.72332308174E+01  0.51100000000E-03 0. -1.
        -11    1    3    3    0    0 -0.32270673742E+01  0.64201251859E+01 -0.12652637510E+01  0.72960855163E+01  0.51100000000E-03 0.  1.
         12    1    3    3    0    0  0.11474578300E+02  0.16135114402E+02 -0.30065917575E+02  0.35999545325E+02  0.00000000000E+00 0. -1.
</event>
<event>
 7    1  0.2945316E-011  0.5052888E+02  0.7816164E-02  0.1300439E+00
        -11   -1    0    0    0    0  0.00000000000E+00  0.00000000000E+00  0.45593999997E+02  0.45594000000E+02  0.51100000000E-03 0.  1.
         11   -1    0    0    0    0 -0.00000000000E+00 -0.00000000000E+00 -0.45593999997E+02  0.45594000000E+02  0.51100000000E-03 0. -1.
    9900012    2    1    2    0    0 -0.58364727652E+00  0.37310029418E+02  0.16148854360E+02  0.50528875114E+02  0.30000046397E+02 0.  0.
        -12    1    1    2    0    0  0.58364727652E+00 -0.37310029418E+02 -0.16148854360E+02  0.40659124886E+02  0.00000000000E+00 0.  1.
         11    1    3    3    0    0 -0.11419276314E+02  0.29433207866E+02  0.10554547188E+02  0.33288317221E+02  0.51100000000E-03 0. -1.
        -11    1    3    3    0    0  0.20752560447E+01  0.13488056269E+01 -0.25955758593E+01  0.35864994873E+01  0.51100000000E-03 0.  1.
        -12    1    3    3    0    0  0.87603729925E+01  0.65280159259E+01  0.81898830310E+01  0.13654058406E+02  0.00000000000E+00 0.  1.
</event>
<event>
 7    1  0.2945316E-011  0.5052887E+02  0.7816164E-02  0.1300439E+00
        -11   -1    0    0    0    0  0.00000000000E+00  0.00000000000E+00  0.45593999997E+02  0.45594000000E+02  0.51100000000E-03 0. -1.
         11   -1    0    0    0    0 -0.00000000000E+00 -0.00000000000E+00 -0.45593999997E+02  0.45594000000E+02  0.51100000000E-03 0.  1.
    9900012    2    1    2    0    0 -0.26352720638E+02  0.30918905783E+02  0.16494096418E+01  0.50528866069E+02  0.30000018903E+02 0.  0.
        -12    1    1    2    0    0  0.26352720638E+02 -0.30918905783E+02 -0.16494096418E+01  0.40659133931E+02  0.00000000000E+00 0.  1.
         11    1    3    3    0    0 -0.70445824989E+00  0.37567065427E+01 -0.77913786778E+01  0.86784035073E+01  0.51100000000E-03 0. -1.
        -11    1    3    3    0    0 -0.73898132394E+01  0.10132344900E+02 -0.44155449794E+01  0.13295517689E+02  0.51100000000E-03 0.  1.
         12    1    3    3    0    0 -0.18258449149E+02  0.17029854340E+02  0.13856333299E+02  0.28554944873E+02  0.00000000000E+00 0. -1.
</event>
<event>
 7    1  0.2945316E-011  0.5052886E+02  0.7816164E-02  0.1300439E+00
        -11   -1    0    0    0    0  0.00000000000E+00  0.00000000000E+00  0.45593999997E+02  0.45594000000E+02  0.51100000000E-03 0.  1.
         11   -1    0    0    0    0 -0.00000000000E+00 -0.00000000000E+00 -0.45593999997E+02  0.45594000000E+02  0.51100000000E-03 0. -1.
    9900012    2    1    2    0    0 -0.19686179983E+02  0.19228148353E+02 -0.29931566046E+02  0.50528855673E+02  0.29999987305E+02 0.  0.
        -12    1    1    2    0    0  0.19686179983E+02 -0.19228148353E+02  0.29931566046E+02  0.40659144327E+02  0.00000000000E+00 0.  1.
         11    1    3    3    0    0 -0.14250284718E+02  0.11992870662E+02 -0.21230879575E+02  0.28242694791E+02  0.51100000000E-03 0. -1.
        -11    1    3    3    0    0 -0.40161453360E+01  0.77462635939E+01 -0.14154310853E+02  0.16627643820E+02  0.51100000000E-03 0.  1.
        -12    1    3    3    0    0 -0.14197499288E+01 -0.51098590218E+00  0.54536243817E+01  0.56585170627E+01  0.00000000000E+00 0.  1.
</event>
<event>
 7    1  0.2945316E-011  0.5052885E+02  0.7816164E-02  0.1300439E+00
        -11   -1    0    0    0    0  0.00000000000E+00  0.00000000000E+00  0.45593999997E+02  0.45594000000E+02  0.51100000000E-03 0.  1.
         11   -1    0    0    0    0 -0.00000000000E+00 -0.00000000000E+00 -0.45593999997E+02  0.45594000000E+02  0.51100000000E-03 0. -1.
    9900012    2    1    2    0    0 -0.11792463739E+01 -0.22226952175E+02 -0.34025550965E+02  0.50528854122E+02  0.29999982591E+02 0.  0.
        -12    1    1    2    0    0  0.11792463739E+01  0.22226952175E+02  0.34025550965E+02  0.40659145878E+02  0.00000000000E+00 0.  1.
         11    1    3    3    0    0  0.50463310510E+01 -0.31008180988E+01 -0.80709853309E+01  0.10011060605E+02  0.51100000000E-03 0. -1.
        -11    1    3    3    0    0 -0.14362864696E+02 -0.17578882990E+02 -0.17325909695E+02  0.28556893326E+02  0.51100000000E-03 0.  1.
        -12    1    3    3    0    0  0.81372872712E+01 -0.15472510860E+01 -0.86286559399E+01  0.11960900191E+02  0.00000000000E+00 0.  1.
</event>
<event>
 7    1  0.2945316E-011  0.5052886E+02  0.7816164E-02  0.1300439E+00
        -11   -1    0    0    0    0  0.00000000000E+00  0.00000000000E+00  0.45593999997E+02  0.45594000000E+02  0.51100000000E-03 0.  1.
         11   -1    0    0    0    0 -0.00000000000E+00 -0.00000000000E+00 -0.45593999997E+02  0.45594000000E+02  0.51100000000E-03 0. -1.
    9900012    2    1    2    0    0 -0.32611137928E+02  0.15977016466E+02 -0.18286999339E+02  0.50528859368E+02  0.29999998535E+02 0.  0.
        -12    1    1    2    0    0  0.32611137928E+02 -0.15977016466E+02  0.18286999339E+02  0.40659140632E+02  0.00000000000E+00 0.  1.
         11    1    3    3    0    0 -0.17092747187E+02  0.94082027971E+01 -0.11288271689E+02  0.22541103883E+02  0.51100000000E-03 0. -1.
        -11    1    3    3    0    0 -0.99812573995E+01 -0.82386012999E+00  0.62735702789E+01  0.11817864828E+02  0.51100000000E-03 0.  1.
         12    1    3    3    0    0 -0.55371333411E+01  0.73926737992E+01 -0.13272297929E+02  0.16169890657E+02  0.00000000000E+00 0. -1.
</event>
<event>
 7    1  0.2945316E-011  0.5052886E+02  0.7816164E-02  0.1300439E+00
        -11   -1    0    0    0    0  0.00000000000E+00  0.00000000000E+00  0.45593999997E+02  0.45594000000E+02  0.51100000000E-03 0. -1.
         11   -1    0    0    0    0 -0.00000000000E+00 -0.00000000000E+00 -0.45593999997E+02  0.45594000000E+02  0.51100000000E-03 0.  1.
    9900012    2    1    2    0    0 -0.20904198256E+02  0.34427898976E+02  0.55587576584E+01  0.50528861798E+02  0.30000005920E+02 0.  0.
        -12    1    1    2    0    0  0.20904198256E+02 -0.34427898976E+02 -0.55587576584E+01  0.40659138202E+02  0.00000000000E+00 0.  1.
         11    1    3    3    0    0 -0.43505547565E+01  0.73128501104E+01 -0.21188764463E+01  0.87689646529E+01  0.51100000000E-03 0. -1.
        -11    1    3    3    0    0  0.55943671145E+01  0.13080524143E+02 -0.67142053726E+00  0.14242466818E+02  0.51100000000E-03 0.  1.
         12    1    3    3    0    0 -0.22148010614E+02  0.14034524723E+02  0.83490546420E+01  0.27517430326E+02  0.00000000000E+00 0. -1.
</event>
<event>
 7    1  0.2945316E-011  0.5052886E+02  0.7816164E-02  0.1300439E+00
        -11   -1    0    0    0    0  0.00000000000E+00  0.00000000000E+00  0.45593999997E+02  0.45594000000E+02  0.51100000000E-03 0.  1.
         11   -1    0    0    0    0 -0.00000000000E+00 -0.00000000000E+00 -0.45593999997E+02  0.45594000000E+02  0.51100000000E-03 0. -1.
    9900012    2    1    2    0    0  0.21132583445E+02 -0.27926249474E+02 -0.20656817897E+02  0.50528860580E+02  0.30000002219E+02 0.  0.
        -12    1    1    2    0    0 -0.21132583445E+02  0.27926249474E+02  0.20656817897E+02  0.40659139420E+02  0.00000000000E+00 0.  1.
         11    1    3    3    0    0  0.11334527174E+02 -0.16661647301E+02 -0.11205559229E+02  0.23057462023E+02  0.51100000000E-03 0. -1.
        -11    1    3    3    0    0  0.33226555615E+01 -0.12059993301E+02  0.34827671367E+01  0.12985112459E+02  0.51100000000E-03 0.  1.
         12    1    3    3    0    0  0.64754007091E+01  0.79539112691E+00 -0.12934025805E+02  0.14486286098E+02  0.00000000000E+00 0. -1.
</event>
<event>
 7    1  0.2945316E-011  0.5052887E+02  0.7816164E-02  0.1300439E+00
        -11   -1    0    0    0    0  0.00000000000E+00  0.00000000000E+00  0.45593999997E+02  0.45594000000E+02  0.51100000000E-03 0.  1.
         11   -1    0    0    0    0 -0.00000000000E+00 -0.00000000000E+00 -0.45593999997E+02  0.45594000000E+02  0.51100000000E-03 0. -1.
    9900012    2    1    2    0    0 -0.20917602296E+02 -0.56466552672E+01 -0.34405437703E+02  0.50528868860E+02  0.30000027386E+02 0.  0.
        -12    1    1    2    0    0  0.20917602296E+02  0.56466552672E+01  0.34405437703E+02  0.40659131140E+02  0.00000000000E+00 0.  1.
         11    1    3    3    0    0  0.26176023489E+01 -0.99316370620E+00 -0.15406588513E+01  0.31955979349E+01  0.51100000000E-03 0. -1.
        -11    1    3    3    0    0 -0.44446496105E+01 -0.58084308769E+01  0.19867120235E+01  0.75789052202E+01  0.51100000000E-03 0.  1.
         12    1    3    3    0    0 -0.19090555034E+02  0.11549393159E+01 -0.34851490875E+02  0.39754365705E+02  0.00000000000E+00 0. -1.
</event>
<event>
 7    1  0.2945316E-011  0.5052887E+02  0.7816164E-02  0.1300439E+00
        -11   -1    0    0    0    0  0.00000000000E+00  0.00000000000E+00  0.45593999997E+02  0.45594000000E+02  0.51100000000E-03 0. -1.
         11   -1    0    0    0    0 -0.00000000000E+00 -0.00000000000E+00 -0.45593999997E+02  0.45594000000E+02  0.51100000000E-03 0.  1.
    9900012    2    1    2    0    0 -0.38269035612E+02 -0.55929739297E+01 -0.12544512471E+02  0.50528865267E+02  0.30000016467E+02 0.  0.
        -12    1    1    2    0    0  0.38269035612E+02  0.55929739297E+01  0.12544512471E+02  0.40659134733E+02  0.00000000000E+00 0.  1.
         11    1    3    3    0    0 -0.14439284097E+02 -0.15926905375E+01  0.19787154919E+01  0.14660999408E+02  0.51100000000E-03 0. -1.
        -11    1    3    3    0    0 -0.11594554162E+02  0.74866677232E+01 -0.19815671527E+00  0.13803012213E+02  0.51100000000E-03 0.  1.
         12    1    3    3    0    0 -0.12235197354E+02 -0.11486951115E+02 -0.14325071247E+02  0.22064853647E+02  0.00000000000E+00 0. -1.
</event>
<event>
 7    1  0.2945316E-011  0.5052886E+02  0.7816164E-02  0.1300439E+00
        -11   -1    0    0    0    0  0.00000000000E+00  0.00000000000E+00  0.45593999997E+02  0.45594000000E+02  0.51100000000E-03 0. -1.
         11   -1    0    0    0    0 -0.00000000000E+00 -0.00000000000E+00 -0.45593999997E+02  0.45594000000E+02  0.51100000000E-03 0.  1.
    9900012    2    1    2    0    0  0.29519319028E+01 -0.76999410204E+01  0.39814102272E+02  0.50528859166E+02  0.29999997920E+02 0.  0.
        -12    1    1    2    0    0 -0.29519319028E+01  0.76999410204E+01 -0.39814102272E+02  0.40659140834E+02  0.00000000000E+00 0.  1.
         11    1    3    3    0    0 -0.79271797685E+01 -0.12247420629E+02  0.31778479338E+02  0.34967288148E+02  0.51100000000E-03 0. -1.
        -11    1    3    3    0    0  0.22798171852E+01  0.12570658211E+01  0.53834108085E+01  0.59798740012E+01  0.51100000000E-03 0.  1.
        -12    1    3    3    0    0  0.85992944861E+01  0.32904137878E+01  0.26522121254E+01  0.95816970163E+01  0.00000000000E+00 0.  1.
</event>
<event>
 7    1  0.2945316E-011  0.5052887E+02  0.7816164E-02  0.1300439E+00
        -11   -1    0    0    0    0  0.00000000000E+00  0.00000000000E+00  0.45593999997E+02  0.45594000000E+02  0.51100000000E-03 0.  1.
         11   -1    0    0    0    0 -0.00000000000E+00 -0.00000000000E+00 -0.45593999997E+02  0.45594000000E+02  0.51100000000E-03 0. -1.
    9900012    2    1    2    0    0  0.17575929025E+02  0.11983391941E+02 -0.34650392231E+02  0.50528872547E+02  0.30000038593E+02 0.  0.
        -12    1    1    2    0    0 -0.17575929025E+02 -0.11983391941E+02  0.34650392231E+02  0.40659127453E+02  0.00000000000E+00 0.  1.
         11    1    3    3    0    0  0.42489560134E+01  0.72753179552E+01 -0.56384324120E+01  0.10137839951E+02  0.51100000000E-03 0. -1.
        -11    1    3    3    0    0  0.66407413958E+01  0.14044670552E+02 -0.11022265301E+02  0.19048426440E+02  0.51100000000E-03 0.  1.
         12    1    3    3    0    0  0.66862316162E+01 -0.93365965663E+01 -0.17989694517E+02  0.21342606155E+02  0.00000000000E+00 0. -1.
</event>
<event>
 7    1  0.2945316E-011  0.5052883E+02  0.7816164E-02  0.1300439E+00
        -11   -1    0    0    0    0  0.00000000000E+00  0.00000000000E+00  0.45593999997E+02  0.45594000000E+02  0.51100000000E-03 0.  1.
         11   -1    0    0    0    0 -0.00000000000E+00 -0.00000000000E+00 -0.45593999997E+02  0.45594000000E+02  0.51100000000E-03 0. -1.
    9900012    2    1    2    0    0  0.13686584341E+02 -0.38279698221E+02 -0.71421106804E+00  0.50528831486E+02  0.29999913784E+02 0.  0.
        -12    1    1    2    0    0 -0.13686584341E+02  0.38279698221E+02  0.71421106804E+00  0.40659168514E+02  0.00000000000E+00 0.  1.
         11    1    3    3    0    0  0.69261694954E+01 -0.21502938774E+02  0.51246437649E+01  0.23164847804E+02  0.51100000000E-03 0. -1.
        -11    1    3    3    0    0  0.44732147071E+01  0.75094823571E+00  0.49033293525E+01  0.66795368154E+01  0.51100000000E-03 0.  1.
         12    1    3    3    0    0  0.22872001389E+01 -0.17527707682E+02 -0.10742184185E+02  0.20684446866E+02  0.00000000000E+00 0. -1.
</event>
<event>
 7    1  0.2945316E-011  0.5052886E+02  0.7816164E-02  0.1300439E+00
        -11   -1    0    0    0    0  0.00000000000E+00  0.00000000000E+00  0.45593999997E+02  0.45594000000E+02  0.51100000000E-03 0.  1.
         11   -1    0    0    0    0 -0.00000000000E+00 -0.00000000000E+00 -0.45593999997E+02  0.45594000000E+02  0.51100000000E-03 0. -1.
    9900012    2    1    2    0    0 -0.17941361959E+01  0.40555651969E+02  0.22772099082E+01  0.50528861836E+02  0.30000006036E+02 0.  0.
        -12    1    1    2    0    0  0.17941361959E+01 -0.40555651969E+02 -0.22772099082E+01  0.40659138164E+02  0.00000000000E+00 0.  1.
         11    1    3    3    0    0  0.78535634281E+00  0.60607634813E+00  0.23706604873E+01  0.25698530176E+01  0.51100000000E-03 0. -1.
        -11    1    3    3    0    0 -0.81250154267E+01  0.87355086936E+01  0.90383425641E+01  0.14967184919E+02  0.51100000000E-03 0.  1.
         12    1    3    3    0    0  0.55455228880E+01  0.31214066927E+02 -0.91317931431E+01  0.32991823900E+02  0.00000000000E+00 0. -1.
</event>
<event>
 7    1  0.2945316E-011  0.5052886E+02  0.7816164E-02  0.1300439E+00
        -11   -1    0    0    0    0  0.00000000000E+00  0.00000000000E+00  0.45593999997E+02  0.45594000000E+02  0.51100000000E-03 0.  1.
         11   -1    0    0    0    0 -0.00000000000E+00 -0.00000000000E+00 -0.45593999997E+02  0.45594000000E+02  0.51100000000E-03 0. -1.
    9900012    2    1    2    0    0  0.38057365920E+01 -0.29319456606E+02 -0.27911491179E+02  0.50528861955E+02  0.30000006399E+02 0.  0.
        -12    1    1    2    0    0 -0.38057365920E+01  0.29319456606E+02  0.27911491179E+02  0.40659138045E+02  0.00000000000E+00 0.  1.
         11    1    3    3    0    0 -0.64759394965E+01 -0.20744343675E+01 -0.42922062453E+01  0.80413994442E+01  0.51100000000E-03 0. -1.
        -11    1    3    3    0    0  0.23308712584E+01 -0.69213983946E+01  0.31465590176E+01  0.79523298770E+01  0.51100000000E-03 0.  1.
         12    1    3    3    0    0  0.79508048301E+01 -0.20323623844E+02 -0.26765843952E+02  0.34535132634E+02  0.00000000000E+00 0. -1.
</event>
<event>
 7    1  0.2945316E-011  0.5052888E+02  0.7816164E-02  0.1300439E+00
        -11   -1    0    0    0    0  0.00000000000E+00  0.00000000000E+00  0.45593999997E+02  0.45594000000E+02  0.51100000000E-03 0. -1.
         11   -1    0    0    0    0 -0.00000000000E+00 -0.00000000000E+00 -0.45593999997E+02  0.45594000000E+02  0.51100000000E-03 0.  1.
    9900012    2    1    2    0    0  0.14708135553E+02  0.16522369562E+02  0.34115193299E+02  0.50528876040E+02  0.30000049211E+02 0.  0.
        -12    1    1    2    0    0 -0.14708135553E+02 -0.16522369562E+02 -0.34115193299E+02  0.40659123960E+02  0.00000000000E+00 0.  1.
         11    1    3    3    0    0 -0.13364031968E+01  0.56926966988E+01  0.13153983969E+02  0.14395140282E+02  0.51100000000E-03 0. -1.
        -11    1    3    3    0    0 -0.46742449358E+01  0.67973846571E+01  0.47496721493E+01  0.95190540330E+01  0.51100000000E-03 0.  1.
        -12    1    3    3    0    0  0.20718783685E+02  0.40322882062E+01  0.16211537180E+02  0.26614681725E+02  0.00000000000E+00 0.  1.
</event>
<event>
 7    1  0.2945316E-011  0.5052886E+02  0.7816164E-02  0.1300439E+00
        -11   -1    0    0    0    0  0.00000000000E+00  0.00000000000E+00  0.45593999997E+02  0.45594000000E+02  0.51100000000E-03 0. -1.
         11   -1    0    0    0    0 -0.00000000000E+00 -0.00000000000E+00 -0.45593999997E+02  0.45594000000E+02  0.51100000000E-03 0.  1.
    9900012    2    1    2    0    0 -0.24721629353E+02 -0.13785597582E+02  0.29188428422E+02  0.50528855736E+02  0.29999987494E+02 0.  0.
        -12    1    1    2    0    0  0.24721629353E+02  0.13785597582E+02 -0.29188428422E+02  0.40659144264E+02  0.00000000000E+00 0.  1.
         11    1    3    3    0    0 -0.37108790543E+01  0.25444208864E+01  0.18292863752E+02  0.18838088160E+02  0.51100000000E-03 0. -1.
        -11    1    3    3    0    0 -0.61127025820E+00 -0.27348805153E+01  0.60980206211E+01  0.67111160411E+01  0.51100000000E-03 0.  1.
         12    1    3    3    0    0 -0.20399480040E+02 -0.13595137953E+02  0.47975440492E+01  0.24979651535E+02  0.00000000000E+00 0. -1.
</event>
<event>
 7    1  0.2945316E-011  0.5052886E+02  0.7816164E-02  0.1300439E+00
        -11   -1    0    0    0    0  0.00000000000E+00  0.00000000000E+00  0.45593999997E+02  0.45594000000E+02  0.51100000000E-03 0.  1.
         11   -1    0    0    0    0 -0.00000000000E+00 -0.00000000000E+00 -0.45593999997E+02  0.45594000000E+02  0.51100000000E-03 0. -1.
    9900012    2    1    2    0    0 -0.16339332331E+02 -0.36026648607E+02  0.93953515823E+01  0.50528858073E+02  0.29999994600E+02 0.  0.
        -12    1    1    2    0    0  0.16339332331E+02  0.36026648607E+02 -0.93953515823E+01  0.40659141927E+02  0.00000000000E+00 0.  1.
         11    1    3    3    0    0 -0.12722612627E+02 -0.30435940081E+02 -0.25938963300E+01  0.33089871851E+02  0.51100000000E-03 0. -1.
        -11    1    3    3    0    0  0.29836844928E+01 -0.49201179632E+01  0.37826234381E+01  0.68860855542E+01  0.51100000000E-03 0.  1.
        -12    1    3    3    0    0 -0.66004041965E+01 -0.67059056278E+00  0.82066244742E+01  0.10552900669E+02  0.00000000000E+00 0.  1.
</event>
<event>
 7    1  0.2945316E-011  0.5052885E+02  0.7816164E-02  0.1300439E+00
        -11   -1    0    0    0    0  0.00000000000E+00  0.00000000000E+00  0.45593999997E+02  0.45594000000E+02  0.51100000000E-03 0.  1.
         11   -1    0    0    0    0 -0.00000000000E+00 -0.00000000000E+00 -0.45593999997E+02  0.45594000000E+02  0.51100000000E-03 0. -1.
    9900012    2    1    2    0    0 -0.19447814832E+02  0.25736250537E+02 -0.24750636128E+02  0.50528854876E+02  0.29999984882E+02 0.  0.
        -12    1    1    2    0    0  0.19447814832E+02 -0.25736250537E+02  0.24750636128E+02  0.40659145124E+02  0.00000000000E+00 0.  1.
         11    1    3    3    0    0 -0.30458033123E+01  0.85108955648E+01 -0.18582971440E+01  0.92285171977E+01  0.51100000000E-03 0. -1.
        -11    1    3    3    0    0  0.38382689973E+01  0.46939515041E+01  0.24416683253E+01  0.65366072308E+01  0.51100000000E-03 0.  1.
        -12    1    3    3    0    0 -0.20240280517E+02  0.12531403468E+02 -0.25334007310E+02  0.34763730448E+02  0.00000000000E+00 0.  1.
</event>
<event>
 7    1  0.2945316E-011  0.5052886E+02  0.7816164E-02  0.1300439E+00
        -11   -1    0    0    0    0  0.00000000000E+00  0.00000000000E+00  0.45593999997E+02  0.45594000000E+02  0.51100000000E-03 0.  1.
         11   -1    0    0    0    0 -0.00000000000E+00 -0.00000000000E+00 -0.45593999997E+02  0.45594000000E+02  0.51100000000E-03 0. -1.
    9900012    2    1    2    0    0 -0.12703396372E+02 -0.38491514565E+02  0.31925885147E+01  0.50528860876E+02  0.30000003118E+02 0.  0.
        -12    1    1    2    0    0  0.12703396372E+02  0.38491514565E+02 -0.31925885147E+01  0.40659139124E+02  0.00000000000E+00 0.  1.
         11    1    3    3    0    0 -0.20521156398E+00 -0.79550248326E+01 -0.85486623771E+01  0.11679219176E+02  0.51100000000E-03 0. -1.
        -11    1    3    3    0    0  0.28866667173E+01 -0.10349521820E+02  0.75323239445E+01  0.13121789166E+02  0.51100000000E-03 0.  1.
         12    1    3    3    0    0 -0.15384851526E+02 -0.20186967912E+02  0.42089269474E+01  0.25727852534E+02  0.00000000000E+00 0. -1.
</event>
<event>
 7    1  0.2945316E-011  0.5052887E+02  0.7816164E-02  0.1300439E+00
        -11   -1    0    0    0    0  0.00000000000E+00  0.00000000000E+00  0.45593999997E+02  0.45594000000E+02  0.51100000000E-03 0. -1.
         11   -1    0    0    0    0 -0.00000000000E+00 -0.00000000000E+00 -0.45593999997E+02  0.45594000000E+02  0.51100000000E-03 0.  1.
    9900012    2    1    2    0    0 -0.31009865127E+02 -0.26287749630E+02  0.71244928145E+00  0.50528866958E+02  0.30000021605E+02 0.  0.
        -12    1    1    2    0    0  0.31009865127E+02  0.26287749630E+02 -0.71244928145E+00  0.40659133042E+02  0.00000000000E+00 0.  1.
         11    1    3    3    0    0  0.73976185894E+00 -0.64008963788E+01 -0.48989319880E+01  0.80943348673E+01  0.51100000000E-03 0. -1.
        -11    1    3    3    0    0 -0.11320149960E+01 -0.96024095076E+01  0.24961661045E+01  0.99859186751E+01  0.51100000000E-03 0.  1.
         12    1    3    3    0    0 -0.30617611990E+02 -0.10284443743E+02  0.31152151649E+01  0.32448613415E+02  0.00000000000E+00 0. -1.
</event>
<event>
 7    1  0.2945316E-011  0.5052888E+02  0.7816164E-02  0.1300439E+00
        -11   -1    0    0    0    0  0.00000000000E+00  0.00000000000E+00  0.45593999997E+02  0.45594000000E+02  0.51100000000E-03 0.  1.
         11   -1    0    0    0    0 -0.00000000000E+00 -0.00000000000E+00 -0.45593999997E+02  0.45594000000E+02  0.51100000000E-03 0. -1.
    9900012    2    1    2    0    0 -0.19517988964E+02 -0.29235274109E+02 -0.20433076669E+02  0.50528883340E+02  0.30000071399E+02 0.  0.
        -12    1    1    2    0    0  0.19517988964E+02  0.29235274109E+02  0.20433076669E+02  0.40659116660E+02  0.00000000000E+00 0.  1.
         11    1    3    3    0    0 -0.13604105590E+02 -0.14276606094E+02 -0.14487898023E+02  0.24470234160E+02  0.51100000000E-03 0. -1.
        -11    1    3    3    0    0  0.63212978518E+01 -0.75006534290E+01 -0.64173605139E+01  0.11721822581E+02  0.51100000000E-03 0.  1.
         12    1    3    3    0    0 -0.12235181226E+02 -0.74580145864E+01  0.47218186743E+00  0.14336826599E+02  0.00000000000E+00 0. -1.
</event>
<event>
 7    1  0.2945316E-011  0.5052886E+02  0.7816164E-02  0.1300439E+00
        -11   -1    0    0    0    0  0.00000000000E+00  0.00000000000E+00  0.45593999997E+02  0.45594000000E+02  0.51100000000E-03 0.  1.
         11   -1    0    0    0    0 -0.00000000000E+00 -0.00000000000E+00 -0.45593999997E+02  0.45594000000E+02  0.51100000000E-03 0. -1.
    9900012    2    1    2    0    0  0.57354008887E+01  0.47017643340E+01 -0.39977041887E+02  0.50528864627E+02  0.30000014522E+02 0.  0.
        -12    1    1    2    0    0 -0.57354008887E+01 -0.47017643340E+01  0.39977041887E+02  0.40659135373E+02  0.00000000000E+00 0.  1.
         11    1    3    3    0    0  0.86151608803E+01 -0.26575467340E+01 -0.25257883358E+01  0.93628606000E+01  0.51100000000E-03 0.  1.
        -11    1    3    3    0    0 -0.16694207709E+01  0.54170208501E+01 -0.25941162035E+01  0.62338206373E+01  0.51100000000E-03 0. -1.
         12    1    3    3    0    0 -0.12103392207E+01  0.19422902179E+01 -0.34857137348E+02  0.34932183390E+02  0.00000000000E+00 0. -1.
</event>
<event>
 7    1  0.2945316E-011  0.5052885E+02  0.7816164E-02  0.1300439E+00
        -11   -1    0    0    0    0  0.00000000000E+00  0.00000000000E+00  0.45593999997E+02  0.45594000000E+02  0.51100000000E-03 0.  1.
         11   -1    0    0    0    0 -0.00000000000E+00 -0.00000000000E+00 -0.45593999997E+02  0.45594000000E+02  0.51100000000E-03 0. -1.
    9900012    2    1    2    0    0 -0.20504724726E+02  0.22966648114E+02 -0.26556654029E+02  0.50528849310E+02  0.29999967961E+02 0.  0.
        -12    1    1    2    0    0  0.20504724726E+02 -0.22966648114E+02  0.26556654029E+02  0.40659150690E+02  0.00000000000E+00 0.  1.
         11    1    3    3    0    0  0.48370648342E+01  0.60121723448E+01 -0.44539130635E+01  0.89095877768E+01  0.51100000000E-03 0.  1.
        -11    1    3    3    0    0 -0.84851713846E+01  0.13635882529E+02 -0.37746050222E+01  0.16497971667E+02  0.51100000000E-03 0. -1.
        -12    1    3    3    0    0 -0.16856618175E+02  0.33185932401E+01 -0.18328135943E+02  0.25121289866E+02  0.00000000000E+00 0.  1.
</event>
<event>
 7    1  0.2945316E-011  0.5052884E+02  0.7816164E-02  0.1300439E+00
        -11   -1    0    0    0    0  0.00000000000E+00  0.00000000000E+00  0.45593999997E+02  0.45594000000E+02  0.51100000000E-03 0.  1.
         11   -1    0    0    0    0 -0.00000000000E+00 -0.00000000000E+00 -0.45593999997E+02  0.45594000000E+02  0.51100000000E-03 0. -1.
    9900012    2    1    2    0    0  0.22479869565E+02  0.30193004918E+02 -0.15368971909E+02  0.50528838927E+02  0.29999936403E+02 0.  0.
        -12    1    1    2    0    0 -0.22479869565E+02 -0.30193004918E+02  0.15368971909E+02  0.40659161073E+02  0.00000000000E+00 0.  1.
         11    1    3    3    0    0 -0.94425464718E+00 -0.86464309113E+00 -0.18117494681E+01  0.22184816678E+01  0.51100000000E-03 0. -1.
        -11    1    3    3    0    0  0.28619793259E+01  0.63710394191E+01  0.72229595242E+01  0.10047497872E+02  0.51100000000E-03 0.  1.
         12    1    3    3    0    0  0.20562144886E+02  0.24686608590E+02 -0.20780181965E+02  0.38262859387E+02  0.00000000000E+00 0. -1.
</event>
<event>
 7    1  0.2945316E-011  0.5052885E+02  0.7816164E-02  0.1300439E+00
        -11   -1    0    0    0    0  0.00000000000E+00  0.00000000000E+00  0.45593999997E+02  0.45594000000E+02  0.51100000000E-03 0.  1.
         11   -1    0    0    0    0 -0.00000000000E+00 -0.00000000000E+00 -0.45593999997E+02  0.45594000000E+02  0.51100000000E-03 0. -1.
    9900012    2    1    2    0    0 -0.18535239327E+01 -0.40590025136E+02 -0.14768706855E+01  0.50528845575E+02  0.29999956611E+02 0.  0.
        -12    1    1    2    0    0  0.18535239327E+01  0.40590025136E+02  0.14768706855E+01  0.40659154425E+02  0.00000000000E+00 0.  1.
         11    1    3    3    0    0 -0.35068823412E+01 -0.22378667967E+02 -0.10733112253E+02  0.25065967020E+02  0.51100000000E-03 0. -1.
        -11    1    3    3    0    0 -0.65984646910E+01 -0.69595299320E+01  0.22565688476E+01  0.98522533655E+01  0.51100000000E-03 0.  1.
         12    1    3    3    0    0  0.82518230995E+01 -0.11251827237E+02  0.69996727203E+01  0.15610625190E+02  0.00000000000E+00 0. -1.
</event>
<event>
 7    1  0.2945316E-011  0.5052886E+02  0.7816164E-02  0.1300439E+00
        -11   -1    0    0    0    0  0.00000000000E+00  0.00000000000E+00  0.45593999997E+02  0.45594000000E+02  0.51100000000E-03 0.  1.
         11   -1    0    0    0    0 -0.00000000000E+00 -0.00000000000E+00 -0.45593999997E+02  0.45594000000E+02  0.51100000000E-03 0. -1.
    9900012    2    1    2    0    0  0.11583562359E+01 -0.35344144292E+01 -0.40488663717E+02  0.50528858788E+02  0.29999996773E+02 0.  0.
        -12    1    1    2    0    0 -0.11583562359E+01  0.35344144292E+01  0.40488663717E+02  0.40659141212E+02  0.00000000000E+00 0.  1.
         11    1    3    3    0    0 -0.10002838941E+02 -0.38151673302E+01 -0.10872004788E+02  0.15258203597E+02  0.51100000000E-03 0. -1.
        -11    1    3    3    0    0  0.52253802039E+01  0.14960541339E+01 -0.28618454015E+02  0.29130030668E+02  0.51100000000E-03 0.  1.
        -12    1    3    3    0    0  0.59358149730E+01 -0.12153012330E+01 -0.99820491294E+00  0.61406245227E+01  0.00000000000E+00 0.  1.
</event>
<event>
 7    1  0.2945316E-011  0.5052887E+02  0.7816164E-02  0.1300439E+00
        -11   -1    0    0    0    0  0.00000000000E+00  0.00000000000E+00  0.45593999997E+02  0.45594000000E+02  0.51100000000E-03 0.  1.
         11   -1    0    0    0    0 -0.00000000000E+00 -0.00000000000E+00 -0.45593999997E+02  0.45594000000E+02  0.51100000000E-03 0. -1.
    9900012    2    1    2    0    0  0.26540351387E+02  0.94670009344E+01 -0.29311272095E+02  0.50528867812E+02  0.30000024201E+02 0.  0.
        -12    1    1    2    0    0 -0.26540351387E+02 -0.94670009344E+01  0.29311272095E+02  0.40659132188E+02  0.00000000000E+00 0.  1.
         11    1    3    3    0    0  0.29669905427E+01  0.85514918927E+01 -0.42544455130E+01  0.10001567545E+02  0.51100000000E-03 0. -1.
        -11    1    3    3    0    0  0.67046767541E+00 -0.23062591263E+01 -0.15195858729E+02  0.15384488319E+02  0.51100000000E-03 0.  1.
        -12    1    3    3    0    0  0.22902893169E+02  0.32217681680E+01 -0.98609678528E+01  0.25142811948E+02  0.00000000000E+00 0.  1.
</event>
<event>
 7    1  0.2945316E-011  0.5052886E+02  0.7816164E-02  0.1300439E+00
        -11   -1    0    0    0    0  0.00000000000E+00  0.00000000000E+00  0.45593999997E+02  0.45594000000E+02  0.51100000000E-03 0.  1.
         11   -1    0    0    0    0 -0.00000000000E+00 -0.00000000000E+00 -0.45593999997E+02  0.45594000000E+02  0.51100000000E-03 0. -1.
    9900012    2    1    2    0    0  0.27756100586E+01  0.13178606908E+02 -0.38363867396E+02  0.50528855730E+02  0.29999987476E+02 0.  0.
        -12    1    1    2    0    0 -0.27756100586E+01 -0.13178606908E+02  0.38363867396E+02  0.40659144270E+02  0.00000000000E+00 0.  1.
         11    1    3    3    0    0  0.63355523987E+01  0.53134556800E+01 -0.10280537026E+02  0.13193236042E+02  0.51100000000E-03 0. -1.
        -11    1    3    3    0    0  0.55601697926E+01  0.29487032109E+01  0.10807535785E+01  0.63857941798E+01  0.51100000000E-03 0.  1.
         12    1    3    3    0    0 -0.91201121327E+01  0.49164480172E+01 -0.29164083948E+02  0.30949825508E+02  0.00000000000E+00 0. -1.
</event>
<event>
 7    1  0.2945316E-011  0.5052887E+02  0.7816164E-02  0.1300439E+00
        -11   -1    0    0    0    0  0.00000000000E+00  0.00000000000E+00  0.45593999997E+02  0.45594000000E+02  0.51100000000E-03 0.  1.
         11   -1    0    0    0    0 -0.00000000000E+00 -0.00000000000E+00 -0.45593999997E+02  0.45594000000E+02  0.51100000000E-03 0. -1.
    9900012    2    1    2    0    0 -0.56146106597E+00 -0.18338411169E+02 -0.36284329522E+02  0.50528866567E+02  0.30000020416E+02 0.  0.
        -12    1    1    2    0    0  0.56146106597E+00  0.18338411169E+02  0.36284329522E+02  0.40659133433E+02  0.00000000000E+00 0.  1.
         11    1    3    3    0    0 -0.83695424592E+01 -0.64568359025E+01 -0.22705660588E+02  0.25045698110E+02  0.51100000000E-03 0. -1.
        -11    1    3    3    0    0  0.40921607859E+01 -0.13747967592E+02 -0.15309211604E+02  0.20979140902E+02  0.51100000000E-03 0.  1.
        -12    1    3    3    0    0  0.37159206074E+01  0.18663923257E+01  0.17305426700E+01  0.45040275539E+01  0.00000000000E+00 0.  1.
</event>
<event>
 7    1  0.2945316E-011  0.5052885E+02  0.7816164E-02  0.1300439E+00
        -11   -1    0    0    0    0  0.00000000000E+00  0.00000000000E+00  0.45593999997E+02  0.45594000000E+02  0.51100000000E-03 0.  1.
         11   -1    0    0    0    0 -0.00000000000E+00 -0.00000000000E+00 -0.45593999997E+02  0.45594000000E+02  0.51100000000E-03 0. -1.
    9900012    2    1    2    0    0 -0.30413176109E+02  0.12325639349E+02 -0.24005915243E+02  0.50528848102E+02  0.29999964291E+02 0.  0.
        -12    1    1    2    0    0  0.30413176109E+02 -0.12325639349E+02  0.24005915243E+02  0.40659151898E+02  0.00000000000E+00 0.  1.
         11    1    3    3    0    0 -0.23203750628E+02  0.12157495640E+02 -0.90303098537E+01  0.27708577007E+02  0.51100000000E-03 0. -1.
        -11    1    3    3    0    0 -0.65259918500E+01  0.69550967261E+01 -0.50928237844E+01  0.10811974586E+02  0.51100000000E-03 0.  1.
        -12    1    3    3    0    0 -0.68343363079E+00 -0.67869530166E+01 -0.98827816053E+01  0.12008296509E+02  0.00000000000E+00 0.  1.
</event>
<event>
 7    1  0.2945316E-011  0.5052886E+02  0.7816164E-02  0.1300439E+00
        -11   -1    0    0    0    0  0.00000000000E+00  0.00000000000E+00  0.45593999997E+02  0.45594000000E+02  0.51100000000E-03 0. -1.
         11   -1    0    0    0    0 -0.00000000000E+00 -0.00000000000E+00 -0.45593999997E+02  0.45594000000E+02  0.51100000000E-03 0.  1.
    9900012    2    1    2    0    0  0.13448811490E+02 -0.31799806510E+02 -0.21472485913E+02  0.50528857414E+02  0.29999992596E+02 0.  0.
        -12    1    1    2    0    0 -0.13448811490E+02  0.31799806510E+02  0.21472485913E+02  0.40659142586E+02  0.00000000000E+00 0.  1.
         11    1    3    3    0    0  0.11420583096E+02 -0.18538732578E+02 -0.15288028625E+02  0.26605227745E+02  0.51100000000E-03 0. -1.
        -11    1    3    3    0    0  0.83493265853E+01 -0.21310126237E+01 -0.69941977465E+01  0.11098255341E+02  0.51100000000E-03 0.  1.
        -12    1    3    3    0    0 -0.63210981912E+01 -0.11130061308E+02  0.80974045834E+00  0.12825374328E+02  0.00000000000E+00 0.  1.
</event>
<event>
 7    1  0.2945316E-011  0.5052886E+02  0.7816164E-02  0.1300439E+00
        -11   -1    0    0    0    0  0.00000000000E+00  0.00000000000E+00  0.45593999997E+02  0.45594000000E+02  0.51100000000E-03 0.  1.
         11   -1    0    0    0    0 -0.00000000000E+00 -0.00000000000E+00 -0.45593999997E+02  0.45594000000E+02  0.51100000000E-03 0. -1.
    9900012    2    1    2    0    0  0.17006316009E+02 -0.70732109530E+01 -0.36248043200E+02  0.50528859168E+02  0.29999997928E+02 0.  0.
        -12    1    1    2    0    0 -0.17006316009E+02  0.70732109530E+01  0.36248043200E+02  0.40659140832E+02  0.00000000000E+00 0.  1.
         11    1    3    3    0    0  0.82756551054E+01 -0.12941872475E+02 -0.28459112197E+02  0.32340371022E+02  0.51100000000E-03 0. -1.
        -11    1    3    3    0    0  0.12210051576E+01 -0.34226675890E+01 -0.45257703670E+01  0.58041454751E+01  0.51100000000E-03 0.  1.
        -12    1    3    3    0    0  0.75096557457E+01  0.92913291105E+01 -0.32631606361E+01  0.12384342671E+02  0.00000000000E+00 0.  1.
</event>
<event>
 7    1  0.2945316E-011  0.5052886E+02  0.7816164E-02  0.1300439E+00
        -11   -1    0    0    0    0  0.00000000000E+00  0.00000000000E+00  0.45593999997E+02  0.45594000000E+02  0.51100000000E-03 0.  1.
         11   -1    0    0    0    0 -0.00000000000E+00 -0.00000000000E+00 -0.45593999997E+02  0.45594000000E+02  0.51100000000E-03 0. -1.
    9900012    2    1    2    0    0  0.28693680739E+02  0.27920973336E+02 -0.70892551645E+01  0.50528860742E+02  0.30000002713E+02 0.  0.
        -12    1    1    2    0    0 -0.28693680739E+02 -0.27920973336E+02  0.70892551645E+01  0.40659139258E+02  0.00000000000E+00 0.  1.
         11    1    3    3    0    0  0.88160099008E+01  0.15576168270E+01 -0.10065195288E+02  0.13470573751E+02  0.51100000000E-03 0.  1.
        -11    1    3    3    0    0  0.53851302782E+01  0.36915661613E+01 -0.58227136739E+01  0.87482160253E+01  0.51100000000E-03 0. -1.
        -12    1    3    3    0    0  0.14492540560E+02  0.22671790348E+02  0.87986537969E+01  0.28310070966E+02  0.00000000000E+00 0.  1.
</event>
<event>
 7    1  0.2945316E-011  0.5052886E+02  0.7816164E-02  0.1300439E+00
        -11   -1    0    0    0    0  0.00000000000E+00  0.00000000000E+00  0.45593999997E+02  0.45594000000E+02  0.51100000000E-03 0.  1.
         11   -1    0    0    0    0 -0.00000000000E+00 -0.00000000000E+00 -0.45593999997E+02  0.45594000000E+02  0.51100000000E-03 0. -1.
    9900012    2    1    2    0    0 -0.30757013057E+02 -0.26107374752E+02  0.50573136455E+01  0.50528864619E+02  0.30000014495E+02 0.  0.
        -12    1    1    2    0    0  0.30757013057E+02  0.26107374752E+02 -0.50573136455E+01  0.40659135381E+02  0.00000000000E+00 0.  1.
         11    1    3    3    0    0 -0.60362268764E+01  0.80641282638E+00 -0.51990288868E+01  0.80072615904E+01  0.51100000000E-03 0. -1.
        -11    1    3    3    0    0  0.21694368086E+01 -0.80401854336E+01  0.31885358069E+01  0.89172752972E+01  0.51100000000E-03 0.  1.
         12    1    3    3    0    0 -0.26890222989E+02 -0.18873602145E+02  0.70678067254E+01  0.33604327731E+02  0.00000000000E+00 0. -1.
</event>
<event>
 7    1  0.2945316E-011  0.5052884E+02  0.7816164E-02  0.1300439E+00
        -11   -1    0    0    0    0  0.00000000000E+00  0.00000000000E+00  0.45593999997E+02  0.45594000000E+02  0.51100000000E-03 0.  1.
         11   -1    0    0    0    0 -0.00000000000E+00 -0.00000000000E+00 -0.45593999997E+02  0.45594000000E+02  0.51100000000E-03 0. -1.
    9900012    2    1    2    0    0  0.83817338437E+01 -0.27646167841E+02 -0.28611242330E+02  0.50528840562E+02  0.29999941372E+02 0.  0.
        -12    1    1    2    0    0 -0.83817338437E+01  0.27646167841E+02  0.28611242330E+02  0.40659159438E+02  0.00000000000E+00 0.  1.
         11    1    3    3    0    0  0.64610242551E+01 -0.42683451223E+01  0.23321816264E+01  0.80871920905E+01  0.51100000000E-03 0. -1.
        -11    1    3    3    0    0 -0.85132768508E-01 -0.60675726238E+01  0.90717443618E+00  0.61356051740E+01  0.51100000000E-03 0.  1.
        -12    1    3    3    0    0  0.20058423571E+01 -0.17310250095E+02 -0.31850598393E+02  0.36306043297E+02  0.00000000000E+00 0.  1.
</event>
<event>
 7    1  0.2945316E-011  0.5052886E+02  0.7816164E-02  0.1300439E+00
        -11   -1    0    0    0    0  0.00000000000E+00  0.00000000000E+00  0.45593999997E+02  0.45594000000E+02  0.51100000000E-03 0.  1.
         11   -1    0    0    0    0 -0.00000000000E+00 -0.00000000000E+00 -0.45593999997E+02  0.45594000000E+02  0.51100000000E-03 0. -1.
    9900012    2    1    2    0    0 -0.31497313422E+02 -0.45325561315E+01 -0.25308909618E+02  0.50528859281E+02  0.29999998271E+02 0.  0.
        -12    1    1    2    0    0  0.31497313422E+02  0.45325561315E+01  0.25308909618E+02  0.40659140719E+02  0.00000000000E+00 0.  1.
         11    1    3    3    0    0 -0.41978441580E+01  0.51273123702E+01  0.11981691238E+01  0.67340060311E+01  0.51100000000E-03 0. -1.
        -11    1    3    3    0    0  0.46768810503E-01 -0.30370675414E+01 -0.11523688386E+02  0.11917271535E+02  0.51100000000E-03 0.  1.
         12    1    3    3    0    0 -0.27346238075E+02 -0.66228009603E+01 -0.14983390357E+02  0.31877581715E+02  0.00000000000E+00 0. -1.
</event>
<event>
 7    1  0.2945316E-011  0.5052884E+02  0.7816164E-02  0.1300439E+00
        -11   -1    0    0    0    0  0.00000000000E+00  0.00000000000E+00  0.45593999997E+02  0.45594000000E+02  0.51100000000E-03 0. -1.
         11   -1    0    0    0    0 -0.00000000000E+00 -0.00000000000E+00 -0.45593999997E+02  0.45594000000E+02  0.51100000000E-03 0.  1.
    9900012    2    1    2    0    0  0.30210338623E+02  0.20634927978E+02  0.17739850803E+02  0.50528842128E+02  0.29999946133E+02 0.  0.
        -12    1    1    2    0    0 -0.30210338623E+02 -0.20634927978E+02 -0.17739850803E+02  0.40659157872E+02  0.00000000000E+00 0.  1.
         11    1    3    3    0    0  0.27237787723E+02  0.15420017183E+02  0.15390309600E+02  0.34878870965E+02  0.51100000000E-03 0. -1.
        -11    1    3    3    0    0  0.78882302849E+00  0.99482712800E+01  0.11956457907E+00  0.99802123816E+01  0.51100000000E-03 0.  1.
        -12    1    3    3    0    0  0.21837278715E+01 -0.47333604852E+01  0.22299766237E+01  0.56697587816E+01  0.00000000000E+00 0.  1.
</event>
<event>
 7    1  0.2945316E-011  0.5052886E+02  0.7816164E-02  0.1300439E+00
        -11   -1    0    0    0    0  0.00000000000E+00  0.00000000000E+00  0.45593999997E+02  0.45594000000E+02  0.51100000000E-03 0. -1.
         11   -1    0    0    0    0 -0.00000000000E+00 -0.00000000000E+00 -0.45593999997E+02  0.45594000000E+02  0.51100000000E-03 0.  1.
    9900012    2    1    2    0    0  0.17345644094E+02 -0.28067941598E+02  0.23758899223E+02  0.50528855803E+02  0.29999987698E+02 0.  0.
        -12    1    1    2    0    0 -0.17345644094E+02  0.28067941598E+02 -0.23758899223E+02  0.40659144197E+02  0.00000000000E+00 0.  1.
         11    1    3    3    0    0 -0.41266867819E+00  0.29617121178E+01  0.50424387259E+00  0.30325395712E+01  0.51100000000E-03 0. -1.
        -11    1    3    3    0    0 -0.86035002774E+00 -0.11428383198E+02 -0.55171561952E+00  0.11473993859E+02  0.51100000000E-03 0.  1.
         12    1    3    3    0    0  0.18618662800E+02 -0.19601270518E+02  0.23806370970E+02  0.36022322372E+02  0.00000000000E+00 0. -1.
</event>
<event>
 7    1  0.2945316E-011  0.5052886E+02  0.7816164E-02  0.1300439E+00
        -11   -1    0    0    0    0  0.00000000000E+00  0.00000000000E+00  0.45593999997E+02  0.45594000000E+02  0.51100000000E-03 0.  1.
         11   -1    0    0    0    0 -0.00000000000E+00 -0.00000000000E+00 -0.45593999997E+02  0.45594000000E+02  0.51100000000E-03 0. -1.
    9900012    2    1    2    0    0 -0.29247032429E+02 -0.28226257751E+02 -0.10271031379E+01  0.50528862363E+02  0.30000007639E+02 0.  0.
        -12    1    1    2    0    0  0.29247032429E+02  0.28226257751E+02  0.10271031379E+01  0.40659137637E+02  0.00000000000E+00 0.  1.
         11    1    3    3    0    0 -0.16233226026E+02 -0.10745174757E+02  0.14846427437E+01  0.19523846243E+02  0.51100000000E-03 0.  1.
        -11    1    3    3    0    0 -0.17914290511E+02 -0.15072424007E+02  0.25618845529E+01  0.23551284948E+02  0.51100000000E-03 0. -1.
         12    1    3    3    0    0  0.49004841084E+01 -0.24086589874E+01 -0.50736304345E+01  0.74537311730E+01  0.00000000000E+00 0. -1.
</event>
<event>
 7    1  0.2945316E-011  0.5052887E+02  0.7816164E-02  0.1300439E+00
        -11   -1    0    0    0    0  0.00000000000E+00  0.00000000000E+00  0.45593999997E+02  0.45594000000E+02  0.51100000000E-03 0.  1.
         11   -1    0    0    0    0 -0.00000000000E+00 -0.00000000000E+00 -0.45593999997E+02  0.45594000000E+02  0.51100000000E-03 0. -1.
    9900012    2    1    2    0    0 -0.34421158144E+02 -0.21454138628E+02  0.28405976752E+01  0.50528865880E+02  0.30000018327E+02 0.  0.
        -12    1    1    2    0    0  0.34421158144E+02  0.21454138628E+02 -0.28405976752E+01  0.40659134120E+02  0.00000000000E+00 0.  1.
         11    1    3    3    0    0 -0.27245403636E+02 -0.18444334116E+02  0.82946853414E+00  0.32911905119E+02  0.51100000000E-03 0. -1.
        -11    1    3    3    0    0 -0.18884933744E+01 -0.26369377335E+01  0.85821882748E+01  0.91746282585E+01  0.51100000000E-03 0.  1.
        -12    1    3    3    0    0 -0.52872611337E+01 -0.37286677897E+00 -0.65710591337E+01  0.84423325017E+01  0.00000000000E+00 0.  1.
</event>
<event>
 7    1  0.2945316E-011  0.5052886E+02  0.7816164E-02  0.1300439E+00
        -11   -1    0    0    0    0  0.00000000000E+00  0.00000000000E+00  0.45593999997E+02  0.45594000000E+02  0.51100000000E-03 0.  1.
         11   -1    0    0    0    0 -0.00000000000E+00 -0.00000000000E+00 -0.45593999997E+02  0.45594000000E+02  0.51100000000E-03 0. -1.
    9900012    2    1    2    0    0  0.18649126410E+02 -0.35790182836E+02  0.49435483348E+01  0.50528858674E+02  0.29999996424E+02 0.  0.
        -12    1    1    2    0    0 -0.18649126410E+02  0.35790182836E+02 -0.49435483348E+01  0.40659141326E+02  0.00000000000E+00 0.  1.
         11    1    3    3    0    0  0.10474493226E+00 -0.38417068538E+00  0.28541433368E+01  0.28817864363E+01  0.51100000000E-03 0. -1.
        -11    1    3    3    0    0  0.14553267926E+02 -0.16648947289E+02  0.12932307241E+02  0.25616979213E+02  0.51100000000E-03 0.  1.
         12    1    3    3    0    0  0.39911135515E+01 -0.18757064862E+02 -0.10842902243E+02  0.22030093025E+02  0.00000000000E+00 0. -1.
</event>
<event>
 7    1  0.2945316E-011  0.5052886E+02  0.7816164E-02  0.1300439E+00
        -11   -1    0    0    0    0  0.00000000000E+00  0.00000000000E+00  0.45593999997E+02  0.45594000000E+02  0.51100000000E-03 0. -1.
         11   -1    0    0    0    0 -0.00000000000E+00 -0.00000000000E+00 -0.45593999997E+02  0.45594000000E+02  0.51100000000E-03 0.  1.
    9900012    2    1    2    0    0  0.26640365675E+02  0.88900034924E+01  0.29401094052E+02  0.50528861090E+02  0.30000003770E+02 0.  0.
        -12    1    1    2    0    0 -0.26640365675E+02 -0.88900034924E+01 -0.29401094052E+02  0.40659138910E+02  0.00000000000E+00 0.  1.
         11    1    3    3    0    0  0.46669068744E+01 -0.22383829833E+01 -0.76718675762E+00  0.52324902233E+01  0.51100000000E-03 0. -1.
        -11    1    3    3    0    0  0.10293995281E+02 -0.38228411229E+01  0.17389047200E+01  0.11117744510E+02  0.51100000000E-03 0.  1.
         12    1    3    3    0    0  0.11679463520E+02  0.14951227599E+02  0.28429376090E+02  0.34178626357E+02  0.00000000000E+00 0. -1.
</event>
<event>
 7    1  0.2945316E-011  0.5052885E+02  0.7816164E-02  0.1300439E+00
        -11   -1    0    0    0    0  0.00000000000E+00  0.00000000000E+00  0.45593999997E+02  0.45594000000E+02  0.51100000000E-03 0.  1.
         11   -1    0    0    0    0 -0.00000000000E+00 -0.00000000000E+00 -0.45593999997E+02  0.45594000000E+02  0.51100000000E-03 0. -1.
    9900012    2    1    2    0    0  0.34099404620E+02 -0.14396883641E+02  0.16826379973E+02  0.50528847070E+02  0.29999961153E+02 0.  0.
        -12    1    1    2    0    0 -0.34099404620E+02  0.14396883641E+02 -0.16826379973E+02  0.40659152930E+02  0.00000000000E+00 0.  1.
         11    1    3    3    0    0  0.61628478438E+01 -0.11032171732E+02  0.48441893591E+00  0.12646112787E+02  0.51100000000E-03 0. -1.
        -11    1    3    3    0    0  0.17962887922E+02 -0.32139406551E+00 -0.61478165466E+00  0.17976278631E+02  0.51100000000E-03 0.  1.
        -12    1    3    3    0    0  0.99736688538E+01 -0.30433178436E+01  0.16956742692E+02  0.19906455652E+02  0.00000000000E+00 0.  1.
</event>
<event>
 7    1  0.2945316E-011  0.5052883E+02  0.7816164E-02  0.1300439E+00
        -11   -1    0    0    0    0  0.00000000000E+00  0.00000000000E+00  0.45593999997E+02  0.45594000000E+02  0.51100000000E-03 0.  1.
         11   -1    0    0    0    0 -0.00000000000E+00 -0.00000000000E+00 -0.45593999997E+02  0.45594000000E+02  0.51100000000E-03 0. -1.
    9900012    2    1    2    0    0 -0.13625871917E+02 -0.38241969870E+02 -0.22483981302E+01  0.50528832040E+02  0.29999915467E+02 0.  0.
        -12    1    1    2    0    0  0.13625871917E+02  0.38241969870E+02  0.22483981302E+01  0.40659167960E+02  0.00000000000E+00 0.  1.
         11    1    3    3    0    0 -0.32199738026E+01 -0.66780947190E+01  0.80096765848E+01  0.10914215483E+02  0.51100000000E-03 0. -1.
        -11    1    3    3    0    0 -0.77109524953E+00  0.83057270266E+00  0.30792905283E+01  0.32812298483E+01  0.51100000000E-03 0.  1.
         12    1    3    3    0    0 -0.96348028653E+01 -0.32394447854E+02 -0.13337365243E+02  0.36333386708E+02  0.00000000000E+00 0. -1.
</event>
<event>
 7    1  0.2945316E-011  0.5052884E+02  0.7816164E-02  0.1300439E+00
        -11   -1    0    0    0    0  0.00000000000E+00  0.00000000000E+00  0.45593999997E+02  0.45594000000E+02  0.51100000000E-03 0.  1.
         11   -1    0    0    0    0 -0.00000000000E+00 -0.00000000000E+00 -0.45593999997E+02  0.45594000000E+02  0.51100000000E-03 0. -1.
    9900012    2    1    2    0    0 -0.61909329181E+01  0.48674304792E+01 -0.39889189404E+02  0.50528844067E+02  0.29999952025E+02 0.  0.
        -12    1    1    2    0    0  0.61909329181E+01 -0.48674304792E+01  0.39889189404E+02  0.40659155933E+02  0.00000000000E+00 0.  1.
         11    1    3    3    0    0 -0.35888572984E+01  0.42386614091E+01 -0.37105206720E+02  0.37518562249E+02  0.51100000000E-03 0. -1.
        -11    1    3    3    0    0 -0.48003231220E+01 -0.67489814274E+00 -0.67389914499E+01  0.83013610692E+01  0.51100000000E-03 0.  1.
         12    1    3    3    0    0  0.21982475023E+01  0.13036672128E+01  0.39550087653E+01  0.47089207487E+01  0.00000000000E+00 0. -1.
</event>
<event>
 7    1  0.2945316E-011  0.5052887E+02  0.7816164E-02  0.1300439E+00
        -11   -1    0    0    0    0  0.00000000000E+00  0.00000000000E+00  0.45593999997E+02  0.45594000000E+02  0.51100000000E-03 0.  1.
         11   -1    0    0    0    0 -0.00000000000E+00 -0.00000000000E+00 -0.45593999997E+02  0.45594000000E+02  0.51100000000E-03 0. -1.
    9900012    2    1    2    0    0  0.10631837769E+02  0.13628103323E+02 -0.36802229171E+02  0.50528865153E+02  0.30000016119E+02 0.  0.
        -12    1    1    2    0    0 -0.10631837769E+02 -0.13628103323E+02  0.36802229171E+02  0.40659134847E+02  0.00000000000E+00 0.  1.
         11    1    3    3    0    0  0.17495207044E+01 -0.62746885982E+01 -0.63044969712E+01  0.90652756175E+01  0.51100000000E-03 0. -1.
        -11    1    3    3    0    0  0.11255455824E+02  0.39240274445E+01 -0.13671786005E+02  0.18138384989E+02  0.51100000000E-03 0.  1.
        -12    1    3    3    0    0 -0.23731387593E+01  0.15978764477E+02 -0.16825946195E+02  0.23325204547E+02  0.00000000000E+00 0.  1.
</event>
<event>
 7    1  0.2945316E-011  0.5052886E+02  0.7816164E-02  0.1300439E+00
        -11   -1    0    0    0    0  0.00000000000E+00  0.00000000000E+00  0.45593999997E+02  0.45594000000E+02  0.51100000000E-03 0. -1.
         11   -1    0    0    0    0 -0.00000000000E+00 -0.00000000000E+00 -0.45593999997E+02  0.45594000000E+02  0.51100000000E-03 0.  1.
    9900012    2    1    2    0    0  0.12767578873E+02  0.32294217683E+02  0.21148011112E+02  0.50528856624E+02  0.29999990196E+02 0.  0.
        -12    1    1    2    0    0 -0.12767578873E+02 -0.32294217683E+02 -0.21148011112E+02  0.40659143376E+02  0.00000000000E+00 0.  1.
         11    1    3    3    0    0 -0.61108112395E+01  0.29259499317E+01 -0.26536100725E+01  0.72763207520E+01  0.51100000000E-03 0. -1.
        -11    1    3    3    0    0  0.93065214272E+00  0.56110915538E+01  0.10581290566E+01  0.57853348388E+01  0.51100000000E-03 0.  1.
        -12    1    3    3    0    0  0.17947737970E+02  0.23757176198E+02  0.22743492128E+02  0.37467201034E+02  0.00000000000E+00 0.  1.
</event>
<event>
 7    1  0.2945316E-011  0.5052886E+02  0.7816164E-02  0.1300439E+00
        -11   -1    0    0    0    0  0.00000000000E+00  0.00000000000E+00  0.45593999997E+02  0.45594000000E+02  0.51100000000E-03 0.  1.
         11   -1    0    0    0    0 -0.00000000000E+00 -0.00000000000E+00 -0.45593999997E+02  0.45594000000E+02  0.51100000000E-03 0. -1.
    9900012    2    1    2    0    0 -0.39605396178E+02 -0.40345215787E+00 -0.91877923891E+01  0.50528859465E+02  0.29999998829E+02 0.  0.
        -12    1    1    2    0    0  0.39605396178E+02  0.40345215787E+00  0.91877923891E+01  0.40659140535E+02  0.00000000000E+00 0.  1.
         11    1    3    3    0    0  0.22971252837E+01  0.15336250392E+00 -0.72272555410E+00  0.24130141140E+01  0.51100000000E-03 0.  1.
        -11    1    3    3    0    0 -0.30062385330E+02 -0.80495217943E+01  0.11162556771E+01  0.31141416792E+02  0.51100000000E-03 0. -1.
         12    1    3    3    0    0 -0.11840136132E+02  0.74927071325E+01 -0.95813225121E+01  0.16974428558E+02  0.00000000000E+00 0. -1.
</event>
<event>
 7    1  0.2945316E-011  0.5052886E+02  0.7816164E-02  0.1300439E+00
        -11   -1    0    0    0    0  0.00000000000E+00  0.00000000000E+00  0.45593999997E+02  0.45594000000E+02  0.51100000000E-03 0.  1.
         11   -1    0    0    0    0 -0.00000000000E+00 -0.00000000000E+00 -0.45593999997E+02  0.45594000000E+02  0.51100000000E-03 0. -1.
    9900012    2    1    2    0    0 -0.33305505015E+02  0.82925952152E+01 -0.21797748962E+02  0.50528860074E+02  0.30000000682E+02 0.  0.
        -12    1    1    2    0    0  0.33305505015E+02 -0.82925952152E+01  0.21797748962E+02  0.40659139926E+02  0.00000000000E+00 0.  1.
         11    1    3    3    0    0 -0.18818799521E+02 -0.99097101347E+00 -0.22677550180E+02  0.29485598542E+02  0.51100000000E-03 0. -1.
        -11    1    3    3    0    0 -0.63884815290E+01  0.51321638853E+01 -0.55530463515E+01  0.98988952129E+01  0.51100000000E-03 0.  1.
         12    1    3    3    0    0 -0.80982239646E+01  0.41514023434E+01  0.64328475697E+01  0.11144366319E+02  0.00000000000E+00 0. -1.
</event>
<event>
 7    1  0.2945316E-011  0.5052882E+02  0.7816164E-02  0.1300439E+00
        -11   -1    0    0    0    0  0.00000000000E+00  0.00000000000E+00  0.45593999997E+02  0.45594000000E+02  0.51100000000E-03 0. -1.
         11   -1    0    0    0    0 -0.00000000000E+00 -0.00000000000E+00 -0.45593999997E+02  0.45594000000E+02  0.51100000000E-03 0.  1.
    9900012    2    1    2    0    0  0.17414128579E+01 -0.30568818448E+02  0.26752270922E+02  0.50528816787E+02  0.29999869107E+02 0.  0.
        -12    1    1    2    0    0 -0.17414128579E+01  0.30568818448E+02 -0.26752270922E+02  0.40659183213E+02  0.00000000000E+00 0.  1.
         11    1    3    3    0    0  0.18328900518E+01 -0.88542611816E+01 -0.33659391639E+00  0.90482441799E+01  0.51100000000E-03 0. -1.
        -11    1    3    3    0    0 -0.87799755349E+01 -0.13301348847E+01  0.10782586730E+02  0.13968586401E+02  0.51100000000E-03 0.  1.
         12    1    3    3    0    0  0.86884983410E+01 -0.20384422382E+02  0.16306278108E+02  0.27511986206E+02  0.00000000000E+00 0. -1.
</event>
<event>
 7    1  0.2945316E-011  0.5052886E+02  0.7816164E-02  0.1300439E+00
        -11   -1    0    0    0    0  0.00000000000E+00  0.00000000000E+00  0.45593999997E+02  0.45594000000E+02  0.51100000000E-03 0.  1.
         11   -1    0    0    0    0 -0.00000000000E+00 -0.00000000000E+00 -0.45593999997E+02  0.45594000000E+02  0.51100000000E-03 0. -1.
    9900012    2    1    2    0    0 -0.33609197589E+02  0.22847290964E+02  0.12603983691E+01  0.50528862392E+02  0.30000007728E+02 0.  0.
        -12    1    1    2    0    0  0.33609197589E+02 -0.22847290964E+02 -0.12603983691E+01  0.40659137608E+02  0.00000000000E+00 0.  1.
         11    1    3    3    0    0 -0.91174822836E+01  0.11876006448E+02  0.80998272184E+01  0.17022785130E+02  0.51100000000E-03 0. -1.
        -11    1    3    3    0    0 -0.88738066010E+01 -0.32841761937E+01  0.33447060272E+01  0.10035801689E+02  0.51100000000E-03 0.  1.
         12    1    3    3    0    0 -0.15617908704E+02  0.14255460710E+02 -0.10184134876E+02  0.23470275574E+02  0.00000000000E+00 0. -1.
</event>
<event>
 7    1  0.2945316E-011  0.5052883E+02  0.7816164E-02  0.1300439E+00
        -11   -1    0    0    0    0  0.00000000000E+00  0.00000000000E+00  0.45593999997E+02  0.45594000000E+02  0.51100000000E-03 0.  1.
         11   -1    0    0    0    0 -0.00000000000E+00 -0.00000000000E+00 -0.45593999997E+02  0.45594000000E+02  0.51100000000E-03 0. -1.
    9900012    2    1    2    0    0 -0.37344712227E+02 -0.36773389983E+01 -0.15653048461E+02  0.50528827855E+02  0.29999902747E+02 0.  0.
        -12    1    1    2    0    0  0.37344712227E+02  0.36773389983E+01  0.15653048461E+02  0.40659172145E+02  0.00000000000E+00 0.  1.
         11    1    3    3    0    0 -0.29751270085E+02 -0.73018690202E+01 -0.89145753086E+01  0.31904937174E+02  0.51100000000E-03 0. -1.
        -11    1    3    3    0    0 -0.47125170074E+00 -0.53761434192E+01 -0.42749559072E+01  0.68847835477E+01  0.51100000000E-03 0.  1.
        -12    1    3    3    0    0 -0.71221904411E+01  0.90006734411E+01 -0.24635172448E+01  0.11739107133E+02  0.00000000000E+00 0.  1.
</event>
<event>
 7    1  0.2945316E-011  0.5052886E+02  0.7816164E-02  0.1300439E+00
        -11   -1    0    0    0    0  0.00000000000E+00  0.00000000000E+00  0.45593999997E+02  0.45594000000E+02  0.51100000000E-03 0.  1.
         11   -1    0    0    0    0 -0.00000000000E+00 -0.00000000000E+00 -0.45593999997E+02  0.45594000000E+02  0.51100000000E-03 0. -1.
    9900012    2    1    2    0    0  0.24108145876E+02 -0.52412448697E+01 -0.32318607305E+02  0.50528859287E+02  0.29999998289E+02 0.  0.
        -12    1    1    2    0    0 -0.24108145876E+02  0.52412448697E+01  0.32318607305E+02  0.40659140713E+02  0.00000000000E+00 0.  1.
         11    1    3    3    0    0 -0.31202183323E+01 -0.64057221085E+01 -0.97240166626E+01  0.12055104250E+02  0.51100000000E-03 0. -1.
        -11    1    3    3    0    0  0.11035591903E+02 -0.17240450794E+01 -0.84020404412E+00  0.11201007240E+02  0.51100000000E-03 0.  1.
        -12    1    3    3    0    0  0.16192772305E+02  0.28885223183E+01 -0.21754386599E+02  0.27272747797E+02  0.00000000000E+00 0.  1.
</event>
<event>
 7    1  0.2945316E-011  0.5052886E+02  0.7816164E-02  0.1300439E+00
        -11   -1    0    0    0    0  0.00000000000E+00  0.00000000000E+00  0.45593999997E+02  0.45594000000E+02  0.51100000000E-03 0. -1.
         11   -1    0    0    0    0 -0.00000000000E+00 -0.00000000000E+00 -0.45593999997E+02  0.45594000000E+02  0.51100000000E-03 0.  1.
    9900012    2    1    2    0    0  0.57261801879E+01  0.26585602947E+02  0.30225522380E+02  0.50528860477E+02  0.30000001906E+02 0.  0.
        -12    1    1    2    0    0 -0.57261801879E+01 -0.26585602947E+02 -0.30225522380E+02  0.40659139523E+02  0.00000000000E+00 0.  1.
         11    1    3    3    0    0 -0.28163245222E+00  0.20381924495E+02  0.14532559655E+02  0.25033926048E+02  0.51100000000E-03 0. -1.
        -11    1    3    3    0    0 -0.55356814934E+01  0.77493803306E+00  0.43432560802E+00  0.56065084987E+01  0.51100000000E-03 0.  1.
        -12    1    3    3    0    0  0.11543494134E+02  0.54287404188E+01  0.15258637116E+02  0.19888425931E+02  0.00000000000E+00 0.  1.
</event>
<event>
 7    1  0.2945316E-011  0.5052888E+02  0.7816164E-02  0.1300439E+00
        -11   -1    0    0    0    0  0.00000000000E+00  0.00000000000E+00  0.45593999997E+02  0.45594000000E+02  0.51100000000E-03 0.  1.
         11   -1    0    0    0    0 -0.00000000000E+00 -0.00000000000E+00 -0.45593999997E+02  0.45594000000E+02  0.51100000000E-03 0. -1.
    9900012    2    1    2    0    0  0.28824565385E+02  0.18139355775E+02 -0.22209737313E+02  0.50528877664E+02  0.30000054149E+02 0.  0.
        -12    1    1    2    0    0 -0.28824565385E+02 -0.18139355775E+02  0.22209737313E+02  0.40659122336E+02  0.00000000000E+00 0.  1.
         11    1    3    3    0    0  0.15800276098E+02  0.15310169386E+02 -0.39372303894E+01  0.22350655355E+02  0.51100000000E-03 0. -1.
        -11    1    3    3    0    0  0.51368563211E+01  0.39789998152E+01  0.16640021531E+01  0.67073568431E+01  0.51100000000E-03 0.  1.
         12    1    3    3    0    0  0.78874329654E+01 -0.11498134257E+01 -0.19936509077E+02  0.21470865466E+02  0.00000000000E+00 0. -1.
</event>
<event>
 7    1  0.2945316E-011  0.5052888E+02  0.7816164E-02  0.1300439E+00
        -11   -1    0    0    0    0  0.00000000000E+00  0.00000000000E+00  0.45593999997E+02  0.45594000000E+02  0.51100000000E-03 0. -1.
         11   -1    0    0    0    0 -0.00000000000E+00 -0.00000000000E+00 -0.45593999997E+02  0.45594000000E+02  0.51100000000E-03 0.  1.
    9900012    2    1    2    0    0  0.21131102519E+02  0.30268954265E+02 -0.17042046146E+02  0.50528875282E+02  0.30000046907E+02 0.  0.
        -12    1    1    2    0    0 -0.21131102519E+02 -0.30268954265E+02  0.17042046146E+02  0.40659124718E+02  0.00000000000E+00 0.  1.
         11    1    3    3    0    0 -0.11473837543E+01  0.18010027819E+01 -0.51267262687E+01  0.55536855326E+01  0.51100000000E-03 0. -1.
        -11    1    3    3    0    0 -0.38580677293E+01 -0.76474108370E+00  0.18522072670E+00  0.39374893660E+01  0.51100000000E-03 0.  1.
         12    1    3    3    0    0  0.26136554003E+02  0.29232692567E+02 -0.12100540604E+02  0.41037700383E+02  0.00000000000E+00 0. -1.
</event>
<event>
 7    1  0.2945316E-011  0.5052886E+02  0.7816164E-02  0.1300439E+00
        -11   -1    0    0    0    0  0.00000000000E+00  0.00000000000E+00  0.45593999997E+02  0.45594000000E+02  0.51100000000E-03 0.  1.
         11   -1    0    0    0    0 -0.00000000000E+00 -0.00000000000E+00 -0.45593999997E+02  0.45594000000E+02  0.51100000000E-03 0. -1.
    9900012    2    1    2    0    0  0.13246661763E+02 -0.91574810964E+01 -0.37334056839E+02  0.50528864397E+02  0.30000013821E+02 0.  0.
        -12    1    1    2    0    0 -0.13246661763E+02  0.91574810964E+01  0.37334056839E+02  0.40659135603E+02  0.00000000000E+00 0.  1.
         11    1    3    3    0    0  0.19824160847E+01  0.18003919745E+01  0.39307378705E+01  0.47562679973E+01  0.51100000000E-03 0. -1.
        -11    1    3    3    0    0  0.12071878232E+01 -0.49946166455E+01 -0.34441959092E+01  0.61859505007E+01  0.51100000000E-03 0.  1.
         12    1    3    3    0    0  0.10057057855E+02 -0.59632564254E+01 -0.37820598801E+02  0.39586645899E+02  0.00000000000E+00 0. -1.
</event>
<event>
 7    1  0.2945316E-011  0.5052886E+02  0.7816164E-02  0.1300439E+00
        -11   -1    0    0    0    0  0.00000000000E+00  0.00000000000E+00  0.45593999997E+02  0.45594000000E+02  0.51100000000E-03 0. -1.
         11   -1    0    0    0    0 -0.00000000000E+00 -0.00000000000E+00 -0.45593999997E+02  0.45594000000E+02  0.51100000000E-03 0.  1.
    9900012    2    1    2    0    0 -0.98947775583E+01 -0.38856068269E+02  0.67427573707E+01  0.50528862759E+02  0.30000008841E+02 0.  0.
        -12    1    1    2    0    0  0.98947775583E+01  0.38856068269E+02 -0.67427573707E+01  0.40659137241E+02  0.00000000000E+00 0.  1.
         11    1    3    3    0    0 -0.37107453611E+01 -0.16986454319E+01  0.43320575558E+01  0.59516174579E+01  0.51100000000E-03 0. -1.
        -11    1    3    3    0    0 -0.53708928794E+01  0.14035828967E+01  0.22964090362E+01  0.60074978146E+01  0.51100000000E-03 0.  1.
         12    1    3    3    0    0 -0.81313931780E+00 -0.38561005734E+02  0.11429077871E+00  0.38569747486E+02  0.00000000000E+00 0. -1.
</event>
<event>
 7    1  0.2945316E-011  0.5052886E+02  0.7816164E-02  0.1300439E+00
        -11   -1    0    0    0    0  0.00000000000E+00  0.00000000000E+00  0.45593999997E+02  0.45594000000E+02  0.51100000000E-03 0. -1.
         11   -1    0    0    0    0 -0.00000000000E+00 -0.00000000000E+00 -0.45593999997E+02  0.45594000000E+02  0.51100000000E-03 0.  1.
    9900012    2    1    2    0    0 -0.14648078972E+01 -0.34317947673E+02  0.21755429048E+02  0.50528857267E+02  0.29999992150E+02 0.  0.
        -12    1    1    2    0    0  0.14648078972E+01  0.34317947673E+02 -0.21755429048E+02  0.40659142733E+02  0.00000000000E+00 0.  1.
         11    1    3    3    0    0 -0.55728983453E+00 -0.28310937138E+02  0.17201479422E+02  0.33131716348E+02  0.51100000000E-03 0. -1.
        -11    1    3    3    0    0  0.41341927608E+01 -0.64418813512E+01 -0.30695962788E+01  0.82469271066E+01  0.51100000000E-03 0.  1.
         12    1    3    3    0    0 -0.50417108235E+01  0.43487081585E+00  0.76235459046E+01  0.91502138124E+01  0.00000000000E+00 0. -1.
</event>
<event>
 7    1  0.2945316E-011  0.5052886E+02  0.7816164E-02  0.1300439E+00
        -11   -1    0    0    0    0  0.00000000000E+00  0.00000000000E+00  0.45593999997E+02  0.45594000000E+02  0.51100000000E-03 0.  1.
         11   -1    0    0    0    0 -0.00000000000E+00 -0.00000000000E+00 -0.45593999997E+02  0.45594000000E+02  0.51100000000E-03 0. -1.
    9900012    2    1    2    0    0 -0.22664857467E+02 -0.13755502045E+02 -0.30826224201E+02  0.50528859589E+02  0.29999999205E+02 0.  0.
        -12    1    1    2    0    0  0.22664857467E+02  0.13755502045E+02  0.30826224201E+02  0.40659140411E+02  0.00000000000E+00 0.  1.
         11    1    3    3    0    0 -0.72664040543E+01  0.45720908415E+01 -0.88783265045E+00  0.86309263477E+01  0.51100000000E-03 0. -1.
        -11    1    3    3    0    0 -0.11392820240E+02 -0.91986548175E+00 -0.10962509685E+02  0.15837270105E+02  0.51100000000E-03 0.  1.
         12    1    3    3    0    0 -0.40056331728E+01 -0.17407727405E+02 -0.18975881865E+02  0.26060663136E+02  0.00000000000E+00 0. -1.
</event>
<event>
 7    1  0.2945316E-011  0.5052885E+02  0.7816164E-02  0.1300439E+00
        -11   -1    0    0    0    0  0.00000000000E+00  0.00000000000E+00  0.45593999997E+02  0.45594000000E+02  0.51100000000E-03 0.  1.
         11   -1    0    0    0    0 -0.00000000000E+00 -0.00000000000E+00 -0.45593999997E+02  0.45594000000E+02  0.51100000000E-03 0. -1.
    9900012    2    1    2    0    0 -0.19972136880E+01  0.36413726793E+02 -0.17978270742E+02  0.50528848751E+02  0.29999966262E+02 0.  0.
        -12    1    1    2    0    0  0.19972136880E+01 -0.36413726793E+02  0.17978270742E+02  0.40659151249E+02  0.00000000000E+00 0.  1.
         11    1    3    3    0    0 -0.59265620624E+00  0.54684162135E+01  0.50231998201E+01  0.74489834177E+01  0.51100000000E-03 0. -1.
        -11    1    3    3    0    0 -0.14106256797E+01 -0.67445417206E+00 -0.78740383754E+01  0.80277788857E+01  0.51100000000E-03 0.  1.
         12    1    3    3    0    0  0.60681979780E-02  0.31619764751E+02 -0.15127432187E+02  0.35052086447E+02  0.00000000000E+00 0. -1.
</event>
<event>
 7    1  0.2945316E-011  0.5052887E+02  0.7816164E-02  0.1300439E+00
        -11   -1    0    0    0    0  0.00000000000E+00  0.00000000000E+00  0.45593999997E+02  0.45594000000E+02  0.51100000000E-03 0.  1.
         11   -1    0    0    0    0 -0.00000000000E+00 -0.00000000000E+00 -0.45593999997E+02  0.45594000000E+02  0.51100000000E-03 0. -1.
    9900012    2    1    2    0    0 -0.11089335942E+02  0.15603690119E+02 -0.35870828418E+02  0.50528870049E+02  0.30000031001E+02 0.  0.
        -12    1    1    2    0    0  0.11089335942E+02 -0.15603690119E+02  0.35870828418E+02  0.40659129951E+02  0.00000000000E+00 0.  1.
         11    1    3    3    0    0 -0.25577277656E+01  0.87662534398E+00  0.11362428392E+00  0.27061696280E+01  0.51100000000E-03 0. -1.
        -11    1    3    3    0    0  0.53394119303E+01 -0.46586930082E+01 -0.47475210705E+01  0.85294605270E+01  0.51100000000E-03 0.  1.
         12    1    3    3    0    0 -0.13871020107E+02  0.19385757783E+02 -0.31236931631E+02  0.39293239894E+02  0.00000000000E+00 0. -1.
</event>
<event>
 7    1  0.2945316E-011  0.5052886E+02  0.7816164E-02  0.1300439E+00
        -11   -1    0    0    0    0  0.00000000000E+00  0.00000000000E+00  0.45593999997E+02  0.45594000000E+02  0.51100000000E-03 0.  1.
         11   -1    0    0    0    0 -0.00000000000E+00 -0.00000000000E+00 -0.45593999997E+02  0.45594000000E+02  0.51100000000E-03 0. -1.
    9900012    2    1    2    0    0  0.21598450735E+02  0.30326073471E+02 -0.16340188227E+02  0.50528861327E+02  0.30000004490E+02 0.  0.
        -12    1    1    2    0    0 -0.21598450735E+02 -0.30326073471E+02  0.16340188227E+02  0.40659138673E+02  0.00000000000E+00 0.  1.
         11    1    3    3    0    0  0.31910008814E+01  0.44251116249E+01 -0.74201631500E+01  0.92099359906E+01  0.51100000000E-03 0. -1.
        -11    1    3    3    0    0  0.13585544814E+02  0.52088628798E+01 -0.13200331737E+02  0.19645560278E+02  0.51100000000E-03 0.  1.
        -12    1    3    3    0    0  0.48219050393E+01  0.20692098967E+02  0.42803066602E+01  0.21673365059E+02  0.00000000000E+00 0.  1.
</event>
<event>
 7    1  0.2945316E-011  0.5052886E+02  0.7816164E-02  0.1300439E+00
        -11   -1    0    0    0    0  0.00000000000E+00  0.00000000000E+00  0.45593999997E+02  0.45594000000E+02  0.51100000000E-03 0.  1.
         11   -1    0    0    0    0 -0.00000000000E+00 -0.00000000000E+00 -0.45593999997E+02  0.45594000000E+02  0.51100000000E-03 0. -1.
    9900012    2    1    2    0    0 -0.22038028778E+02  0.21308012826E+02 -0.26710665120E+02  0.50528858910E+02  0.29999997143E+02 0.  0.
        -12    1    1    2    0    0  0.22038028778E+02 -0.21308012826E+02  0.26710665120E+02  0.40659141090E+02  0.00000000000E+00 0.  1.
         11    1    3    3    0    0  0.25301226139E+01  0.81364131123E+01 -0.22187100108E+01  0.88048516824E+01  0.51100000000E-03 0. -1.
        -11    1    3    3    0    0 -0.44109702266E+01  0.12702335773E+02 -0.77736736061E+01  0.15531773692E+02  0.51100000000E-03 0.  1.
        -12    1    3    3    0    0 -0.20157181166E+02  0.46926394111E+00 -0.16718281503E+02  0.26192233536E+02  0.00000000000E+00 0.  1.
</event>
<event>
 7    1  0.2945316E-011  0.5052886E+02  0.7816164E-02  0.1300439E+00
        -11   -1    0    0    0    0  0.00000000000E+00  0.00000000000E+00  0.45593999997E+02  0.45594000000E+02  0.51100000000E-03 0. -1.
         11   -1    0    0    0    0 -0.00000000000E+00 -0.00000000000E+00 -0.45593999997E+02  0.45594000000E+02  0.51100000000E-03 0.  1.
    9900012    2    1    2    0    0  0.70101137049E+01  0.38326811975E+01  0.39866459384E+02  0.50528859291E+02  0.29999998302E+02 0.  0.
        -12    1    1    2    0    0 -0.70101137049E+01 -0.38326811975E+01 -0.39866459384E+02  0.40659140709E+02  0.00000000000E+00 0.  1.
         11    1    3    3    0    0  0.37835910340E+01  0.66247583334E+01  0.11289154648E+02  0.13625270530E+02  0.51100000000E-03 0. -1.
        -11    1    3    3    0    0 -0.85736859390E+01  0.16455425315E+01  0.19510863097E+02  0.21374977891E+02  0.51100000000E-03 0.  1.
        -12    1    3    3    0    0  0.11800208610E+02 -0.44376196674E+01  0.90664416389E+01  0.15528610870E+02  0.00000000000E+00 0.  1.
</event>
<event>
 7    1  0.2945316E-011  0.5052885E+02  0.7816164E-02  0.1300439E+00
        -11   -1    0    0    0    0  0.00000000000E+00  0.00000000000E+00  0.45593999997E+02  0.45594000000E+02  0.51100000000E-03 0. -1.
         11   -1    0    0    0    0 -0.00000000000E+00 -0.00000000000E+00 -0.45593999997E+02  0.45594000000E+02  0.51100000000E-03 0.  1.
    9900012    2    1    2    0    0  0.19577944895E+02 -0.21794583103E+01  0.35568528854E+02  0.50528853308E+02  0.29999980116E+02 0.  0.
        -12    1    1    2    0    0 -0.19577944895E+02  0.21794583103E+01 -0.35568528854E+02  0.40659146692E+02  0.00000000000E+00 0.  1.
         11    1    3    3    0    0  0.66173645302E+01 -0.12448774397E+01  0.16648430221E+02  0.17958548445E+02  0.51100000000E-03 0. -1.
        -11    1    3    3    0    0  0.16059505600E+02 -0.77586646821E+01  0.17411565887E+02  0.24925232691E+02  0.51100000000E-03 0.  1.
        -12    1    3    3    0    0 -0.30989252356E+01  0.68240838115E+01  0.15085327463E+01  0.76450721729E+01  0.00000000000E+00 0.  1.
</event>
<event>
 7    1  0.2945316E-011  0.5052889E+02  0.7816164E-02  0.1300439E+00
        -11   -1    0    0    0    0  0.00000000000E+00  0.00000000000E+00  0.45593999997E+02  0.45594000000E+02  0.51100000000E-03 0. -1.
         11   -1    0    0    0    0 -0.00000000000E+00 -0.00000000000E+00 -0.45593999997E+02  0.45594000000E+02  0.51100000000E-03 0.  1.
    9900012    2    1    2    0    0  0.34961292360E+01 -0.40076145501E+02  0.59028146109E+01  0.50528885669E+02  0.30000078479E+02 0.  0.
        -12    1    1    2    0    0 -0.34961292360E+01  0.40076145501E+02 -0.59028146109E+01  0.40659114331E+02  0.00000000000E+00 0.  1.
         11    1    3    3    0    0 -0.14325051957E+01 -0.88652911885E+01 -0.47231797857E+01  0.10146619464E+02  0.51100000000E-03 0. -1.
        -11    1    3    3    0    0 -0.13035549640E+01 -0.20807418823E+02 -0.41598494649E+01  0.21259169350E+02  0.51100000000E-03 0.  1.
         12    1    3    3    0    0  0.62321893956E+01 -0.10403435490E+02  0.14785843862E+02  0.19123096856E+02  0.00000000000E+00 0. -1.
</event>
<event>
 7    1  0.2945316E-011  0.5052886E+02  0.7816164E-02  0.1300439E+00
        -11   -1    0    0    0    0  0.00000000000E+00  0.00000000000E+00  0.45593999997E+02  0.45594000000E+02  0.51100000000E-03 0. -1.
         11   -1    0    0    0    0 -0.00000000000E+00 -0.00000000000E+00 -0.45593999997E+02  0.45594000000E+02  0.51100000000E-03 0.  1.
    9900012    2    1    2    0    0 -0.92866457905E+01 -0.36679388578E+02  0.14884427297E+02  0.50528861882E+02  0.30000006178E+02 0.  0.
        -12    1    1    2    0    0  0.92866457905E+01  0.36679388578E+02 -0.14884427297E+02  0.40659138118E+02  0.00000000000E+00 0.  1.
         11    1    3    3    0    0  0.51351247638E+01 -0.59273699679E+01  0.69952927271E+01  0.10508917246E+02  0.51100000000E-03 0. -1.
        -11    1    3    3    0    0  0.15901911778E+01 -0.17136392947E+02  0.80532088358E+01  0.19001022184E+02  0.51100000000E-03 0.  1.
        -12    1    3    3    0    0 -0.16011961732E+02 -0.13615625663E+02 -0.16407426643E+00  0.21018922453E+02  0.00000000000E+00 0.  1.
</event>
<event>
 7    1  0.2945316E-011  0.5052885E+02  0.7816164E-02  0.1300439E+00
        -11   -1    0    0    0    0  0.00000000000E+00  0.00000000000E+00  0.45593999997E+02  0.45594000000E+02  0.51100000000E-03 0.  1.
         11   -1    0    0    0    0 -0.00000000000E+00 -0.00000000000E+00 -0.45593999997E+02  0.45594000000E+02  0.51100000000E-03 0. -1.
    9900012    2    1    2    0    0  0.24401877712E+01 -0.56268700406E+00 -0.40581955031E+02  0.50528853340E+02  0.29999980211E+02 0.  0.
        -12    1    1    2    0    0 -0.24401877712E+01  0.56268700406E+00  0.40581955031E+02  0.40659146660E+02  0.00000000000E+00 0.  1.
         11    1    3    3    0    0 -0.77962892299E+01 -0.29362509899E+01 -0.17155800176E+02  0.19071580311E+02  0.51100000000E-03 0. -1.
        -11    1    3    3    0    0 -0.85482005647E+00  0.82611287701E+01 -0.76292491717E+01  0.11277517859E+02  0.51100000000E-03 0.  1.
         12    1    3    3    0    0  0.11091297058E+02 -0.58875647843E+01 -0.15796905683E+02  0.20179755169E+02  0.00000000000E+00 0. -1.
</event>
<event>
 7    1  0.2945316E-011  0.5052887E+02  0.7816164E-02  0.1300439E+00
        -11   -1    0    0    0    0  0.00000000000E+00  0.00000000000E+00  0.45593999997E+02  0.45594000000E+02  0.51100000000E-03 0.  1.
         11   -1    0    0    0    0 -0.00000000000E+00 -0.00000000000E+00 -0.45593999997E+02  0.45594000000E+02  0.51100000000E-03 0. -1.
    9900012    2    1    2    0    0 -0.34005816834E+02 -0.21349538128E+02  0.64004765916E+01  0.50528874857E+02  0.30000045615E+02 0.  0.
        -12    1    1    2    0    0  0.34005816834E+02  0.21349538128E+02 -0.64004765916E+01  0.40659125143E+02  0.00000000000E+00 0.  1.
         11    1    3    3    0    0 -0.21775166110E+02 -0.19355121770E+02  0.32330052092E+01  0.29312640972E+02  0.51100000000E-03 0. -1.
        -11    1    3    3    0    0 -0.36814720014E+01 -0.91280500713E+01  0.16114419310E+01  0.99735289421E+01  0.51100000000E-03 0.  1.
        -12    1    3    3    0    0 -0.85491787222E+01  0.71336337127E+01  0.15560294514E+01  0.11242704943E+02  0.00000000000E+00 0.  1.
</event>
<event>
 7    1  0.2945316E-011  0.5052884E+02  0.7816164E-02  0.1300439E+00
        -11   -1    0    0    0    0  0.00000000000E+00  0.00000000000E+00  0.45593999997E+02  0.45594000000E+02  0.51100000000E-03 0.  1.
         11   -1    0    0    0    0 -0.00000000000E+00 -0.00000000000E+00 -0.45593999997E+02  0.45594000000E+02  0.51100000000E-03 0. -1.
    9900012    2    1    2    0    0  0.20449154217E+02 -0.22200700388E+02 -0.27242026035E+02  0.50528843733E+02  0.29999951010E+02 0.  0.
        -12    1    1    2    0    0 -0.20449154217E+02  0.22200700388E+02  0.27242026035E+02  0.40659156267E+02  0.00000000000E+00 0.  1.
         11    1    3    3    0    0  0.11123474458E+02 -0.98656883104E+01 -0.10718712331E+02  0.18329055735E+02  0.51100000000E-03 0. -1.
        -11    1    3    3    0    0  0.12842572619E+02 -0.13249017389E+02 -0.36316129957E+01  0.18805763649E+02  0.51100000000E-03 0.  1.
        -12    1    3    3    0    0 -0.35168928596E+01  0.91400531098E+00 -0.12891700708E+02  0.13394024348E+02  0.00000000000E+00 0.  1.
</event>
<event>
 7    1  0.2945316E-011  0.5052887E+02  0.7816164E-02  0.1300439E+00
        -11   -1    0    0    0    0  0.00000000000E+00  0.00000000000E+00  0.45593999997E+02  0.45594000000E+02  0.51100000000E-03 0.  1.
         11   -1    0    0    0    0 -0.00000000000E+00 -0.00000000000E+00 -0.45593999997E+02  0.45594000000E+02  0.51100000000E-03 0. -1.
    9900012    2    1    2    0    0  0.40334785957E+02  0.49403914696E+01  0.13648186791E+01  0.50528866265E+02  0.30000019498E+02 0.  0.
        -12    1    1    2    0    0 -0.40334785957E+02 -0.49403914696E+01 -0.13648186791E+01  0.40659133735E+02  0.00000000000E+00 0.  1.
         11    1    3    3    0    0 -0.13169931959E+01 -0.23024509474E+01  0.43098054418E+00  0.26872841186E+01  0.51100000000E-03 0. -1.
        -11    1    3    3    0    0 -0.18501528013E+01 -0.21640213871E+00  0.31385785110E+01  0.36497356897E+01  0.51100000000E-03 0.  1.
         12    1    3    3    0    0  0.43501931954E+02  0.74592445557E+01 -0.22047403760E+01  0.44191846456E+02  0.00000000000E+00 0. -1.
</event>
<event>
 7    1  0.2945316E-011  0.5052886E+02  0.7816164E-02  0.1300439E+00
        -11   -1    0    0    0    0  0.00000000000E+00  0.00000000000E+00  0.45593999997E+02  0.45594000000E+02  0.51100000000E-03 0.  1.
         11   -1    0    0    0    0 -0.00000000000E+00 -0.00000000000E+00 -0.45593999997E+02  0.45594000000E+02  0.51100000000E-03 0. -1.
    9900012    2    1    2    0    0  0.18212382877E+02 -0.39057450167E+01 -0.36141666123E+02  0.50528858785E+02  0.29999996762E+02 0.  0.
        -12    1    1    2    0    0 -0.18212382877E+02  0.39057450167E+01  0.36141666123E+02  0.40659141215E+02  0.00000000000E+00 0.  1.
         11    1    3    3    0    0  0.25862349875E+01  0.17896193212E+01  0.14849584411E+01  0.34779951923E+01  0.51100000000E-03 0. -1.
        -11    1    3    3    0    0 -0.93345218240E+00  0.63811636149E+01 -0.16022368957E+02  0.17271563025E+02  0.51100000000E-03 0.  1.
         12    1    3    3    0    0  0.16559600072E+02 -0.12076527953E+02 -0.21604255607E+02  0.29779300567E+02  0.00000000000E+00 0. -1.
</event>
<event>
 7    1  0.2945316E-011  0.5052885E+02  0.7816164E-02  0.1300439E+00
        -11   -1    0    0    0    0  0.00000000000E+00  0.00000000000E+00  0.45593999997E+02  0.45594000000E+02  0.51100000000E-03 0.  1.
         11   -1    0    0    0    0 -0.00000000000E+00 -0.00000000000E+00 -0.45593999997E+02  0.45594000000E+02  0.51100000000E-03 0. -1.
    9900012    2    1    2    0    0 -0.28193042420E+02 -0.28464292485E+02  0.69355994922E+01  0.50528854315E+02  0.29999983174E+02 0.  0.
        -12    1    1    2    0    0  0.28193042420E+02  0.28464292485E+02 -0.69355994922E+01  0.40659145685E+02  0.00000000000E+00 0.  1.
         11    1    3    3    0    0 -0.19652143898E+02 -0.28899106849E+02 -0.42152122179E+01  0.35201323140E+02  0.51100000000E-03 0. -1.
        -11    1    3    3    0    0  0.76332339273E+00 -0.38124986591E+00  0.10100434417E+00  0.85919508891E+00  0.51100000000E-03 0.  1.
        -12    1    3    3    0    0 -0.93042219146E+01  0.81606423077E+00  0.11049807366E+02  0.14468336086E+02  0.00000000000E+00 0.  1.
</event>
<event>
 7    1  0.2945316E-011  0.5052885E+02  0.7816164E-02  0.1300439E+00
        -11   -1    0    0    0    0  0.00000000000E+00  0.00000000000E+00  0.45593999997E+02  0.45594000000E+02  0.51100000000E-03 0.  1.
         11   -1    0    0    0    0 -0.00000000000E+00 -0.00000000000E+00 -0.45593999997E+02  0.45594000000E+02  0.51100000000E-03 0. -1.
    9900012    2    1    2    0    0  0.35663002150E+02  0.18964357310E+02  0.46550513391E+01  0.50528854983E+02  0.29999985206E+02 0.  0.
        -12    1    1    2    0    0 -0.35663002150E+02 -0.18964357310E+02 -0.46550513391E+01  0.40659145017E+02  0.00000000000E+00 0.  1.
         11    1    3    3    0    0  0.13102706716E+02  0.19338979331E+02  0.50298933561E+01  0.23895122354E+02  0.51100000000E-03 0. -1.
        -11    1    3    3    0    0 -0.15985262482E+01 -0.63607982655E+00 -0.17243582110E+01  0.24358356293E+01  0.51100000000E-03 0.  1.
         12    1    3    3    0    0  0.24158821682E+02  0.26145780526E+00  0.13495161940E+01  0.24197897000E+02  0.00000000000E+00 0. -1.
</event>
<event>
 7    1  0.2945316E-011  0.5052886E+02  0.7816164E-02  0.1300439E+00
        -11   -1    0    0    0    0  0.00000000000E+00  0.00000000000E+00  0.45593999997E+02  0.45594000000E+02  0.51100000000E-03 0. -1.
         11   -1    0    0    0    0 -0.00000000000E+00 -0.00000000000E+00 -0.45593999997E+02  0.45594000000E+02  0.51100000000E-03 0.  1.
    9900012    2    1    2    0    0 -0.30758691332E+02  0.20306231625E+02  0.17167571346E+02  0.50528860299E+02  0.30000001366E+02 0.  0.
        -12    1    1    2    0    0  0.30758691332E+02 -0.20306231625E+02 -0.17167571346E+02  0.40659139701E+02  0.00000000000E+00 0.  1.
         11    1    3    3    0    0 -0.45055235939E+01  0.12224772191E+01  0.69115673495E+00  0.47193104686E+01  0.51100000000E-03 0. -1.
        -11    1    3    3    0    0  0.33933431657E+01 -0.36798960746E+01  0.11318111668E+00  0.50069175334E+01  0.51100000000E-03 0.  1.
         12    1    3    3    0    0 -0.29646510904E+02  0.22763650480E+02  0.16363233494E+02  0.40802632297E+02  0.00000000000E+00 0. -1.
</event>
<event>
 7    1  0.2945316E-011  0.5052886E+02  0.7816164E-02  0.1300439E+00
        -11   -1    0    0    0    0  0.00000000000E+00  0.00000000000E+00  0.45593999997E+02  0.45594000000E+02  0.51100000000E-03 0.  1.
         11   -1    0    0    0    0 -0.00000000000E+00 -0.00000000000E+00 -0.45593999997E+02  0.45594000000E+02  0.51100000000E-03 0. -1.
    9900012    2    1    2    0    0  0.38406063348E+02  0.11119985656E+02 -0.73814351451E+01  0.50528863663E+02  0.30000011589E+02 0.  0.
        -12    1    1    2    0    0 -0.38406063348E+02 -0.11119985656E+02  0.73814351451E+01  0.40659136337E+02  0.00000000000E+00 0.  1.
         11    1    3    3    0    0  0.80320940202E+01  0.87592337516E+01 -0.20079894062E+01  0.12052830870E+02  0.51100000000E-03 0.  1.
        -11    1    3    3    0    0  0.63880866685E+01 -0.26032925174E+01 -0.11332978430E+02  0.13267297523E+02  0.51100000000E-03 0. -1.
         12    1    3    3    0    0  0.23985882660E+02  0.49640444217E+01  0.59595326910E+01  0.25208735269E+02  0.00000000000E+00 0. -1.
</event>
<event>
 7    1  0.2945316E-011  0.5052886E+02  0.7816164E-02  0.1300439E+00
        -11   -1    0    0    0    0  0.00000000000E+00  0.00000000000E+00  0.45593999997E+02  0.45594000000E+02  0.51100000000E-03 0.  1.
         11   -1    0    0    0    0 -0.00000000000E+00 -0.00000000000E+00 -0.45593999997E+02  0.45594000000E+02  0.51100000000E-03 0. -1.
    9900012    2    1    2    0    0  0.20876330759E+02  0.24312386916E+02 -0.25025031512E+02  0.50528861474E+02  0.30000004937E+02 0.  0.
        -12    1    1    2    0    0 -0.20876330759E+02 -0.24312386916E+02  0.25025031512E+02  0.40659138526E+02  0.00000000000E+00 0.  1.
         11    1    3    3    0    0  0.11168691402E+02  0.12697100563E+02 -0.72755831349E+01  0.18408969025E+02  0.51100000000E-03 0. -1.
        -11    1    3    3    0    0  0.44865837552E+01  0.15909874534E+02 -0.43211151982E+01  0.17085829752E+02  0.51100000000E-03 0.  1.
         12    1    3    3    0    0  0.52210556020E+01 -0.42945881819E+01 -0.13428333179E+02  0.15034062698E+02  0.00000000000E+00 0. -1.
</event>
<event>
 7    1  0.2945316E-011  0.5052884E+02  0.7816164E-02  0.1300439E+00
        -11   -1    0    0    0    0  0.00000000000E+00  0.00000000000E+00  0.45593999997E+02  0.45594000000E+02  0.51100000000E-03 0. -1.
         11   -1    0    0    0    0 -0.00000000000E+00 -0.00000000000E+00 -0.45593999997E+02  0.45594000000E+02  0.51100000000E-03 0.  1.
    9900012    2    1    2    0    0 -0.22812922680E+02  0.24456760945E+02  0.23121511867E+02  0.50528844719E+02  0.29999954007E+02 0.  0.
        -12    1    1    2    0    0  0.22812922680E+02 -0.24456760945E+02 -0.23121511867E+02  0.40659155281E+02  0.00000000000E+00 0.  1.
         11    1    3    3    0    0 -0.29015193688E+01 -0.28516641031E+01 -0.17324082458E+01  0.44217690346E+01  0.51100000000E-03 0. -1.
        -11    1    3    3    0    0 -0.67146696269E+01  0.78373738370E+01 -0.18887405908E+01  0.10491832926E+02  0.51100000000E-03 0.  1.
         12    1    3    3    0    0 -0.13196733685E+02  0.19471051211E+02  0.26742660704E+02  0.35615242758E+02  0.00000000000E+00 0. -1.
</event>
<event>
 7    1  0.2945316E-011  0.5052886E+02  0.7816164E-02  0.1300439E+00
        -11   -1    0    0    0    0  0.00000000000E+00  0.00000000000E+00  0.45593999997E+02  0.45594000000E+02  0.51100000000E-03 0. -1.
         11   -1    0    0    0    0 -0.00000000000E+00 -0.00000000000E+00 -0.45593999997E+02  0.45594000000E+02  0.51100000000E-03 0.  1.
    9900012    2    1    2    0    0 -0.17697575720E+02 -0.36416585669E+02 -0.37139718434E+01  0.50528862220E+02  0.30000007204E+02 0.  0.
        -12    1    1    2    0    0  0.17697575720E+02  0.36416585669E+02  0.37139718434E+01  0.40659137780E+02  0.00000000000E+00 0.  1.
         11    1    3    3    0    0 -0.70357637603E+01 -0.15385343076E+02  0.34335511509E+01  0.17262677285E+02  0.51100000000E-03 0. -1.
        -11    1    3    3    0    0  0.39395083637E+01 -0.34691266752E+01  0.51269999198E+01  0.73376218542E+01  0.51100000000E-03 0.  1.
        -12    1    3    3    0    0 -0.14601320323E+02 -0.17562115918E+02 -0.12274522914E+02  0.25928563081E+02  0.00000000000E+00 0.  1.
</event>
<event>
 7    1  0.2945316E-011  0.5052886E+02  0.7816164E-02  0.1300439E+00
        -11   -1    0    0    0    0  0.00000000000E+00  0.00000000000E+00  0.45593999997E+02  0.45594000000E+02  0.51100000000E-03 0.  1.
         11   -1    0    0    0    0 -0.00000000000E+00 -0.00000000000E+00 -0.45593999997E+02  0.45594000000E+02  0.51100000000E-03 0. -1.
    9900012    2    1    2    0    0  0.41945074772E+01  0.24468958827E+02 -0.32200028014E+02  0.50528860275E+02  0.30000001292E+02 0.  0.
        -12    1    1    2    0    0 -0.41945074772E+01 -0.24468958827E+02  0.32200028014E+02  0.40659139725E+02  0.00000000000E+00 0.  1.
         11    1    3    3    0    0 -0.61281670358E+01  0.10235878673E+02 -0.10604927079E+02  0.15962209184E+02  0.51100000000E-03 0. -1.
        -11    1    3    3    0    0  0.10245611404E+02  0.18582331310E+02 -0.12870682368E+02  0.24817938167E+02  0.51100000000E-03 0.  1.
         12    1    3    3    0    0  0.77063108538E-01 -0.43492511560E+01 -0.87244185676E+01  0.97487129245E+01  0.00000000000E+00 0. -1.
</event>
<event>
 7    1  0.2945316E-011  0.5052886E+02  0.7816164E-02  0.1300439E+00
        -11   -1    0    0    0    0  0.00000000000E+00  0.00000000000E+00  0.45593999997E+02  0.45594000000E+02  0.51100000000E-03 0.  1.
         11   -1    0    0    0    0 -0.00000000000E+00 -0.00000000000E+00 -0.45593999997E+02  0.45594000000E+02  0.51100000000E-03 0. -1.
    9900012    2    1    2    0    0 -0.19400778214E+02  0.22065354395E+02 -0.28105080843E+02  0.50528860449E+02  0.30000001820E+02 0.  0.
        -12    1    1    2    0    0  0.19400778214E+02 -0.22065354395E+02  0.28105080843E+02  0.40659139551E+02  0.00000000000E+00 0.  1.
         11    1    3    3    0    0 -0.37576965364E+01 -0.54891271076E+01 -0.30433783871E+01  0.73152547414E+01  0.51100000000E-03 0. -1.
        -11    1    3    3    0    0  0.61855796549E+00 -0.20518031612E+00 -0.55480408634E+01  0.55861856935E+01  0.51100000000E-03 0.  1.
         12    1    3    3    0    0 -0.16261639643E+02  0.27759661819E+02 -0.19513661592E+02  0.37627420014E+02  0.00000000000E+00 0. -1.
</event>
<event>
 7    1  0.2945316E-011  0.5052883E+02  0.7816164E-02  0.1300439E+00
        -11   -1    0    0    0    0  0.00000000000E+00  0.00000000000E+00  0.45593999997E+02  0.45594000000E+02  0.51100000000E-03 0.  1.
         11   -1    0    0    0    0 -0.00000000000E+00 -0.00000000000E+00 -0.45593999997E+02  0.45594000000E+02  0.51100000000E-03 0. -1.
    9900012    2    1    2    0    0 -0.22854346327E+02  0.30206886955E+02  0.14778054628E+02  0.50528830503E+02  0.29999910797E+02 0.  0.
        -12    1    1    2    0    0  0.22854346327E+02 -0.30206886955E+02 -0.14778054628E+02  0.40659169497E+02  0.00000000000E+00 0.  1.
         11    1    3    3    0    0 -0.22046638061E+02  0.26924302102E+02  0.11569667279E+02  0.36671916976E+02  0.51100000000E-03 0. -1.
        -11    1    3    3    0    0 -0.22823849074E+01  0.75586796435E+01  0.45829625246E+01  0.91294284915E+01  0.51100000000E-03 0.  1.
         12    1    3    3    0    0  0.14746766406E+01 -0.42760947904E+01 -0.13745751758E+01  0.47274850359E+01  0.00000000000E+00 0. -1.
</event>
<event>
 7    1  0.2945316E-011  0.5052885E+02  0.7816164E-02  0.1300439E+00
        -11   -1    0    0    0    0  0.00000000000E+00  0.00000000000E+00  0.45593999997E+02  0.45594000000E+02  0.51100000000E-03 0.  1.
         11   -1    0    0    0    0 -0.00000000000E+00 -0.00000000000E+00 -0.45593999997E+02  0.45594000000E+02  0.51100000000E-03 0. -1.
    9900012    2    1    2    0    0  0.15422938881E+02 -0.21196013306E+02 -0.31080996565E+02  0.50528851321E+02  0.29999974077E+02 0.  0.
        -12    1    1    2    0    0 -0.15422938881E+02  0.21196013306E+02  0.31080996565E+02  0.40659148679E+02  0.00000000000E+00 0.  1.
         11    1    3    3    0    0  0.94569270973E+00 -0.61350098426E+01 -0.13182520756E+02  0.14570913980E+02  0.51100000000E-03 0. -1.
        -11    1    3    3    0    0 -0.31262122043E+01 -0.12945659472E+02 -0.93668994336E+01  0.16281956491E+02  0.51100000000E-03 0.  1.
         12    1    3    3    0    0  0.17603458375E+02 -0.21153439912E+01 -0.85315763752E+01  0.19675980850E+02  0.00000000000E+00 0. -1.
</event>
<event>
 7    1  0.2945316E-011  0.5052887E+02  0.7816164E-02  0.1300439E+00
        -11   -1    0    0    0    0  0.00000000000E+00  0.00000000000E+00  0.45593999997E+02  0.45594000000E+02  0.51100000000E-03 0.  1.
         11   -1    0    0    0    0 -0.00000000000E+00 -0.00000000000E+00 -0.45593999997E+02  0.45594000000E+02  0.51100000000E-03 0. -1.
    9900012    2    1    2    0    0 -0.35927287549E+02 -0.18156531696E+02  0.57214951612E+01  0.50528866453E+02  0.30000020072E+02 0.  0.
        -12    1    1    2    0    0  0.35927287549E+02  0.18156531696E+02 -0.57214951612E+01  0.40659133547E+02  0.00000000000E+00 0.  1.
         11    1    3    3    0    0 -0.29095390054E+01  0.55079886911E+01  0.28521370753E+01  0.68511344172E+01  0.51100000000E-03 0. -1.
        -11    1    3    3    0    0  0.15942215964E+01 -0.19776233370E+01 -0.81302829078E+00  0.26671242611E+01  0.51100000000E-03 0.  1.
        -12    1    3    3    0    0 -0.34611970140E+02 -0.21686897050E+02  0.36823863768E+01  0.41010607775E+02  0.00000000000E+00 0.  1.
</event>
<event>
 7    1  0.2945316E-011  0.5052886E+02  0.7816164E-02  0.1300439E+00
        -11   -1    0    0    0    0  0.00000000000E+00  0.00000000000E+00  0.45593999997E+02  0.45594000000E+02  0.51100000000E-03 0.  1.
         11   -1    0    0    0    0 -0.00000000000E+00 -0.00000000000E+00 -0.45593999997E+02  0.45594000000E+02  0.51100000000E-03 0. -1.
    9900012    2    1    2    0    0 -0.39307941538E+02 -0.10340525945E+02  0.10605481667E+01  0.50528861947E+02  0.30000006374E+02 0.  0.
        -12    1    1    2    0    0  0.39307941538E+02  0.10340525945E+02 -0.10605481667E+01  0.40659138053E+02  0.00000000000E+00 0.  1.
         11    1    3    3    0    0 -0.84061426834E+01 -0.11016097215E+02 -0.71725502259E+01  0.15603304447E+02  0.51100000000E-03 0.  1.
        -11    1    3    3    0    0 -0.64071941725E+01  0.13663208046E+01 -0.38555644912E+01  0.76016016413E+01  0.51100000000E-03 0. -1.
         12    1    3    3    0    0 -0.24494604682E+02 -0.69074953464E+00  0.12088662884E+02  0.27323955859E+02  0.00000000000E+00 0. -1.
</event>
<event>
 7    1  0.2945316E-011  0.5052886E+02  0.7816164E-02  0.1300439E+00
        -11   -1    0    0    0    0  0.00000000000E+00  0.00000000000E+00  0.45593999997E+02  0.45594000000E+02  0.51100000000E-03 0.  1.
         11   -1    0    0    0    0 -0.00000000000E+00 -0.00000000000E+00 -0.45593999997E+02  0.45594000000E+02  0.51100000000E-03 0. -1.
    9900012    2    1    2    0    0 -0.15172173247E+01 -0.24725973487E+02 -0.32241118929E+02  0.50528862490E+02  0.30000008025E+02 0.  0.
        -12    1    1    2    0    0  0.15172173247E+01  0.24725973487E+02  0.32241118929E+02  0.40659137510E+02  0.00000000000E+00 0.  1.
         11    1    3    3    0    0  0.50302412519E+01  0.16029700114E+01 -0.16872362006E+02  0.17679067844E+02  0.51100000000E-03 0.  1.
        -11    1    3    3    0    0  0.20140893618E+01 -0.42905027339E+01 -0.16966065417E+00  0.47427581285E+01  0.51100000000E-03 0. -1.
         12    1    3    3    0    0 -0.85615479383E+01 -0.22038440764E+02 -0.15199096269E+02  0.28107036518E+02  0.00000000000E+00 0. -1.
</event>
<event>
 7    1  0.2945316E-011  0.5052884E+02  0.7816164E-02  0.1300439E+00
        -11   -1    0    0    0    0  0.00000000000E+00  0.00000000000E+00  0.45593999997E+02  0.45594000000E+02  0.51100000000E-03 0.  1.
         11   -1    0    0    0    0 -0.00000000000E+00 -0.00000000000E+00 -0.45593999997E+02  0.45594000000E+02  0.51100000000E-03 0. -1.
    9900012    2    1    2    0    0 -0.26560966582E+02 -0.70109536871E+01 -0.29975477629E+02  0.50528835271E+02  0.29999925290E+02 0.  0.
        -12    1    1    2    0    0  0.26560966582E+02  0.70109536871E+01  0.29975477629E+02  0.40659164729E+02  0.00000000000E+00 0.  1.
         11    1    3    3    0    0 -0.21681125157E+01 -0.52202227325E+01 -0.19621149331E+02  0.20419131681E+02  0.51100000000E-03 0. -1.
        -11    1    3    3    0    0 -0.69519025669E+01 -0.24024966546E+01  0.31914456980E+01  0.80178716240E+01  0.51100000000E-03 0.  1.
         12    1    3    3    0    0 -0.17440951500E+02  0.61176570004E+00 -0.13545773995E+02  0.22091831966E+02  0.00000000000E+00 0. -1.
</event>
<event>
 7    1  0.2945316E-011  0.5052886E+02  0.7816164E-02  0.1300439E+00
        -11   -1    0    0    0    0  0.00000000000E+00  0.00000000000E+00  0.45593999997E+02  0.45594000000E+02  0.51100000000E-03 0.  1.
         11   -1    0    0    0    0 -0.00000000000E+00 -0.00000000000E+00 -0.45593999997E+02  0.45594000000E+02  0.51100000000E-03 0. -1.
    9900012    2    1    2    0    0 -0.33732670825E+02 -0.18663853726E+02 -0.12920258536E+02  0.50528860836E+02  0.30000002997E+02 0.  0.
        -12    1    1    2    0    0  0.33732670825E+02  0.18663853726E+02  0.12920258536E+02  0.40659139164E+02  0.00000000000E+00 0.  1.
         11    1    3    3    0    0 -0.96826967345E+01 -0.69596262927E+00 -0.11314031304E+02  0.14907926906E+02  0.51100000000E-03 0. -1.
        -11    1    3    3    0    0 -0.52085808319E+01  0.36714526835E+01 -0.26687537528E+01  0.69087716668E+01  0.51100000000E-03 0.  1.
        -12    1    3    3    0    0 -0.18841393259E+02 -0.21639343781E+02  0.10625265207E+01  0.28712162263E+02  0.00000000000E+00 0.  1.
</event>
<event>
 7    1  0.2945316E-011  0.5052886E+02  0.7816164E-02  0.1300439E+00
        -11   -1    0    0    0    0  0.00000000000E+00  0.00000000000E+00  0.45593999997E+02  0.45594000000E+02  0.51100000000E-03 0. -1.
         11   -1    0    0    0    0 -0.00000000000E+00 -0.00000000000E+00 -0.45593999997E+02  0.45594000000E+02  0.51100000000E-03 0.  1.
    9900012    2    1    2    0    0  0.19517272986E+02 -0.18754707424E+02  0.30339792518E+02  0.50528855821E+02  0.29999987753E+02 0.  0.
        -12    1    1    2    0    0 -0.19517272986E+02  0.18754707424E+02 -0.30339792518E+02  0.40659144179E+02  0.00000000000E+00 0.  1.
         11    1    3    3    0    0  0.11210677971E+02 -0.85604610311E+01  0.27475682429E+02  0.30884849342E+02  0.51100000000E-03 0. -1.
        -11    1    3    3    0    0 -0.33577669314E+01  0.52440427256E+00 -0.53993790777E+00  0.34410945660E+01  0.51100000000E-03 0.  1.
        -12    1    3    3    0    0  0.11664361946E+02 -0.10718650665E+02  0.34040479961E+01  0.16202911913E+02  0.00000000000E+00 0.  1.
</event>
<event>
 7    1  0.2945316E-011  0.5052886E+02  0.7816164E-02  0.1300439E+00
        -11   -1    0    0    0    0  0.00000000000E+00  0.00000000000E+00  0.45593999997E+02  0.45594000000E+02  0.51100000000E-03 0. -1.
         11   -1    0    0    0    0 -0.00000000000E+00 -0.00000000000E+00 -0.45593999997E+02  0.45594000000E+02  0.51100000000E-03 0.  1.
    9900012    2    1    2    0    0 -0.88429132752E+01  0.39295683232E+02  0.55513614147E+01  0.50528862658E+02  0.30000008536E+02 0.  0.
        -12    1    1    2    0    0  0.88429132752E+01 -0.39295683232E+02 -0.55513614147E+01  0.40659137342E+02  0.00000000000E+00 0.  1.
         11    1    3    3    0    0 -0.13156830726E+02  0.33365068191E+01 -0.12241730042E+01  0.13628392140E+02  0.51100000000E-03 0. -1.
        -11    1    3    3    0    0  0.27231609543E+00  0.27975907956E+01 -0.12509434874E-01  0.28108409885E+01  0.51100000000E-03 0.  1.
         12    1    3    3    0    0  0.40416013552E+01  0.33161585617E+02  0.67880438538E+01  0.34089629530E+02  0.00000000000E+00 0. -1.
</event>
<event>
 7    1  0.2945316E-011  0.5052886E+02  0.7816164E-02  0.1300439E+00
        -11   -1    0    0    0    0  0.00000000000E+00  0.00000000000E+00  0.45593999997E+02  0.45594000000E+02  0.51100000000E-03 0.  1.
         11   -1    0    0    0    0 -0.00000000000E+00 -0.00000000000E+00 -0.45593999997E+02  0.45594000000E+02  0.51100000000E-03 0. -1.
    9900012    2    1    2    0    0  0.28564852675E+02  0.28934233080E+02 -0.15888982177E+00  0.50528857138E+02  0.29999991758E+02 0.  0.
        -12    1    1    2    0    0 -0.28564852675E+02 -0.28934233080E+02  0.15888982177E+00  0.40659142862E+02  0.00000000000E+00 0.  1.
         11    1    3    3    0    0  0.74540260166E+01  0.16649254602E+01  0.53944589000E+01  0.93506506580E+01  0.51100000000E-03 0. -1.
        -11    1    3    3    0    0  0.17392179350E+02  0.71907178405E+01  0.29658648328E+01  0.19052314297E+02  0.51100000000E-03 0.  1.
        -12    1    3    3    0    0  0.37186473083E+01  0.20078589779E+02 -0.85192135545E+01  0.22125892183E+02  0.00000000000E+00 0.  1.
</event>
<event>
 7    1  0.2945316E-011  0.5052886E+02  0.7816164E-02  0.1300439E+00
        -11   -1    0    0    0    0  0.00000000000E+00  0.00000000000E+00  0.45593999997E+02  0.45594000000E+02  0.51100000000E-03 0.  1.
         11   -1    0    0    0    0 -0.00000000000E+00 -0.00000000000E+00 -0.45593999997E+02  0.45594000000E+02  0.51100000000E-03 0. -1.
    9900012    2    1    2    0    0  0.38851591894E+01 -0.38832713869E+02 -0.11405760959E+02  0.50528861895E+02  0.30000006216E+02 0.  0.
        -12    1    1    2    0    0 -0.38851591894E+01  0.38832713869E+02  0.11405760959E+02  0.40659138105E+02  0.00000000000E+00 0.  1.
         11    1    3    3    0    0  0.56628699072E+01 -0.94436647640E+01 -0.10388852407E+02  0.15138664220E+02  0.51100000000E-03 0. -1.
        -11    1    3    3    0    0 -0.90158251177E+01 -0.94776309566E+01  0.38823709477E+01  0.13644903647E+02  0.51100000000E-03 0.  1.
         12    1    3    3    0    0  0.72381143999E+01 -0.19911418149E+02 -0.48992794990E+01  0.21745294028E+02  0.00000000000E+00 0. -1.
</event>
<event>
 7    1  0.2945316E-011  0.5052887E+02  0.7816164E-02  0.1300439E+00
        -11   -1    0    0    0    0  0.00000000000E+00  0.00000000000E+00  0.45593999997E+02  0.45594000000E+02  0.51100000000E-03 0.  1.
         11   -1    0    0    0    0 -0.00000000000E+00 -0.00000000000E+00 -0.45593999997E+02  0.45594000000E+02  0.51100000000E-03 0. -1.
    9900012    2    1    2    0    0  0.14565007976E+01 -0.39202801597E+02 -0.10685672595E+02  0.50528872532E+02  0.30000038549E+02 0.  0.
        -12    1    1    2    0    0 -0.14565007976E+01  0.39202801597E+02  0.10685672595E+02  0.40659127468E+02  0.00000000000E+00 0.  1.
         11    1    3    3    0    0 -0.35219504974E+01 -0.99389232567E+01  0.59750344281E+01  0.12119709876E+02  0.51100000000E-03 0. -1.
        -11    1    3    3    0    0 -0.17367491861E+00 -0.23390429528E+02 -0.42951147201E+01  0.23782143873E+02  0.51100000000E-03 0.  1.
         12    1    3    3    0    0  0.51521262136E+01 -0.58734488123E+01 -0.12365592303E+02  0.14627018783E+02  0.00000000000E+00 0. -1.
</event>
<event>
 7    1  0.2945316E-011  0.5052885E+02  0.7816164E-02  0.1300439E+00
        -11   -1    0    0    0    0  0.00000000000E+00  0.00000000000E+00  0.45593999997E+02  0.45594000000E+02  0.51100000000E-03 0.  1.
         11   -1    0    0    0    0 -0.00000000000E+00 -0.00000000000E+00 -0.45593999997E+02  0.45594000000E+02  0.51100000000E-03 0. -1.
    9900012    2    1    2    0    0 -0.99170785335E+01  0.65107657730E+00 -0.39425803947E+02  0.50528851408E+02  0.29999974339E+02 0.  0.
        -12    1    1    2    0    0  0.99170785335E+01 -0.65107657730E+00  0.39425803947E+02  0.40659148592E+02  0.00000000000E+00 0.  1.
         11    1    3    3    0    0 -0.13197133063E+01 -0.78506241955E+01 -0.66271726702E+01  0.10358250882E+02  0.51100000000E-03 0. -1.
        -11    1    3    3    0    0 -0.32386036485E+01 -0.19567665211E+01  0.13804171661E+01  0.40277835870E+01  0.51100000000E-03 0.  1.
         12    1    3    3    0    0 -0.53587615786E+01  0.10458467294E+02 -0.34179048443E+02  0.36142816939E+02  0.00000000000E+00 0. -1.
</event>
<event>
 7    1  0.2945316E-011  0.5052885E+02  0.7816164E-02  0.1300439E+00
        -11   -1    0    0    0    0  0.00000000000E+00  0.00000000000E+00  0.45593999997E+02  0.45594000000E+02  0.51100000000E-03 0.  1.
         11   -1    0    0    0    0 -0.00000000000E+00 -0.00000000000E+00 -0.45593999997E+02  0.45594000000E+02  0.51100000000E-03 0. -1.
    9900012    2    1    2    0    0 -0.26821933336E+02  0.11014718714E+02 -0.28503090228E+02  0.50528852336E+02  0.29999977160E+02 0.  0.
        -12    1    1    2    0    0  0.26821933336E+02 -0.11014718714E+02  0.28503090228E+02  0.40659147664E+02  0.00000000000E+00 0.  1.
         11    1    3    3    0    0 -0.17778296907E+02  0.67752117835E+01 -0.11295056267E+02  0.22125768506E+02  0.51100000000E-03 0. -1.
        -11    1    3    3    0    0 -0.14531605316E+02  0.71836420720E+01 -0.10870414591E+02  0.19517637667E+02  0.51100000000E-03 0.  1.
        -12    1    3    3    0    0  0.54879688870E+01 -0.29441351409E+01 -0.63376193696E+01  0.88854461626E+01  0.00000000000E+00 0.  1.
</event>
<event>
 7    1  0.2945316E-011  0.5052886E+02  0.7816164E-02  0.1300439E+00
        -11   -1    0    0    0    0  0.00000000000E+00  0.00000000000E+00  0.45593999997E+02  0.45594000000E+02  0.51100000000E-03 0.  1.
         11   -1    0    0    0    0 -0.00000000000E+00 -0.00000000000E+00 -0.45593999997E+02  0.45594000000E+02  0.51100000000E-03 0. -1.
    9900012    2    1    2    0    0  0.21741449956E+02  0.18976571860E+02 -0.28642011110E+02  0.50528859254E+02  0.29999998190E+02 0.  0.
        -12    1    1    2    0    0 -0.21741449956E+02 -0.18976571860E+02  0.28642011110E+02  0.40659140746E+02  0.00000000000E+00 0.  1.
         11    1    3    3    0    0  0.13189203549E+02  0.69272740690E+01 -0.33434115025E+01  0.15268287953E+02  0.51100000000E-03 0. -1.
        -11    1    3    3    0    0  0.10560918091E+02  0.17900449697E+01 -0.38188369634E+01  0.11371928945E+02  0.51100000000E-03 0.  1.
        -12    1    3    3    0    0 -0.20086716839E+01  0.10259252821E+02 -0.21479762644E+02  0.23888642357E+02  0.00000000000E+00 0.  1.
</event>
<event>
 7    1  0.2945316E-011  0.5052885E+02  0.7816164E-02  0.1300439E+00
        -11   -1    0    0    0    0  0.00000000000E+00  0.00000000000E+00  0.45593999997E+02  0.45594000000E+02  0.51100000000E-03 0.  1.
         11   -1    0    0    0    0 -0.00000000000E+00 -0.00000000000E+00 -0.45593999997E+02  0.45594000000E+02  0.51100000000E-03 0. -1.
    9900012    2    1    2    0    0 -0.22485826536E+02  0.20818355565E+02 -0.26723593975E+02  0.50528846069E+02  0.29999958111E+02 0.  0.
        -12    1    1    2    0    0  0.22485826536E+02 -0.20818355565E+02  0.26723593975E+02  0.40659153931E+02  0.00000000000E+00 0.  1.
         11    1    3    3    0    0  0.17492197393E+01 -0.15320131596E+00  0.12141540232E+01  0.21348092637E+01  0.51100000000E-03 0.  1.
        -11    1    3    3    0    0 -0.12724592799E+02  0.56266248322E+01 -0.25511818156E+02  0.29059026735E+02  0.51100000000E-03 0. -1.
         12    1    3    3    0    0 -0.11510453476E+02  0.15344932049E+02 -0.24259298426E+01  0.19335010070E+02  0.00000000000E+00 0. -1.
</event>
<event>
 7    1  0.2945316E-011  0.5052886E+02  0.7816164E-02  0.1300439E+00
        -11   -1    0    0    0    0  0.00000000000E+00  0.00000000000E+00  0.45593999997E+02  0.45594000000E+02  0.51100000000E-03 0.  1.
         11   -1    0    0    0    0 -0.00000000000E+00 -0.00000000000E+00 -0.45593999997E+02  0.45594000000E+02  0.51100000000E-03 0. -1.
    9900012    2    1    2    0    0 -0.92329742100E+01 -0.22524387669E+02 -0.32566389919E+02  0.50528860745E+02  0.30000002720E+02 0.  0.
        -12    1    1    2    0    0  0.92329742100E+01  0.22524387669E+02  0.32566389919E+02  0.40659139255E+02  0.00000000000E+00 0.  1.
         11    1    3    3    0    0  0.21328978857E+01  0.27245406651E+00 -0.14703301266E+02  0.14859695589E+02  0.51100000000E-03 0. -1.
        -11    1    3    3    0    0 -0.49527353971E+01 -0.25476877381E+01 -0.12615261296E+02  0.13790036931E+02  0.51100000000E-03 0.  1.
        -12    1    3    3    0    0 -0.64131366986E+01 -0.20249153997E+02 -0.52478273564E+01  0.21879128225E+02  0.00000000000E+00 0.  1.
</event>
<event>
 7    1  0.2945316E-011  0.5052885E+02  0.7816164E-02  0.1300439E+00
        -11   -1    0    0    0    0  0.00000000000E+00  0.00000000000E+00  0.45593999997E+02  0.45594000000E+02  0.51100000000E-03 0.  1.
         11   -1    0    0    0    0 -0.00000000000E+00 -0.00000000000E+00 -0.45593999997E+02  0.45594000000E+02  0.51100000000E-03 0. -1.
    9900012    2    1    2    0    0  0.37875402084E+02 -0.13209950298E+02  0.66421071308E+01  0.50528850266E+02  0.29999970869E+02 0.  0.
        -12    1    1    2    0    0 -0.37875402084E+02  0.13209950298E+02 -0.66421071308E+01  0.40659149734E+02  0.00000000000E+00 0.  1.
         11    1    3    3    0    0  0.97163855333E+01  0.53849470908E-01 -0.49759150183E+01  0.10916536911E+02  0.51100000000E-03 0. -1.
        -11    1    3    3    0    0  0.27926243995E+01  0.19807345661E+00 -0.55062050638E+01  0.61770768650E+01  0.51100000000E-03 0.  1.
        -12    1    3    3    0    0  0.25366392152E+02 -0.13461873226E+02  0.17124227213E+02  0.33435236490E+02  0.00000000000E+00 0.  1.
</event>
<event>
 7    1  0.2945316E-011  0.5052886E+02  0.7816164E-02  0.1300439E+00
        -11   -1    0    0    0    0  0.00000000000E+00  0.00000000000E+00  0.45593999997E+02  0.45594000000E+02  0.51100000000E-03 0. -1.
         11   -1    0    0    0    0 -0.00000000000E+00 -0.00000000000E+00 -0.45593999997E+02  0.45594000000E+02  0.51100000000E-03 0.  1.
    9900012    2    1    2    0    0  0.24538492252E+02 -0.10295842744E+01  0.32403215712E+02  0.50528855465E+02  0.29999986673E+02 0.  0.
        -12    1    1    2    0    0 -0.24538492252E+02  0.10295842744E+01 -0.32403215712E+02  0.40659144535E+02  0.00000000000E+00 0.  1.
         11    1    3    3    0    0  0.19940852142E+02 -0.84844272463E+00  0.29815600387E+02  0.35879345951E+02  0.51100000000E-03 0. -1.
        -11    1    3    3    0    0  0.50575953528E+01 -0.34085049231E+01  0.69222811851E+01  0.92257874260E+01  0.51100000000E-03 0.  1.
         12    1    3    3    0    0 -0.45995524196E+00  0.32273633733E+01 -0.43346658603E+01  0.54237220880E+01  0.00000000000E+00 0. -1.
</event>
<event>
 7    1  0.2945316E-011  0.5052887E+02  0.7816164E-02  0.1300439E+00
        -11   -1    0    0    0    0  0.00000000000E+00  0.00000000000E+00  0.45593999997E+02  0.45594000000E+02  0.51100000000E-03 0. -1.
         11   -1    0    0    0    0 -0.00000000000E+00 -0.00000000000E+00 -0.45593999997E+02  0.45594000000E+02  0.51100000000E-03 0.  1.
    9900012    2    1    2    0    0 -0.85264263564E+01  0.16704222299E+02  0.36075395279E+02  0.50528866542E+02  0.30000020341E+02 0.  0.
        -12    1    1    2    0    0  0.85264263564E+01 -0.16704222299E+02 -0.36075395279E+02  0.40659133458E+02  0.00000000000E+00 0.  1.
         11    1    3    3    0    0 -0.31862972491E+01 -0.43989497123E+01  0.12221940755E+02  0.13374568584E+02  0.51100000000E-03 0. -1.
        -11    1    3    3    0    0 -0.52733905350E+01  0.16760881675E+01  0.14644433555E+02  0.15654946620E+02  0.51100000000E-03 0.  1.
        -12    1    3    3    0    0 -0.66738572326E-01  0.19427083844E+02  0.92090209690E+01  0.21499351337E+02  0.00000000000E+00 0.  1.
</event>
<event>
 7    1  0.2945316E-011  0.5052886E+02  0.7816164E-02  0.1300439E+00
        -11   -1    0    0    0    0  0.00000000000E+00  0.00000000000E+00  0.45593999997E+02  0.45594000000E+02  0.51100000000E-03 0.  1.
         11   -1    0    0    0    0 -0.00000000000E+00 -0.00000000000E+00 -0.45593999997E+02  0.45594000000E+02  0.51100000000E-03 0. -1.
    9900012    2    1    2    0    0 -0.86849785928E+01  0.35781736955E+02 -0.17245411835E+02  0.50528858568E+02  0.29999996102E+02 0.  0.
        -12    1    1    2    0    0  0.86849785928E+01 -0.35781736955E+02  0.17245411835E+02  0.40659141432E+02  0.00000000000E+00 0.  1.
         11    1    3    3    0    0 -0.41261610049E+00  0.25901899459E+01 -0.36542053937E+01  0.44980610626E+01  0.51100000000E-03 0. -1.
        -11    1    3    3    0    0 -0.14710898382E+02  0.23399585716E+02  0.57483241051E+00  0.27645642974E+02  0.51100000000E-03 0.  1.
        -12    1    3    3    0    0  0.64385358898E+01  0.97919612928E+01 -0.14166038852E+02  0.18385154531E+02  0.00000000000E+00 0.  1.
</event>
<event>
 7    1  0.2945316E-011  0.5052886E+02  0.7816164E-02  0.1300439E+00
        -11   -1    0    0    0    0  0.00000000000E+00  0.00000000000E+00  0.45593999997E+02  0.45594000000E+02  0.51100000000E-03 0. -1.
         11   -1    0    0    0    0 -0.00000000000E+00 -0.00000000000E+00 -0.45593999997E+02  0.45594000000E+02  0.51100000000E-03 0.  1.
    9900012    2    1    2    0    0 -0.26510318275E+02  0.10454576486E+02  0.29001215194E+02  0.50528860470E+02  0.30000001886E+02 0.  0.
        -12    1    1    2    0    0  0.26510318275E+02 -0.10454576486E+02 -0.29001215194E+02  0.40659139530E+02  0.00000000000E+00 0.  1.
         11    1    3    3    0    0  0.41654684775E+01 -0.29986046462E+01 -0.88992188969E+00  0.52090996048E+01  0.51100000000E-03 0.  1.
        -11    1    3    3    0    0 -0.12369610972E+02  0.37650980299E+01  0.15039575312E+02  0.19833609470E+02  0.51100000000E-03 0. -1.
        -12    1    3    3    0    0 -0.18306175781E+02  0.96880831026E+01  0.14851561772E+02  0.25486151396E+02  0.00000000000E+00 0.  1.
</event>
<event>
 7    1  0.2945316E-011  0.5052888E+02  0.7816164E-02  0.1300439E+00
        -11   -1    0    0    0    0  0.00000000000E+00  0.00000000000E+00  0.45593999997E+02  0.45594000000E+02  0.51100000000E-03 0.  1.
         11   -1    0    0    0    0 -0.00000000000E+00 -0.00000000000E+00 -0.45593999997E+02  0.45594000000E+02  0.51100000000E-03 0. -1.
    9900012    2    1    2    0    0 -0.31548211275E+01 -0.38457811072E+02 -0.12814352858E+02  0.50528883335E+02  0.30000071386E+02 0.  0.
        -12    1    1    2    0    0  0.31548211275E+01  0.38457811072E+02  0.12814352858E+02  0.40659116665E+02  0.00000000000E+00 0.  1.
         11    1    3    3    0    0  0.74192759372E+00 -0.39156102673E+02 -0.64974266805E+01  0.39698455724E+02  0.51100000000E-03 0. -1.
        -11    1    3    3    0    0 -0.71227904804E-03 -0.17956024546E+01 -0.59214271323E+01  0.61876884397E+01  0.51100000000E-03 0.  1.
        -12    1    3    3    0    0 -0.38960364422E+01  0.24938940562E+01 -0.39549904546E+00  0.46427391718E+01  0.00000000000E+00 0.  1.
</event>
<event>
 7    1  0.2945316E-011  0.5052886E+02  0.7816164E-02  0.1300439E+00
        -11   -1    0    0    0    0  0.00000000000E+00  0.00000000000E+00  0.45593999997E+02  0.45594000000E+02  0.51100000000E-03 0. -1.
         11   -1    0    0    0    0 -0.00000000000E+00 -0.00000000000E+00 -0.45593999997E+02  0.45594000000E+02  0.51100000000E-03 0.  1.
    9900012    2    1    2    0    0 -0.18069426119E+02  0.91592702752E+01 -0.35252935984E+02  0.50528857267E+02  0.29999992149E+02 0.  0.
        -12    1    1    2    0    0  0.18069426119E+02 -0.91592702752E+01  0.35252935984E+02  0.40659142733E+02  0.00000000000E+00 0.  1.
         11    1    3    3    0    0 -0.13151010830E+02  0.21096636542E+00 -0.22049119048E+02  0.25674057796E+02  0.51100000000E-03 0. -1.
        -11    1    3    3    0    0 -0.39165807923E+01 -0.25691029816E+01 -0.12412470538E+02  0.13266850430E+02  0.51100000000E-03 0.  1.
        -12    1    3    3    0    0 -0.10018344972E+01  0.11517406891E+02 -0.79134639908E+00  0.11587949041E+02  0.00000000000E+00 0.  1.
</event>
<event>
 7    1  0.2945316E-011  0.5052899E+02  0.7816164E-02  0.1300438E+00
        -11   -1    0    0    0    0  0.00000000000E+00  0.00000000000E+00  0.45593999997E+02  0.45594000000E+02  0.51100000000E-03 0.  1.
         11   -1    0    0    0    0 -0.00000000000E+00 -0.00000000000E+00 -0.45593999997E+02  0.45594000000E+02  0.51100000000E-03 0. -1.
    9900012    2    1    2    0    0 -0.13186023283E+02 -0.26366104565E+02 -0.28002005306E+02  0.50528991390E+02  0.30000399827E+02 0.  0.
        -12    1    1    2    0    0  0.13186023283E+02  0.26366104565E+02  0.28002005306E+02  0.40659008610E+02  0.00000000000E+00 0.  1.
         11    1    3    3    0    0 -0.26849686670E+01 -0.18221676688E+02 -0.13643286907E+02  0.22921122048E+02  0.51100000000E-03 0. -1.
        -11    1    3    3    0    0  0.11498908461E+01 -0.10915392517E+02 -0.10045658850E+02  0.14878955096E+02  0.51100000000E-03 0.  1.
        -12    1    3    3    0    0 -0.11650945462E+02  0.27709646401E+01 -0.43130595498E+01  0.12728914246E+02  0.00000000000E+00 0.  1.
</event>
<event>
 7    1  0.2945316E-011  0.5052887E+02  0.7816164E-02  0.1300439E+00
        -11   -1    0    0    0    0  0.00000000000E+00  0.00000000000E+00  0.45593999997E+02  0.45594000000E+02  0.51100000000E-03 0.  1.
         11   -1    0    0    0    0 -0.00000000000E+00 -0.00000000000E+00 -0.45593999997E+02  0.45594000000E+02  0.51100000000E-03 0. -1.
    9900012    2    1    2    0    0  0.91520124781E+00 -0.24405441514E+02 -0.32506950920E+02  0.50528867853E+02  0.30000024326E+02 0.  0.
        -12    1    1    2    0    0 -0.91520124781E+00  0.24405441514E+02  0.32506950920E+02  0.40659132147E+02  0.00000000000E+00 0.  1.
         11    1    3    3    0    0 -0.95585754755E+01 -0.85233332360E+01 -0.17597844744E+02  0.21764597733E+02  0.51100000000E-03 0. -1.
        -11    1    3    3    0    0 -0.17243595406E+01 -0.96852647617E+01 -0.10502327321E+02  0.14390158051E+02  0.51100000000E-03 0.  1.
         12    1    3    3    0    0  0.12198136264E+02 -0.61968435168E+01 -0.44067788548E+01  0.14374112069E+02  0.00000000000E+00 0. -1.
</event>
<event>
 7    1  0.2945316E-011  0.5052886E+02  0.7816164E-02  0.1300439E+00
        -11   -1    0    0    0    0  0.00000000000E+00  0.00000000000E+00  0.45593999997E+02  0.45594000000E+02  0.51100000000E-03 0.  1.
         11   -1    0    0    0    0 -0.00000000000E+00 -0.00000000000E+00 -0.45593999997E+02  0.45594000000E+02  0.51100000000E-03 0. -1.
    9900012    2    1    2    0    0 -0.12029227466E+02  0.25096937977E+02 -0.29641304819E+02  0.50528861290E+02  0.30000004377E+02 0.  0.
        -12    1    1    2    0    0  0.12029227466E+02 -0.25096937977E+02  0.29641304819E+02  0.40659138710E+02  0.00000000000E+00 0.  1.
         11    1    3    3    0    0  0.55430259246E+01  0.63206102746E+01 -0.13074249780E+02  0.15543849530E+02  0.51100000000E-03 0. -1.
        -11    1    3    3    0    0  0.18652342759E+01  0.11473195095E+01 -0.65340714578E+01  0.68912648358E+01  0.51100000000E-03 0.  1.
        -12    1    3    3    0    0 -0.19437487667E+02  0.17629008193E+02 -0.10032983581E+02  0.28093746924E+02  0.00000000000E+00 0.  1.
</event>
<event>
 7    1  0.2945316E-011  0.5052886E+02  0.7816164E-02  0.1300439E+00
        -11   -1    0    0    0    0  0.00000000000E+00  0.00000000000E+00  0.45593999997E+02  0.45594000000E+02  0.51100000000E-03 0. -1.
         11   -1    0    0    0    0 -0.00000000000E+00 -0.00000000000E+00 -0.45593999997E+02  0.45594000000E+02  0.51100000000E-03 0.  1.
    9900012    2    1    2    0    0  0.33336613431E+02  0.23099127149E+02  0.28750912380E+01  0.50528860563E+02  0.30000002168E+02 0.  0.
        -12    1    1    2    0    0 -0.33336613431E+02 -0.23099127149E+02 -0.28750912380E+01  0.40659139437E+02  0.00000000000E+00 0.  1.
         11    1    3    3    0    0  0.84208503383E+00  0.39649504553E+01  0.60850177694E+01  0.73114554523E+01  0.51100000000E-03 0. -1.
        -11    1    3    3    0    0  0.14334463384E+01  0.15239336787E+01  0.59903918543E+01  0.63452294750E+01  0.51100000000E-03 0.  1.
         12    1    3    3    0    0  0.31061082059E+02  0.17610243015E+02 -0.92003183856E+01  0.36872175636E+02  0.00000000000E+00 0. -1.
</event>
<event>
 7    1  0.2945316E-011  0.5052886E+02  0.7816164E-02  0.1300439E+00
        -11   -1    0    0    0    0  0.00000000000E+00  0.00000000000E+00  0.45593999997E+02  0.45594000000E+02  0.51100000000E-03 0.  1.
         11   -1    0    0    0    0 -0.00000000000E+00 -0.00000000000E+00 -0.45593999997E+02  0.45594000000E+02  0.51100000000E-03 0. -1.
    9900012    2    1    2    0    0 -0.36179444713E+01  0.30441522309E+02 -0.26709356426E+02  0.50528861749E+02  0.30000005772E+02 0.  0.
        -12    1    1    2    0    0  0.36179444713E+01 -0.30441522309E+02  0.26709356426E+02  0.40659138251E+02  0.00000000000E+00 0.  1.
         11    1    3    3    0    0  0.80531652721E+00  0.14098723302E+02 -0.33683574104E+01  0.14517863664E+02  0.51100000000E-03 0. -1.
        -11    1    3    3    0    0 -0.48182078980E+01  0.16203226612E+02 -0.49486523654E+01  0.17613882039E+02  0.51100000000E-03 0.  1.
         12    1    3    3    0    0  0.39494689950E+00  0.13957239415E+00 -0.18392346650E+02  0.18397116046E+02  0.00000000000E+00 0. -1.
</event>
<event>
 7    1  0.2945316E-011  0.5052886E+02  0.7816164E-02  0.1300439E+00
        -11   -1    0    0    0    0  0.00000000000E+00  0.00000000000E+00  0.45593999997E+02  0.45594000000E+02  0.51100000000E-03 0. -1.
         11   -1    0    0    0    0 -0.00000000000E+00 -0.00000000000E+00 -0.45593999997E+02  0.45594000000E+02  0.51100000000E-03 0.  1.
    9900012    2    1    2    0    0  0.34044081696E+02 -0.21792556628E+02  0.43875513001E+01  0.50528860445E+02  0.30000001808E+02 0.  0.
        -12    1    1    2    0    0 -0.34044081696E+02  0.21792556628E+02 -0.43875513001E+01  0.40659139555E+02  0.00000000000E+00 0.  1.
         11    1    3    3    0    0  0.15460651506E+02 -0.19336340828E+02 -0.11127643663E+01  0.24782333756E+02  0.51100000000E-03 0. -1.
        -11    1    3    3    0    0 -0.31513684046E+01 -0.99434464347E+00  0.13559405293E+01  0.35718929256E+01  0.51100000000E-03 0.  1.
         12    1    3    3    0    0  0.21734798595E+02 -0.14618711565E+01  0.41443751371E+01  0.22174633763E+02  0.00000000000E+00 0. -1.
</event>
<event>
 7    1  0.2945316E-011  0.5052886E+02  0.7816164E-02  0.1300439E+00
        -11   -1    0    0    0    0  0.00000000000E+00  0.00000000000E+00  0.45593999997E+02  0.45594000000E+02  0.51100000000E-03 0. -1.
         11   -1    0    0    0    0 -0.00000000000E+00 -0.00000000000E+00 -0.45593999997E+02  0.45594000000E+02  0.51100000000E-03 0.  1.
    9900012    2    1    2    0    0 -0.95100410295E+01  0.22609531941E+02  0.32427358303E+02  0.50528863493E+02  0.30000011072E+02 0.  0.
        -12    1    1    2    0    0  0.95100410295E+01 -0.22609531941E+02 -0.32427358303E+02  0.40659136507E+02  0.00000000000E+00 0.  1.
         11    1    3    3    0    0  0.40750306692E+01  0.12215340112E+02  0.29869709334E+01  0.13219016780E+02  0.51100000000E-03 0. -1.
        -11    1    3    3    0    0  0.26730450223E+01 -0.10647840227E+01  0.24314423320E+01  0.37670740345E+01  0.51100000000E-03 0.  1.
        -12    1    3    3    0    0 -0.16258116721E+02  0.11458975852E+02  0.27008945038E+02  0.33542772679E+02  0.00000000000E+00 0.  1.
</event>
<event>
 7    1  0.2945316E-011  0.5052886E+02  0.7816164E-02  0.1300439E+00
        -11   -1    0    0    0    0  0.00000000000E+00  0.00000000000E+00  0.45593999997E+02  0.45594000000E+02  0.51100000000E-03 0.  1.
         11   -1    0    0    0    0 -0.00000000000E+00 -0.00000000000E+00 -0.45593999997E+02  0.45594000000E+02  0.51100000000E-03 0. -1.
    9900012    2    1    2    0    0 -0.21623746100E+02  0.12778541528E+02 -0.31973241796E+02  0.50528859454E+02  0.29999998797E+02 0.  0.
        -12    1    1    2    0    0  0.21623746100E+02 -0.12778541528E+02  0.31973241796E+02  0.40659140546E+02  0.00000000000E+00 0.  1.
         11    1    3    3    0    0 -0.14982244827E+01 -0.85772925732E+00 -0.89746620898E+00  0.19457188740E+01  0.51100000000E-03 0. -1.
        -11    1    3    3    0    0 -0.11800388420E+02 -0.17279517129E+01  0.10911691071E+01  0.11976044182E+02  0.51100000000E-03 0.  1.
         12    1    3    3    0    0 -0.83251331976E+01  0.15364222498E+02 -0.32166944694E+02  0.36607096398E+02  0.00000000000E+00 0. -1.
</event>
<event>
 7    1  0.2945316E-011  0.5052886E+02  0.7816164E-02  0.1300439E+00
        -11   -1    0    0    0    0  0.00000000000E+00  0.00000000000E+00  0.45593999997E+02  0.45594000000E+02  0.51100000000E-03 0. -1.
         11   -1    0    0    0    0 -0.00000000000E+00 -0.00000000000E+00 -0.45593999997E+02  0.45594000000E+02  0.51100000000E-03 0.  1.
    9900012    2    1    2    0    0  0.21063725120E+02  0.26852428202E+02  0.22100498267E+02  0.50528862775E+02  0.30000008890E+02 0.  0.
        -12    1    1    2    0    0 -0.21063725120E+02 -0.26852428202E+02 -0.22100498267E+02  0.40659137225E+02  0.00000000000E+00 0.  1.
         11    1    3    3    0    0 -0.26753277200E+01  0.15997856631E+01  0.24582744148E+01  0.39698622063E+01  0.51100000000E-03 0. -1.
        -11    1    3    3    0    0 -0.39357306890E+01  0.66230870704E+01 -0.26704988632E+00  0.77088633599E+01  0.51100000000E-03 0.  1.
         12    1    3    3    0    0  0.27674783529E+02  0.18629555468E+02  0.19909273738E+02  0.38850137209E+02  0.00000000000E+00 0. -1.
</event>
<event>
 7    1  0.2945316E-011  0.5052886E+02  0.7816164E-02  0.1300439E+00
        -11   -1    0    0    0    0  0.00000000000E+00  0.00000000000E+00  0.45593999997E+02  0.45594000000E+02  0.51100000000E-03 0.  1.
         11   -1    0    0    0    0 -0.00000000000E+00 -0.00000000000E+00 -0.45593999997E+02  0.45594000000E+02  0.51100000000E-03 0. -1.
    9900012    2    1    2    0    0 -0.34799096263E+02 -0.43578766704E+01 -0.20571769852E+02  0.50528857060E+02  0.29999991519E+02 0.  0.
        -12    1    1    2    0    0  0.34799096263E+02  0.43578766704E+01  0.20571769852E+02  0.40659142940E+02  0.00000000000E+00 0.  1.
         11    1    3    3    0    0 -0.10348381123E+02  0.45740216497E+01 -0.15162058536E+01  0.11415320687E+02  0.51100000000E-03 0. -1.
        -11    1    3    3    0    0 -0.53210927350E+01  0.73247471678E+01 -0.50873193487E+01  0.10384929821E+02  0.51100000000E-03 0.  1.
        -12    1    3    3    0    0 -0.19129622405E+02 -0.16256645488E+02 -0.13968244649E+02  0.28728606552E+02  0.00000000000E+00 0.  1.
</event>
<event>
 7    1  0.2945316E-011  0.5052886E+02  0.7816164E-02  0.1300439E+00
        -11   -1    0    0    0    0  0.00000000000E+00  0.00000000000E+00  0.45593999997E+02  0.45594000000E+02  0.51100000000E-03 0.  1.
         11   -1    0    0    0    0 -0.00000000000E+00 -0.00000000000E+00 -0.45593999997E+02  0.45594000000E+02  0.51100000000E-03 0. -1.
    9900012    2    1    2    0    0 -0.13797649589E+02 -0.64593139431E+01 -0.37697048576E+02  0.50528863977E+02  0.30000012545E+02 0.  0.
        -12    1    1    2    0    0  0.13797649589E+02  0.64593139431E+01  0.37697048576E+02  0.40659136023E+02  0.00000000000E+00 0.  1.
         11    1    3    3    0    0  0.48904781570E+01 -0.18154710146E+01 -0.99350177064E+01  0.11221287301E+02  0.51100000000E-03 0.  1.
        -11    1    3    3    0    0 -0.74059309926E+01  0.79730626066E+01 -0.11590308437E+02  0.15898200877E+02  0.51100000000E-03 0. -1.
         12    1    3    3    0    0 -0.11282196754E+02 -0.12616905535E+02 -0.16171722432E+02  0.23409375799E+02  0.00000000000E+00 0. -1.
</event>
<event>
 7    1  0.2945316E-011  0.5052888E+02  0.7816164E-02  0.1300439E+00
        -11   -1    0    0    0    0  0.00000000000E+00  0.00000000000E+00  0.45593999997E+02  0.45594000000E+02  0.51100000000E-03 0.  1.
         11   -1    0    0    0    0 -0.00000000000E+00 -0.00000000000E+00 -0.45593999997E+02  0.45594000000E+02  0.51100000000E-03 0. -1.
    9900012    2    1    2    0    0 -0.22044275710E+02  0.26101013143E+02 -0.22044301070E+02  0.50528878166E+02  0.30000055672E+02 0.  0.
        -12    1    1    2    0    0  0.22044275710E+02 -0.26101013143E+02  0.22044301070E+02  0.40659121834E+02  0.00000000000E+00 0.  1.
         11    1    3    3    0    0 -0.26536258867E+01  0.52071501597E+01 -0.73326378957E+01  0.93767650020E+01  0.51100000000E-03 0. -1.
        -11    1    3    3    0    0  0.35208708644E+00  0.29222031453E+01 -0.14145648069E+02  0.14448619176E+02  0.51100000000E-03 0.  1.
        -12    1    3    3    0    0 -0.19742736910E+02  0.17971659838E+02 -0.56601510465E+00  0.26703493987E+02  0.00000000000E+00 0.  1.
</event>
<event>
 7    1  0.2945316E-011  0.5052886E+02  0.7816164E-02  0.1300439E+00
        -11   -1    0    0    0    0  0.00000000000E+00  0.00000000000E+00  0.45593999997E+02  0.45594000000E+02  0.51100000000E-03 0. -1.
         11   -1    0    0    0    0 -0.00000000000E+00 -0.00000000000E+00 -0.45593999997E+02  0.45594000000E+02  0.51100000000E-03 0.  1.
    9900012    2    1    2    0    0 -0.34040948233E+02 -0.91533388743E+01 -0.20263162511E+02  0.50528861740E+02  0.30000005744E+02 0.  0.
        -12    1    1    2    0    0  0.34040948233E+02  0.91533388743E+01  0.20263162511E+02  0.40659138260E+02  0.00000000000E+00 0.  1.
         11    1    3    3    0    0 -0.13145000703E+02 -0.97329878957E+01 -0.13220300702E+02  0.21030892700E+02  0.51100000000E-03 0.  1.
        -11    1    3    3    0    0 -0.49578366790E+01 -0.48073609804E+01  0.52388228387E+01  0.86681098937E+01  0.51100000000E-03 0. -1.
         12    1    3    3    0    0 -0.15938110851E+02  0.53870100018E+01 -0.12281684648E+02  0.20829859146E+02  0.00000000000E+00 0. -1.
</event>
<event>
 7    1  0.2945316E-011  0.5052887E+02  0.7816164E-02  0.1300439E+00
        -11   -1    0    0    0    0  0.00000000000E+00  0.00000000000E+00  0.45593999997E+02  0.45594000000E+02  0.51100000000E-03 0.  1.
         11   -1    0    0    0    0 -0.00000000000E+00 -0.00000000000E+00 -0.45593999997E+02  0.45594000000E+02  0.51100000000E-03 0. -1.
    9900012    2    1    2    0    0 -0.36754372914E+02  0.82576431631E+01 -0.15300080553E+02  0.50528867400E+02  0.30000022948E+02 0.  0.
        -12    1    1    2    0    0  0.36754372914E+02 -0.82576431631E+01  0.15300080553E+02  0.40659132600E+02  0.00000000000E+00 0.  1.
         11    1    3    3    0    0  0.16672041443E+01 -0.22671948284E+01 -0.86536215821E+00  0.29442476076E+01  0.51100000000E-03 0. -1.
        -11    1    3    3    0    0 -0.65647199057E+01  0.86701744556E+00 -0.12613787328E+02  0.14246223981E+02  0.51100000000E-03 0.  1.
         12    1    3    3    0    0 -0.31856857152E+02  0.96578205460E+01 -0.18209310666E+01  0.33338395811E+02  0.00000000000E+00 0. -1.
</event>
<event>
 7    1  0.2945316E-011  0.5052885E+02  0.7816164E-02  0.1300439E+00
        -11   -1    0    0    0    0  0.00000000000E+00  0.00000000000E+00  0.45593999997E+02  0.45594000000E+02  0.51100000000E-03 0.  1.
         11   -1    0    0    0    0 -0.00000000000E+00 -0.00000000000E+00 -0.45593999997E+02  0.45594000000E+02  0.51100000000E-03 0. -1.
    9900012    2    1    2    0    0 -0.34387111660E+00  0.38834752697E+02 -0.12037850194E+02  0.50528854637E+02  0.29999984154E+02 0.  0.
        -12    1    1    2    0    0  0.34387111660E+00 -0.38834752697E+02  0.12037850194E+02  0.40659145363E+02  0.00000000000E+00 0.  1.
         11    1    3    3    0    0 -0.10445385743E+02  0.83821598696E+01 -0.71215985338E+01  0.15168515199E+02  0.51100000000E-03 0. -1.
        -11    1    3    3    0    0  0.52691231422E+01  0.15146906869E+02  0.46215975233E+01  0.16689865497E+02  0.51100000000E-03 0.  1.
        -12    1    3    3    0    0  0.48323914845E+01  0.15305685958E+02 -0.95378491837E+01  0.18670473941E+02  0.00000000000E+00 0.  1.
</event>
<event>
 7    1  0.2945316E-011  0.5052886E+02  0.7816164E-02  0.1300439E+00
        -11   -1    0    0    0    0  0.00000000000E+00  0.00000000000E+00  0.45593999997E+02  0.45594000000E+02  0.51100000000E-03 0.  1.
         11   -1    0    0    0    0 -0.00000000000E+00 -0.00000000000E+00 -0.45593999997E+02  0.45594000000E+02  0.51100000000E-03 0. -1.
    9900012    2    1    2    0    0  0.11125308156E+02  0.28109732857E+02 -0.27188890803E+02  0.50528863930E+02  0.30000012402E+02 0.  0.
        -12    1    1    2    0    0 -0.11125308156E+02 -0.28109732857E+02  0.27188890803E+02  0.40659136070E+02  0.00000000000E+00 0.  1.
         11    1    3    3    0    0  0.15787906178E+02  0.13641692400E+02 -0.19749190947E+02  0.28729502195E+02  0.51100000000E-03 0. -1.
        -11    1    3    3    0    0  0.19697942382E+01  0.43655917508E+01 -0.84071398590E+01  0.96756643981E+01  0.51100000000E-03 0.  1.
         12    1    3    3    0    0 -0.66323922607E+01  0.10102448706E+02  0.96744000356E+00  0.12123697337E+02  0.00000000000E+00 0. -1.
</event>
<event>
 7    1  0.2945316E-011  0.5052886E+02  0.7816164E-02  0.1300439E+00
        -11   -1    0    0    0    0  0.00000000000E+00  0.00000000000E+00  0.45593999997E+02  0.45594000000E+02  0.51100000000E-03 0.  1.
         11   -1    0    0    0    0 -0.00000000000E+00 -0.00000000000E+00 -0.45593999997E+02  0.45594000000E+02  0.51100000000E-03 0. -1.
    9900012    2    1    2    0    0 -0.19707450145E+02  0.16937323087E+02 -0.31271541976E+02  0.50528857828E+02  0.29999993855E+02 0.  0.
        -12    1    1    2    0    0  0.19707450145E+02 -0.16937323087E+02  0.31271541976E+02  0.40659142172E+02  0.00000000000E+00 0.  1.
         11    1    3    3    0    0 -0.52191922381E+01 -0.12577084714E+01 -0.32263168764E+01  0.62634590336E+01  0.51100000000E-03 0. -1.
        -11    1    3    3    0    0 -0.12282443778E+02  0.22667407585E+01 -0.65900289813E+00  0.12507230865E+02  0.51100000000E-03 0.  1.
         12    1    3    3    0    0 -0.22058141284E+01  0.15928290800E+02 -0.27386222202E+02  0.31758167930E+02  0.00000000000E+00 0. -1.
</event>
<event>
 7    1  0.2945316E-011  0.5052886E+02  0.7816164E-02  0.1300439E+00
        -11   -1    0    0    0    0  0.00000000000E+00  0.00000000000E+00  0.45593999997E+02  0.45594000000E+02  0.51100000000E-03 0. -1.
         11   -1    0    0    0    0 -0.00000000000E+00 -0.00000000000E+00 -0.45593999997E+02  0.45594000000E+02  0.51100000000E-03 0.  1.
    9900012    2    1    2    0    0 -0.16639675680E+02  0.11493428079E+02  0.35273049324E+02  0.50528859523E+02  0.29999999006E+02 0.  0.
        -12    1    1    2    0    0  0.16639675680E+02 -0.11493428079E+02 -0.35273049324E+02  0.40659140477E+02  0.00000000000E+00 0.  1.
         11    1    3    3    0    0 -0.29453545542E+01 -0.36347781216E+01  0.22460871109E+01  0.51895696367E+01  0.51100000000E-03 0. -1.
        -11    1    3    3    0    0  0.58289546459E+01 -0.77473425862E+00  0.64322612713E+01  0.87149819712E+01  0.51100000000E-03 0.  1.
         12    1    3    3    0    0 -0.19523275772E+02  0.15902940459E+02  0.26594700941E+02  0.36624307915E+02  0.00000000000E+00 0. -1.
</event>
<event>
 7    1  0.2945316E-011  0.5052886E+02  0.7816164E-02  0.1300439E+00
        -11   -1    0    0    0    0  0.00000000000E+00  0.00000000000E+00  0.45593999997E+02  0.45594000000E+02  0.51100000000E-03 0.  1.
         11   -1    0    0    0    0 -0.00000000000E+00 -0.00000000000E+00 -0.45593999997E+02  0.45594000000E+02  0.51100000000E-03 0. -1.
    9900012    2    1    2    0    0  0.16553687140E+02 -0.28921301395E+02 -0.23295901780E+02  0.50528864839E+02  0.30000015165E+02 0.  0.
        -12    1    1    2    0    0 -0.16553687140E+02  0.28921301395E+02  0.23295901780E+02  0.40659135161E+02  0.00000000000E+00 0.  1.
         11    1    3    3    0    0  0.12259713888E+02 -0.28283792702E+02 -0.22368037093E+02  0.38086777205E+02  0.51100000000E-03 0. -1.
        -11    1    3    3    0    0 -0.30224228219E+01 -0.34195274636E+01 -0.35648287260E-01  0.45639323889E+01  0.51100000000E-03 0.  1.
        -12    1    3    3    0    0  0.73163960743E+01  0.27820187712E+01 -0.89221639998E+00  0.78781552450E+01  0.00000000000E+00 0.  1.
</event>
<event>
 7    1  0.2945316E-011  0.5052886E+02  0.7816164E-02  0.1300439E+00
        -11   -1    0    0    0    0  0.00000000000E+00  0.00000000000E+00  0.45593999997E+02  0.45594000000E+02  0.51100000000E-03 0. -1.
         11   -1    0    0    0    0 -0.00000000000E+00 -0.00000000000E+00 -0.45593999997E+02  0.45594000000E+02  0.51100000000E-03 0.  1.
    9900012    2    1    2    0    0  0.23976002229E+02  0.99751742867E+01 -0.31285981840E+02  0.50528862717E+02  0.30000008714E+02 0.  0.
        -12    1    1    2    0    0 -0.23976002229E+02 -0.99751742867E+01  0.31285981840E+02  0.40659137283E+02  0.00000000000E+00 0.  1.
         11    1    3    3    0    0  0.77456125453E+01 -0.49682909957E+01 -0.15023646135E+02  0.17617842449E+02  0.51100000000E-03 0. -1.
        -11    1    3    3    0    0  0.30437011630E+01 -0.29381354666E+01 -0.82880728266E+01  0.93053161273E+01  0.51100000000E-03 0.  1.
        -12    1    3    3    0    0  0.13186688521E+02  0.17881600749E+02 -0.79742628782E+01  0.23605704140E+02  0.00000000000E+00 0.  1.
</event>
<event>
 7    1  0.2945316E-011  0.5052886E+02  0.7816164E-02  0.1300439E+00
        -11   -1    0    0    0    0  0.00000000000E+00  0.00000000000E+00  0.45593999997E+02  0.45594000000E+02  0.51100000000E-03 0. -1.
         11   -1    0    0    0    0 -0.00000000000E+00 -0.00000000000E+00 -0.45593999997E+02  0.45594000000E+02  0.51100000000E-03 0.  1.
    9900012    2    1    2    0    0 -0.16529781862E+02  0.24559743929E+02  0.27870253379E+02  0.50528859162E+02  0.29999997908E+02 0.  0.
        -12    1    1    2    0    0  0.16529781862E+02 -0.24559743929E+02 -0.27870253379E+02  0.40659140838E+02  0.00000000000E+00 0.  1.
         11    1    3    3    0    0 -0.51949368347E+01  0.16170435220E+02  0.21958610896E+02  0.27760600437E+02  0.51100000000E-03 0. -1.
        -11    1    3    3    0    0  0.35630121992E+00  0.80810666124E+00  0.85424968309E+01  0.85880288369E+01  0.51100000000E-03 0.  1.
        -12    1    3    3    0    0 -0.11691146247E+02  0.75812020482E+01 -0.26308543474E+01  0.14180229888E+02  0.00000000000E+00 0.  1.
</event>
<event>
 7    1  0.2945316E-011  0.5052888E+02  0.7816164E-02  0.1300439E+00
        -11   -1    0    0    0    0  0.00000000000E+00  0.00000000000E+00  0.45593999997E+02  0.45594000000E+02  0.51100000000E-03 0.  1.
         11   -1    0    0    0    0 -0.00000000000E+00 -0.00000000000E+00 -0.45593999997E+02  0.45594000000E+02  0.51100000000E-03 0. -1.
    9900012    2    1    2    0    0 -0.10313476118E+02 -0.22989929199E+02 -0.31910178759E+02  0.50528878728E+02  0.30000057381E+02 0.  0.
        -12    1    1    2    0    0  0.10313476118E+02  0.22989929199E+02  0.31910178759E+02  0.40659121272E+02  0.00000000000E+00 0.  1.
         11    1    3    3    0    0 -0.51555992426E+01 -0.12636283671E+02 -0.33160725809E+01  0.14044650447E+02  0.51100000000E-03 0. -1.
        -11    1    3    3    0    0 -0.48256068078E+01 -0.16136150452E+02 -0.22019470290E+02  0.27722173518E+02  0.51100000000E-03 0.  1.
        -12    1    3    3    0    0 -0.33227006728E+00  0.57825049240E+01 -0.65746358880E+01  0.87620547621E+01  0.00000000000E+00 0.  1.
</event>
<event>
 7    1  0.2945316E-011  0.5052886E+02  0.7816164E-02  0.1300439E+00
        -11   -1    0    0    0    0  0.00000000000E+00  0.00000000000E+00  0.45593999997E+02  0.45594000000E+02  0.51100000000E-03 0. -1.
         11   -1    0    0    0    0 -0.00000000000E+00 -0.00000000000E+00 -0.45593999997E+02  0.45594000000E+02  0.51100000000E-03 0.  1.
    9900012    2    1    2    0    0  0.74293508647E+01  0.37311795049E+02  0.14345749325E+02  0.50528858005E+02  0.29999994392E+02 0.  0.
        -12    1    1    2    0    0 -0.74293508647E+01 -0.37311795049E+02 -0.14345749325E+02  0.40659141995E+02  0.00000000000E+00 0.  1.
         11    1    3    3    0    0  0.79571482567E+01  0.19939209265E+02  0.16189624439E+02  0.26888514541E+02  0.51100000000E-03 0. -1.
        -11    1    3    3    0    0  0.36419256488E+01  0.11337825247E+01  0.43333536794E+01  0.57729576143E+01  0.51100000000E-03 0.  1.
        -12    1    3    3    0    0 -0.41697230408E+01  0.16238803260E+02 -0.61772287930E+01  0.17867385850E+02  0.00000000000E+00 0.  1.
</event>
<event>
 7    1  0.2945316E-011  0.5052885E+02  0.7816164E-02  0.1300439E+00
        -11   -1    0    0    0    0  0.00000000000E+00  0.00000000000E+00  0.45593999997E+02  0.45594000000E+02  0.51100000000E-03 0. -1.
         11   -1    0    0    0    0 -0.00000000000E+00 -0.00000000000E+00 -0.45593999997E+02  0.45594000000E+02  0.51100000000E-03 0.  1.
    9900012    2    1    2    0    0  0.28196671030E+02  0.99609547958E+01  0.27548020167E+02  0.50528852287E+02  0.29999977011E+02 0.  0.
        -12    1    1    2    0    0 -0.28196671030E+02 -0.99609547958E+01 -0.27548020167E+02  0.40659147713E+02  0.00000000000E+00 0.  1.
         11    1    3    3    0    0  0.31295119644E+01 -0.39419920651E+01  0.89956431497E+00  0.51129602771E+01  0.51100000000E-03 0. -1.
        -11    1    3    3    0    0  0.12081818565E+01  0.12774859644E+02  0.10545281609E+02  0.16609024860E+02  0.51100000000E-03 0.  1.
         12    1    3    3    0    0  0.23858977209E+02  0.11280872165E+01  0.16103174243E+02  0.28806867149E+02  0.00000000000E+00 0. -1.
</event>
<event>
 7    1  0.2945316E-011  0.5052886E+02  0.7816164E-02  0.1300439E+00
        -11   -1    0    0    0    0  0.00000000000E+00  0.00000000000E+00  0.45593999997E+02  0.45594000000E+02  0.51100000000E-03 0.  1.
         11   -1    0    0    0    0 -0.00000000000E+00 -0.00000000000E+00 -0.45593999997E+02  0.45594000000E+02  0.51100000000E-03 0. -1.
    9900012    2    1    2    0    0 -0.91166194014E+01  0.32034277507E+02 -0.23320756288E+02  0.50528863775E+02  0.30000011931E+02 0.  0.
        -12    1    1    2    0    0  0.91166194014E+01 -0.32034277507E+02  0.23320756288E+02  0.40659136225E+02  0.00000000000E+00 0.  1.
         11    1    3    3    0    0 -0.25253741616E+01 -0.23683629174E+01 -0.77923672215E+01  0.85268777838E+01  0.51100000000E-03 0. -1.
        -11    1    3    3    0    0 -0.36968275948E+01  0.66832040803E+01  0.33499439197E+01  0.83398966163E+01  0.51100000000E-03 0.  1.
        -12    1    3    3    0    0 -0.28944176450E+01  0.27719436344E+02 -0.18878332986E+02  0.33662089375E+02  0.00000000000E+00 0.  1.
</event>
<event>
 7    1  0.2945316E-011  0.5052887E+02  0.7816164E-02  0.1300439E+00
        -11   -1    0    0    0    0  0.00000000000E+00  0.00000000000E+00  0.45593999997E+02  0.45594000000E+02  0.51100000000E-03 0.  1.
         11   -1    0    0    0    0 -0.00000000000E+00 -0.00000000000E+00 -0.45593999997E+02  0.45594000000E+02  0.51100000000E-03 0. -1.
    9900012    2    1    2    0    0 -0.34719208054E+02 -0.48165165096E+01  0.20604434582E+02  0.50528868632E+02  0.30000026694E+02 0.  0.
        -12    1    1    2    0    0  0.34719208054E+02  0.48165165096E+01 -0.20604434582E+02  0.40659131368E+02  0.00000000000E+00 0.  1.
         11    1    3    3    0    0 -0.12506133183E+02  0.58751612685E+01  0.54173773927E+01  0.14841457651E+02  0.51100000000E-03 0. -1.
        -11    1    3    3    0    0  0.37395617112E+01 -0.27372402009E+01  0.46634769094E+01  0.65745587574E+01  0.51100000000E-03 0.  1.
         12    1    3    3    0    0 -0.25952636582E+02 -0.79544375772E+01  0.10523580280E+02  0.29112852224E+02  0.00000000000E+00 0. -1.
</event>
<event>
 7    1  0.2945316E-011  0.5052887E+02  0.7816164E-02  0.1300439E+00
        -11   -1    0    0    0    0  0.00000000000E+00  0.00000000000E+00  0.45593999997E+02  0.45594000000E+02  0.51100000000E-03 0.  1.
         11   -1    0    0    0    0 -0.00000000000E+00 -0.00000000000E+00 -0.45593999997E+02  0.45594000000E+02  0.51100000000E-03 0. -1.
    9900012    2    1    2    0    0 -0.15599303612E+02 -0.36815436240E+02 -0.73790642903E+01  0.50528865620E+02  0.30000017539E+02 0.  0.
        -12    1    1    2    0    0  0.15599303612E+02  0.36815436240E+02  0.73790642903E+01  0.40659134380E+02  0.00000000000E+00 0.  1.
         11    1    3    3    0    0 -0.62534381199E+01 -0.18667571693E+02 -0.20600512916E+01  0.19794633940E+02  0.51100000000E-03 0. -1.
        -11    1    3    3    0    0  0.78646484986E+00 -0.14919561283E+02  0.51583375756E+01  0.15805704117E+02  0.51100000000E-03 0.  1.
        -12    1    3    3    0    0 -0.10132330342E+02 -0.32283032637E+01 -0.10477350574E+02  0.14928527562E+02  0.00000000000E+00 0.  1.
</event>
<event>
 7    1  0.2945316E-011  0.5052885E+02  0.7816164E-02  0.1300439E+00
        -11   -1    0    0    0    0  0.00000000000E+00  0.00000000000E+00  0.45593999997E+02  0.45594000000E+02  0.51100000000E-03 0.  1.
         11   -1    0    0    0    0 -0.00000000000E+00 -0.00000000000E+00 -0.45593999997E+02  0.45594000000E+02  0.51100000000E-03 0. -1.
    9900012    2    1    2    0    0 -0.11570026032E+02  0.21382205238E+02 -0.32589905594E+02  0.50528854044E+02  0.29999982352E+02 0.  0.
        -12    1    1    2    0    0  0.11570026032E+02 -0.21382205238E+02  0.32589905594E+02  0.40659145956E+02  0.00000000000E+00 0.  1.
         11    1    3    3    0    0 -0.10321886113E+02  0.52551195411E+01 -0.57720946700E+01  0.12941201315E+02  0.51100000000E-03 0. -1.
        -11    1    3    3    0    0 -0.87342961999E+01  0.17939791487E+01 -0.15391019437E+02  0.17787348618E+02  0.51100000000E-03 0.  1.
        -12    1    3    3    0    0  0.74861562813E+01  0.14333106548E+02 -0.11426791488E+02  0.19800304111E+02  0.00000000000E+00 0.  1.
</event>
<event>
 7    1  0.2945316E-011  0.5052887E+02  0.7816164E-02  0.1300439E+00
        -11   -1    0    0    0    0  0.00000000000E+00  0.00000000000E+00  0.45593999997E+02  0.45594000000E+02  0.51100000000E-03 0.  1.
         11   -1    0    0    0    0 -0.00000000000E+00 -0.00000000000E+00 -0.45593999997E+02  0.45594000000E+02  0.51100000000E-03 0. -1.
    9900012    2    1    2    0    0 -0.16396710613E+02 -0.23573203458E+02 -0.28785707888E+02  0.50528867953E+02  0.30000024631E+02 0.  0.
        -12    1    1    2    0    0  0.16396710613E+02  0.23573203458E+02  0.28785707888E+02  0.40659132047E+02  0.00000000000E+00 0.  1.
         11    1    3    3    0    0 -0.89435456852E+01 -0.37953689258E+01 -0.51088479448E+01  0.10976892196E+02  0.51100000000E-03 0. -1.
        -11    1    3    3    0    0 -0.15534334150E+02 -0.86454374032E+01 -0.15227434251E+02  0.23407987515E+02  0.51100000000E-03 0.  1.
        -12    1    3    3    0    0  0.80811692219E+01 -0.11132397129E+02 -0.84494256918E+01  0.16143988242E+02  0.00000000000E+00 0.  1.
</event>
<event>
 7    1  0.2945316E-011  0.5052886E+02  0.7816164E-02  0.1300439E+00
        -11   -1    0    0    0    0  0.00000000000E+00  0.00000000000E+00  0.45593999997E+02  0.45594000000E+02  0.51100000000E-03 0.  1.
         11   -1    0    0    0    0 -0.00000000000E+00 -0.00000000000E+00 -0.45593999997E+02  0.45594000000E+02  0.51100000000E-03 0. -1.
    9900012    2    1    2    0    0  0.86067921882E+01  0.35552816862E+02 -0.17750664680E+02  0.50528858898E+02  0.29999997106E+02 0.  0.
        -12    1    1    2    0    0 -0.86067921882E+01 -0.35552816862E+02  0.17750664680E+02  0.40659141102E+02  0.00000000000E+00 0.  1.
         11    1    3    3    0    0  0.22662842561E+01  0.68646047586E+01 -0.46665473389E+01  0.86043888306E+01  0.51100000000E-03 0. -1.
        -11    1    3    3    0    0  0.15210160359E+02  0.23773239413E+02 -0.14425735366E+02  0.31695705252E+02  0.51100000000E-03 0.  1.
         12    1    3    3    0    0 -0.88696524267E+01  0.49149726899E+01  0.13416180248E+01  0.10228764815E+02  0.00000000000E+00 0. -1.
</event>
<event>
 7    1  0.2945316E-011  0.5052894E+02  0.7816164E-02  0.1300439E+00
        -11   -1    0    0    0    0  0.00000000000E+00  0.00000000000E+00  0.45593999997E+02  0.45594000000E+02  0.51100000000E-03 0.  1.
         11   -1    0    0    0    0 -0.00000000000E+00 -0.00000000000E+00 -0.45593999997E+02  0.45594000000E+02  0.51100000000E-03 0. -1.
    9900012    2    1    2    0    0  0.16377650006E+02 -0.35833725244E+02 -0.10043691091E+02  0.50528941780E+02  0.30000249034E+02 0.  0.
        -12    1    1    2    0    0 -0.16377650006E+02  0.35833725244E+02  0.10043691091E+02  0.40659058220E+02  0.00000000000E+00 0.  1.
         11    1    3    3    0    0  0.35045026891E+01 -0.41207285176E+01  0.74724318671E+01  0.92249217277E+01  0.51100000000E-03 0.  1.
        -11    1    3    3    0    0 -0.21167620101E+01 -0.37761649583E+01  0.11938804380E+01  0.44905961699E+01  0.51100000000E-03 0. -1.
         12    1    3    3    0    0  0.14989909327E+02 -0.27936831768E+02 -0.18710003396E+02  0.36813423883E+02  0.00000000000E+00 0. -1.
</event>
<event>
 7    1  0.2945316E-011  0.5052885E+02  0.7816164E-02  0.1300439E+00
        -11   -1    0    0    0    0  0.00000000000E+00  0.00000000000E+00  0.45593999997E+02  0.45594000000E+02  0.51100000000E-03 0.  1.
         11   -1    0    0    0    0 -0.00000000000E+00 -0.00000000000E+00 -0.45593999997E+02  0.45594000000E+02  0.51100000000E-03 0. -1.
    9900012    2    1    2    0    0  0.15595129125E+02 -0.33460976277E+02 -0.17038813582E+02  0.50528853992E+02  0.29999982193E+02 0.  0.
        -12    1    1    2    0    0 -0.15595129125E+02  0.33460976277E+02  0.17038813582E+02  0.40659146008E+02  0.00000000000E+00 0.  1.
         11    1    3    3    0    0  0.70386240555E+01 -0.94065601449E+01 -0.21221622234E+01  0.11938558335E+02  0.51100000000E-03 0. -1.
        -11    1    3    3    0    0  0.13839293732E+02 -0.26307303619E+02 -0.11286027431E+02  0.31795828187E+02  0.51100000000E-03 0.  1.
        -12    1    3    3    0    0 -0.52827886630E+01  0.22528874864E+01 -0.36306239277E+01  0.67944674691E+01  0.00000000000E+00 0.  1.
</event>
<event>
 7    1  0.2945316E-011  0.5052886E+02  0.7816164E-02  0.1300439E+00
        -11   -1    0    0    0    0  0.00000000000E+00  0.00000000000E+00  0.45593999997E+02  0.45594000000E+02  0.51100000000E-03 0.  1.
         11   -1    0    0    0    0 -0.00000000000E+00 -0.00000000000E+00 -0.45593999997E+02  0.45594000000E+02  0.51100000000E-03 0. -1.
    9900012    2    1    2    0    0  0.64249063029E+01 -0.41769312849E+01 -0.39930436388E+02  0.50528856796E+02  0.29999990716E+02 0.  0.
        -12    1    1    2    0    0 -0.64249063029E+01  0.41769312849E+01  0.39930436388E+02  0.40659143204E+02  0.00000000000E+00 0.  1.
         11    1    3    3    0    0  0.91129568732E+01 -0.11071827715E+02 -0.93892097694E+01  0.17140262900E+02  0.51100000000E-03 0. -1.
        -11    1    3    3    0    0  0.15413735631E+01 -0.21244074791E+01 -0.24775951240E+01  0.36093513902E+01  0.51100000000E-03 0.  1.
         12    1    3    3    0    0 -0.42294241334E+01  0.90193039095E+01 -0.28063631495E+02  0.29779242505E+02  0.00000000000E+00 0. -1.
</event>
<event>
 7    1  0.2945316E-011  0.5052886E+02  0.7816164E-02  0.1300439E+00
        -11   -1    0    0    0    0  0.00000000000E+00  0.00000000000E+00  0.45593999997E+02  0.45594000000E+02  0.51100000000E-03 0. -1.
         11   -1    0    0    0    0 -0.00000000000E+00 -0.00000000000E+00 -0.45593999997E+02  0.45594000000E+02  0.51100000000E-03 0.  1.
    9900012    2    1    2    0    0  0.20237953047E+02  0.55129552178E+01  0.34830995998E+02  0.50528859564E+02  0.29999999131E+02 0.  0.
        -12    1    1    2    0    0 -0.20237953047E+02 -0.55129552178E+01 -0.34830995998E+02  0.40659140436E+02  0.00000000000E+00 0.  1.
         11    1    3    3    0    0  0.12577066856E+02  0.28312682520E+00  0.76643583113E+01  0.14731095006E+02  0.51100000000E-03 0. -1.
        -11    1    3    3    0    0  0.40510808563E+01 -0.82941484850E+01  0.93295120643E+01  0.13124174291E+02  0.51100000000E-03 0.  1.
        -12    1    3    3    0    0  0.36098053352E+01  0.13523976878E+02  0.17837125623E+02  0.22673590268E+02  0.00000000000E+00 0.  1.
</event>
<event>
 7    1  0.2945316E-011  0.5052887E+02  0.7816164E-02  0.1300439E+00
        -11   -1    0    0    0    0  0.00000000000E+00  0.00000000000E+00  0.45593999997E+02  0.45594000000E+02  0.51100000000E-03 0. -1.
         11   -1    0    0    0    0 -0.00000000000E+00 -0.00000000000E+00 -0.45593999997E+02  0.45594000000E+02  0.51100000000E-03 0.  1.
    9900012    2    1    2    0    0 -0.37594112617E+00 -0.20877808161E+02  0.34887542842E+02  0.50528870018E+02  0.30000030907E+02 0.  0.
        -12    1    1    2    0    0  0.37594112617E+00  0.20877808161E+02 -0.34887542842E+02  0.40659129982E+02  0.00000000000E+00 0.  1.
         11    1    3    3    0    0  0.79110969527E+01 -0.11591526034E+01  0.65334834701E+01  0.10325478016E+02  0.51100000000E-03 0. -1.
        -11    1    3    3    0    0 -0.85972163649E+01 -0.67816322398E+00  0.13642042220E+02  0.16139310728E+02  0.51100000000E-03 0.  1.
         12    1    3    3    0    0  0.31017828598E+00 -0.19040492334E+02  0.14712017152E+02  0.24064081274E+02  0.00000000000E+00 0. -1.
</event>
<event>
 7    1  0.2945316E-011  0.5052887E+02  0.7816164E-02  0.1300439E+00
        -11   -1    0    0    0    0  0.00000000000E+00  0.00000000000E+00  0.45593999997E+02  0.45594000000E+02  0.51100000000E-03 0. -1.
         11   -1    0    0    0    0 -0.00000000000E+00 -0.00000000000E+00 -0.45593999997E+02  0.45594000000E+02  0.51100000000E-03 0.  1.
    9900012    2    1    2    0    0  0.38356056102E+02  0.13460331518E+02 -0.89310797685E+00  0.50528865649E+02  0.30000017628E+02 0.  0.
        -12    1    1    2    0    0 -0.38356056102E+02 -0.13460331518E+02  0.89310797685E+00  0.40659134351E+02  0.00000000000E+00 0.  1.
         11    1    3    3    0    0  0.29013306033E+02  0.93904596454E+01  0.10303374813E+02  0.32188696651E+02  0.51100000000E-03 0. -1.
        -11    1    3    3    0    0  0.11271132598E+02  0.23589373758E+01 -0.10691075003E+02  0.15713118741E+02  0.51100000000E-03 0.  1.
        -12    1    3    3    0    0 -0.19283825283E+01  0.17109344964E+01 -0.50540778689E+00  0.26270502579E+01  0.00000000000E+00 0.  1.
</event>
<event>
 7    1  0.2945316E-011  0.5052885E+02  0.7816164E-02  0.1300439E+00
        -11   -1    0    0    0    0  0.00000000000E+00  0.00000000000E+00  0.45593999997E+02  0.45594000000E+02  0.51100000000E-03 0.  1.
         11   -1    0    0    0    0 -0.00000000000E+00 -0.00000000000E+00 -0.45593999997E+02  0.45594000000E+02  0.51100000000E-03 0. -1.
    9900012    2    1    2    0    0  0.34695597732E+01 -0.17145240125E+02 -0.36703804813E+02  0.50528851070E+02  0.29999973312E+02 0.  0.
        -12    1    1    2    0    0 -0.34695597732E+01  0.17145240125E+02  0.36703804813E+02  0.40659148930E+02  0.00000000000E+00 0.  1.
         11    1    3    3    0    0  0.29000254894E+01 -0.11988491999E+02 -0.11064332657E+02  0.16569657379E+02  0.51100000000E-03 0. -1.
        -11    1    3    3    0    0  0.66080064386E+01 -0.10203026268E+02 -0.77525049851E+01  0.14417656811E+02  0.51100000000E-03 0.  1.
         12    1    3    3    0    0 -0.60384721548E+01  0.50462781423E+01 -0.17886967171E+02  0.19541536880E+02  0.00000000000E+00 0. -1.
</event>
<event>
 7    1  0.2945316E-011  0.5052884E+02  0.7816164E-02  0.1300439E+00
        -11   -1    0    0    0    0  0.00000000000E+00  0.00000000000E+00  0.45593999997E+02  0.45594000000E+02  0.51100000000E-03 0.  1.
         11   -1    0    0    0    0 -0.00000000000E+00 -0.00000000000E+00 -0.45593999997E+02  0.45594000000E+02  0.51100000000E-03 0. -1.
    9900012    2    1    2    0    0 -0.16115320713E+02 -0.22543277851E+02 -0.29753396401E+02  0.50528837006E+02  0.29999930564E+02 0.  0.
        -12    1    1    2    0    0  0.16115320713E+02  0.22543277851E+02  0.29753396401E+02  0.40659162994E+02  0.00000000000E+00 0.  1.
         11    1    3    3    0    0 -0.72722795590E+01 -0.88428585243E+01 -0.17539479971E+02  0.20945537825E+02  0.51100000000E-03 0. -1.
        -11    1    3    3    0    0 -0.51703822836E+01 -0.21036089898E+01 -0.15917223984E+02  0.16867603368E+02  0.51100000000E-03 0.  1.
        -12    1    3    3    0    0 -0.36726588707E+01 -0.11596810337E+02  0.37033075544E+01  0.12715695814E+02  0.00000000000E+00 0.  1.
</event>
<event>
 7    1  0.2945316E-011  0.5052887E+02  0.7816164E-02  0.1300439E+00
        -11   -1    0    0    0    0  0.00000000000E+00  0.00000000000E+00  0.45593999997E+02  0.45594000000E+02  0.51100000000E-03 0.  1.
         11   -1    0    0    0    0 -0.00000000000E+00 -0.00000000000E+00 -0.45593999997E+02  0.45594000000E+02  0.51100000000E-03 0. -1.
    9900012    2    1    2    0    0 -0.19026262998E+02  0.33950723348E+02 -0.11769234797E+02  0.50528865882E+02  0.30000018335E+02 0.  0.
        -12    1    1    2    0    0  0.19026262998E+02 -0.33950723348E+02  0.11769234797E+02  0.40659134118E+02  0.00000000000E+00 0.  1.
         11    1    3    3    0    0 -0.57952290882E+01  0.35915002870E+01 -0.87075222101E+01  0.11059136395E+02  0.51100000000E-03 0. -1.
        -11    1    3    3    0    0 -0.18541126308E+02  0.17759382584E+02 -0.22460109479E+01  0.25772341763E+02  0.51100000000E-03 0.  1.
        -12    1    3    3    0    0  0.53100923974E+01  0.12599840476E+02 -0.81570163946E+00  0.13697387724E+02  0.00000000000E+00 0.  1.
</event>
<event>
 7    1  0.2945316E-011  0.5052882E+02  0.7816164E-02  0.1300439E+00
        -11   -1    0    0    0    0  0.00000000000E+00  0.00000000000E+00  0.45593999997E+02  0.45594000000E+02  0.51100000000E-03 0.  1.
         11   -1    0    0    0    0 -0.00000000000E+00 -0.00000000000E+00 -0.45593999997E+02  0.45594000000E+02  0.51100000000E-03 0. -1.
    9900012    2    1    2    0    0  0.31008047195E+01  0.11005877434E+02 -0.39018258058E+02  0.50528821579E+02  0.29999883670E+02 0.  0.
        -12    1    1    2    0    0 -0.31008047195E+01 -0.11005877434E+02  0.39018258058E+02  0.40659178421E+02  0.00000000000E+00 0.  1.
         11    1    3    3    0    0  0.10957565950E+02  0.29328364541E+01 -0.12995270932E+02  0.17249546315E+02  0.51100000000E-03 0. -1.
        -11    1    3    3    0    0  0.29020377665E+01 -0.37140574753E+01 -0.48206842890E+01  0.67420355534E+01  0.51100000000E-03 0.  1.
         12    1    3    3    0    0 -0.10758798997E+02  0.11787098455E+02 -0.21202302837E+02  0.26537239710E+02  0.00000000000E+00 0. -1.
</event>
<event>
 7    1  0.2945316E-011  0.5052887E+02  0.7816164E-02  0.1300439E+00
        -11   -1    0    0    0    0  0.00000000000E+00  0.00000000000E+00  0.45593999997E+02  0.45594000000E+02  0.51100000000E-03 0.  1.
         11   -1    0    0    0    0 -0.00000000000E+00 -0.00000000000E+00 -0.45593999997E+02  0.45594000000E+02  0.51100000000E-03 0. -1.
    9900012    2    1    2    0    0 -0.13796085094E+02  0.13848108072E+02 -0.35651972664E+02  0.50528865529E+02  0.30000017262E+02 0.  0.
        -12    1    1    2    0    0  0.13796085094E+02 -0.13848108072E+02  0.35651972664E+02  0.40659134471E+02  0.00000000000E+00 0.  1.
         11    1    3    3    0    0 -0.66580189742E+00  0.23623552399E+01  0.37640465371E+00  0.24830817890E+01  0.51100000000E-03 0. -1.
        -11    1    3    3    0    0 -0.94876903454E+00  0.17684701840E+02 -0.16470748927E+02  0.24185417348E+02  0.51100000000E-03 0.  1.
         12    1    3    3    0    0 -0.12181514162E+02 -0.61989490076E+01 -0.19557628391E+02  0.23860366392E+02  0.00000000000E+00 0. -1.
</event>
<event>
 7    1  0.2945316E-011  0.5052886E+02  0.7816164E-02  0.1300439E+00
        -11   -1    0    0    0    0  0.00000000000E+00  0.00000000000E+00  0.45593999997E+02  0.45594000000E+02  0.51100000000E-03 0. -1.
         11   -1    0    0    0    0 -0.00000000000E+00 -0.00000000000E+00 -0.45593999997E+02  0.45594000000E+02  0.51100000000E-03 0.  1.
    9900012    2    1    2    0    0 -0.30615193182E+02 -0.23386144757E+02  0.12998617305E+02  0.50528857461E+02  0.29999992739E+02 0.  0.
        -12    1    1    2    0    0  0.30615193182E+02  0.23386144757E+02 -0.12998617305E+02  0.40659142539E+02  0.00000000000E+00 0.  1.
         11    1    3    3    0    0 -0.19580414415E+02 -0.25229202076E+02  0.12789695163E+02  0.34401766941E+02  0.51100000000E-03 0. -1.
        -11    1    3    3    0    0 -0.84898058117E+01 -0.23099235557E+01  0.42751919032E+01  0.97821171341E+01  0.51100000000E-03 0.  1.
        -12    1    3    3    0    0 -0.25449729551E+01  0.41529808748E+01 -0.40662697618E+01  0.63449733857E+01  0.00000000000E+00 0.  1.
</event>
<event>
 7    1  0.2945316E-011  0.5052889E+02  0.7816164E-02  0.1300439E+00
        -11   -1    0    0    0    0  0.00000000000E+00  0.00000000000E+00  0.45593999997E+02  0.45594000000E+02  0.51100000000E-03 0.  1.
         11   -1    0    0    0    0 -0.00000000000E+00 -0.00000000000E+00 -0.45593999997E+02  0.45594000000E+02  0.51100000000E-03 0. -1.
    9900012    2    1    2    0    0 -0.32592560607E+00 -0.13521704513E+02 -0.38343456653E+02  0.50528888001E+02  0.30000085567E+02 0.  0.
        -12    1    1    2    0    0  0.32592560607E+00  0.13521704513E+02  0.38343456653E+02  0.40659111999E+02  0.00000000000E+00 0.  1.
         11    1    3    3    0    0  0.45196139454E+01 -0.11426070178E+02 -0.95479991107E+01  0.15561050003E+02  0.51100000000E-03 0. -1.
        -11    1    3    3    0    0  0.51040308084E+01 -0.60266818873E+01 -0.64621350922E+01  0.10204470357E+02  0.51100000000E-03 0.  1.
         12    1    3    3    0    0 -0.99495703599E+01  0.39310475521E+01 -0.22333322450E+02  0.24763367640E+02  0.00000000000E+00 0. -1.
</event>
<event>
 7    1  0.2945316E-011  0.5052883E+02  0.7816164E-02  0.1300439E+00
        -11   -1    0    0    0    0  0.00000000000E+00  0.00000000000E+00  0.45593999997E+02  0.45594000000E+02  0.51100000000E-03 0.  1.
         11   -1    0    0    0    0 -0.00000000000E+00 -0.00000000000E+00 -0.45593999997E+02  0.45594000000E+02  0.51100000000E-03 0. -1.
    9900012    2    1    2    0    0  0.66607195855E+01  0.80378844592E+01 -0.39296254108E+02  0.50528826879E+02  0.29999899782E+02 0.  0.
        -12    1    1    2    0    0 -0.66607195855E+01 -0.80378844592E+01  0.39296254108E+02  0.40659173121E+02  0.00000000000E+00 0.  1.
         11    1    3    3    0    0 -0.42117817716E+01  0.12247574951E+01 -0.13994240698E+02  0.14665534753E+02  0.51100000000E-03 0. -1.
        -11    1    3    3    0    0  0.57920137807E+01  0.10455505102E+01 -0.27295526650E+02  0.27922864732E+02  0.51100000000E-03 0.  1.
        -12    1    3    3    0    0  0.50804875764E+01  0.57675764539E+01  0.19935132401E+01  0.79404273943E+01  0.00000000000E+00 0.  1.
</event>
<event>
 7    1  0.2945316E-011  0.5052885E+02  0.7816164E-02  0.1300439E+00
        -11   -1    0    0    0    0  0.00000000000E+00  0.00000000000E+00  0.45593999997E+02  0.45594000000E+02  0.51100000000E-03 0.  1.
         11   -1    0    0    0    0 -0.00000000000E+00 -0.00000000000E+00 -0.45593999997E+02  0.45594000000E+02  0.51100000000E-03 0. -1.
    9900012    2    1    2    0    0  0.33130400403E+02  0.21273706322E+02 -0.10147535840E+02  0.50528849797E+02  0.29999969444E+02 0.  0.
        -12    1    1    2    0    0 -0.33130400403E+02 -0.21273706322E+02  0.10147535840E+02  0.40659150203E+02  0.00000000000E+00 0.  1.
         11    1    3    3    0    0  0.11436201743E+01  0.60342458284E+01 -0.78334554477E-01  0.61421597491E+01  0.51100000000E-03 0. -1.
        -11    1    3    3    0    0  0.85056895646E+01  0.13418128264E+02  0.47241882050E+01  0.16574404229E+02  0.51100000000E-03 0.  1.
        -12    1    3    3    0    0  0.23481090665E+02  0.18213322298E+01 -0.14793389490E+02  0.27812285819E+02  0.00000000000E+00 0.  1.
</event>
<event>
 7    1  0.2945316E-011  0.5052886E+02  0.7816164E-02  0.1300439E+00
        -11   -1    0    0    0    0  0.00000000000E+00  0.00000000000E+00  0.45593999997E+02  0.45594000000E+02  0.51100000000E-03 0. -1.
         11   -1    0    0    0    0 -0.00000000000E+00 -0.00000000000E+00 -0.45593999997E+02  0.45594000000E+02  0.51100000000E-03 0.  1.
    9900012    2    1    2    0    0  0.76760461743E+01 -0.11049461284E+02  0.38368656364E+02  0.50528855018E+02  0.29999985311E+02 0.  0.
        -12    1    1    2    0    0 -0.76760461743E+01  0.11049461284E+02 -0.38368656364E+02  0.40659144982E+02  0.00000000000E+00 0.  1.
         11    1    3    3    0    0  0.42731374463E+00  0.10103449800E+01  0.78671240005E+00  0.13499298784E+01  0.51100000000E-03 0. -1.
        -11    1    3    3    0    0  0.60946380382E+01 -0.67238836243E+01 -0.19414033330E+01  0.92803163185E+01  0.51100000000E-03 0.  1.
         12    1    3    3    0    0  0.11540943915E+01 -0.53359226399E+01  0.39523347297E+02  0.39898608821E+02  0.00000000000E+00 0. -1.
</event>
<event>
 7    1  0.2945316E-011  0.5052886E+02  0.7816164E-02  0.1300439E+00
        -11   -1    0    0    0    0  0.00000000000E+00  0.00000000000E+00  0.45593999997E+02  0.45594000000E+02  0.51100000000E-03 0.  1.
         11   -1    0    0    0    0 -0.00000000000E+00 -0.00000000000E+00 -0.45593999997E+02  0.45594000000E+02  0.51100000000E-03 0. -1.
    9900012    2    1    2    0    0 -0.25458652346E+02 -0.16110131745E+02 -0.27303593619E+02  0.50528861438E+02  0.30000004826E+02 0.  0.
        -12    1    1    2    0    0  0.25458652346E+02  0.16110131745E+02  0.27303593619E+02  0.40659138562E+02  0.00000000000E+00 0.  1.
         11    1    3    3    0    0  0.43103031942E+01  0.26505668966E+01 -0.11606962673E+01  0.51914771101E+01  0.51100000000E-03 0. -1.
        -11    1    3    3    0    0 -0.60573614537E+01 -0.62543898636E+01 -0.12566211671E+02  0.15287861079E+02  0.51100000000E-03 0.  1.
        -12    1    3    3    0    0 -0.23711594087E+02 -0.12506308778E+02 -0.13576685680E+02  0.30049523248E+02  0.00000000000E+00 0.  1.
</event>
<event>
 7    1  0.2945316E-011  0.5052885E+02  0.7816164E-02  0.1300439E+00
        -11   -1    0    0    0    0  0.00000000000E+00  0.00000000000E+00  0.45593999997E+02  0.45594000000E+02  0.51100000000E-03 0. -1.
         11   -1    0    0    0    0 -0.00000000000E+00 -0.00000000000E+00 -0.45593999997E+02  0.45594000000E+02  0.51100000000E-03 0.  1.
    9900012    2    1    2    0    0  0.32515725034E+02 -0.22711819170E+02  0.89480269544E+01  0.50528852310E+02  0.29999977081E+02 0.  0.
        -12    1    1    2    0    0 -0.32515725034E+02  0.22711819170E+02 -0.89480269544E+01  0.40659147690E+02  0.00000000000E+00 0.  1.
         11    1    3    3    0    0  0.80156458763E+01 -0.62924839851E+01  0.64521099616E+01  0.12061328979E+02  0.51100000000E-03 0. -1.
        -11    1    3    3    0    0  0.24736872512E+01 -0.12585880178E+02  0.84139013313E+01  0.15340053596E+02  0.51100000000E-03 0.  1.
        -12    1    3    3    0    0  0.22026391906E+02 -0.38334550075E+01 -0.59179843385E+01  0.23127469735E+02  0.00000000000E+00 0.  1.
</event>
<event>
 7    1  0.2945316E-011  0.5052887E+02  0.7816164E-02  0.1300439E+00
        -11   -1    0    0    0    0  0.00000000000E+00  0.00000000000E+00  0.45593999997E+02  0.45594000000E+02  0.51100000000E-03 0. -1.
         11   -1    0    0    0    0 -0.00000000000E+00 -0.00000000000E+00 -0.45593999997E+02  0.45594000000E+02  0.51100000000E-03 0.  1.
    9900012    2    1    2    0    0  0.23354196256E+02  0.29900202681E+02  0.14619311533E+02  0.50528869748E+02  0.30000030087E+02 0.  0.
        -12    1    1    2    0    0 -0.23354196256E+02 -0.29900202681E+02 -0.14619311533E+02  0.40659130252E+02  0.00000000000E+00 0.  1.
         11    1    3    3    0    0  0.13820727173E+02  0.89408577744E+01  0.11865577759E+02  0.20291460597E+02  0.51100000000E-03 0. -1.
        -11    1    3    3    0    0  0.86090411567E+01  0.41598456697E+01  0.81549927819E+01  0.12566774175E+02  0.51100000000E-03 0.  1.
        -12    1    3    3    0    0  0.92442792566E+00  0.16799499237E+02 -0.54012590076E+01  0.17670634976E+02  0.00000000000E+00 0.  1.
</event>
<event>
 7    1  0.2945316E-011  0.5052887E+02  0.7816164E-02  0.1300439E+00
        -11   -1    0    0    0    0  0.00000000000E+00  0.00000000000E+00  0.45593999997E+02  0.45594000000E+02  0.51100000000E-03 0.  1.
         11   -1    0    0    0    0 -0.00000000000E+00 -0.00000000000E+00 -0.45593999997E+02  0.45594000000E+02  0.51100000000E-03 0. -1.
    9900012    2    1    2    0    0  0.17320825218E+02 -0.56746886894E+01 -0.36344904113E+02  0.50528866550E+02  0.30000020365E+02 0.  0.
        -12    1    1    2    0    0 -0.17320825218E+02  0.56746886894E+01  0.36344904113E+02  0.40659133450E+02  0.00000000000E+00 0.  1.
         11    1    3    3    0    0 -0.14636254658E+01 -0.44733800844E+01 -0.30428849724E+01  0.56046835861E+01  0.51100000000E-03 0. -1.
        -11    1    3    3    0    0 -0.26484228056E+01  0.41949044597E+00 -0.18811839636E+02  0.19001984800E+02  0.51100000000E-03 0.  1.
        -12    1    3    3    0    0  0.21432873490E+02 -0.16207990510E+01 -0.14490179504E+02  0.25922198164E+02  0.00000000000E+00 0.  1.
</event>
<event>
 7    1  0.2945316E-011  0.5052885E+02  0.7816164E-02  0.1300439E+00
        -11   -1    0    0    0    0  0.00000000000E+00  0.00000000000E+00  0.45593999997E+02  0.45594000000E+02  0.51100000000E-03 0.  1.
         11   -1    0    0    0    0 -0.00000000000E+00 -0.00000000000E+00 -0.45593999997E+02  0.45594000000E+02  0.51100000000E-03 0. -1.
    9900012    2    1    2    0    0 -0.30119478291E+02  0.19190767554E+02  0.19434442715E+02  0.50528854713E+02  0.29999984385E+02 0.  0.
        -12    1    1    2    0    0  0.30119478291E+02 -0.19190767554E+02 -0.19434442715E+02  0.40659145287E+02  0.00000000000E+00 0.  1.
         11    1    3    3    0    0 -0.27557459016E+02  0.15004310338E+02  0.20915104706E+02  0.37709209502E+02  0.51100000000E-03 0.  1.
        -11    1    3    3    0    0 -0.46535879228E+00  0.77585814028E+01  0.12303874153E+01  0.78693073165E+01  0.51100000000E-03 0. -1.
        -12    1    3    3    0    0 -0.20966604827E+01 -0.35721241864E+01 -0.27110494064E+01  0.49503378942E+01  0.00000000000E+00 0.  1.
</event>
<event>
 7    1  0.2945316E-011  0.5052883E+02  0.7816164E-02  0.1300439E+00
        -11   -1    0    0    0    0  0.00000000000E+00  0.00000000000E+00  0.45593999997E+02  0.45594000000E+02  0.51100000000E-03 0. -1.
         11   -1    0    0    0    0 -0.00000000000E+00 -0.00000000000E+00 -0.45593999997E+02  0.45594000000E+02  0.51100000000E-03 0.  1.
    9900012    2    1    2    0    0  0.20142662293E+02  0.21330017647E+02  0.28150878160E+02  0.50528825904E+02  0.29999896816E+02 0.  0.
        -12    1    1    2    0    0 -0.20142662293E+02 -0.21330017647E+02 -0.28150878160E+02  0.40659174096E+02  0.00000000000E+00 0.  1.
         11    1    3    3    0    0  0.64488762713E+01  0.47765737037E+01  0.11295549704E+02  0.13856157652E+02  0.51100000000E-03 0. -1.
        -11    1    3    3    0    0  0.20792258160E+02  0.11654415618E+02  0.13675836815E+02  0.27480391476E+02  0.51100000000E-03 0.  1.
         12    1    3    3    0    0 -0.70984721386E+01  0.48990283247E+01  0.31794916409E+01  0.91922767758E+01  0.00000000000E+00 0. -1.
</event>
<event>
 7    1  0.2945316E-011  0.5052886E+02  0.7816164E-02  0.1300439E+00
        -11   -1    0    0    0    0  0.00000000000E+00  0.00000000000E+00  0.45593999997E+02  0.45594000000E+02  0.51100000000E-03 0.  1.
         11   -1    0    0    0    0 -0.00000000000E+00 -0.00000000000E+00 -0.45593999997E+02  0.45594000000E+02  0.51100000000E-03 0. -1.
    9900012    2    1    2    0    0  0.14407276344E+02 -0.12994325463E+02 -0.35731548763E+02  0.50528859787E+02  0.29999999807E+02 0.  0.
        -12    1    1    2    0    0 -0.14407276344E+02  0.12994325463E+02  0.35731548763E+02  0.40659140213E+02  0.00000000000E+00 0.  1.
         11    1    3    3    0    0  0.48118686274E+01 -0.69138800074E+01 -0.98468365489E+01  0.12958240881E+02  0.51100000000E-03 0. -1.
        -11    1    3    3    0    0  0.97955733432E+01 -0.80702971814E+01 -0.11374871653E+01  0.12742716784E+02  0.51100000000E-03 0.  1.
         12    1    3    3    0    0 -0.20016562708E+00  0.19898517253E+01 -0.24747225049E+02  0.24827902122E+02  0.00000000000E+00 0. -1.
</event>
<event>
 7    1  0.2945316E-011  0.5052886E+02  0.7816164E-02  0.1300439E+00
        -11   -1    0    0    0    0  0.00000000000E+00  0.00000000000E+00  0.45593999997E+02  0.45594000000E+02  0.51100000000E-03 0.  1.
         11   -1    0    0    0    0 -0.00000000000E+00 -0.00000000000E+00 -0.45593999997E+02  0.45594000000E+02  0.51100000000E-03 0. -1.
    9900012    2    1    2    0    0 -0.24891224934E+02 -0.21348804944E+01 -0.32078575196E+02  0.50528858592E+02  0.29999996176E+02 0.  0.
        -12    1    1    2    0    0  0.24891224934E+02  0.21348804944E+01  0.32078575196E+02  0.40659141408E+02  0.00000000000E+00 0.  1.
         11    1    3    3    0    0  0.16198697628E+01  0.20887116014E+01 -0.13889439915E+01  0.29859437159E+01  0.51100000000E-03 0. -1.
        -11    1    3    3    0    0  0.18908825098E-01 -0.91775269819E+01 -0.96954885345E+01  0.13350275549E+02  0.51100000000E-03 0.  1.
         12    1    3    3    0    0 -0.26530003521E+02  0.49539348861E+01 -0.20994142670E+02  0.34192639327E+02  0.00000000000E+00 0. -1.
</event>
<event>
 7    1  0.2945316E-011  0.5052888E+02  0.7816164E-02  0.1300439E+00
        -11   -1    0    0    0    0  0.00000000000E+00  0.00000000000E+00  0.45593999997E+02  0.45594000000E+02  0.51100000000E-03 0. -1.
         11   -1    0    0    0    0 -0.00000000000E+00 -0.00000000000E+00 -0.45593999997E+02  0.45594000000E+02  0.51100000000E-03 0.  1.
    9900012    2    1    2    0    0  0.40115550310E+02  0.31849468240E+01 -0.58105915564E+01  0.50528877565E+02  0.30000053846E+02 0.  0.
        -12    1    1    2    0    0 -0.40115550310E+02 -0.31849468240E+01  0.58105915564E+01  0.40659122435E+02  0.00000000000E+00 0.  1.
         11    1    3    3    0    0  0.14690451919E+02  0.83768676900E+00  0.35290667218E+01  0.15131602985E+02  0.51100000000E-03 0. -1.
        -11    1    3    3    0    0  0.74385187031E+01  0.43484227107E+01  0.69332970136E+01  0.11059428028E+02  0.51100000000E-03 0.  1.
        -12    1    3    3    0    0  0.17986579688E+02 -0.20011626557E+01 -0.16272955292E+02  0.24337846552E+02  0.00000000000E+00 0.  1.
</event>
<event>
 7    1  0.2945316E-011  0.5052886E+02  0.7816164E-02  0.1300439E+00
        -11   -1    0    0    0    0  0.00000000000E+00  0.00000000000E+00  0.45593999997E+02  0.45594000000E+02  0.51100000000E-03 0. -1.
         11   -1    0    0    0    0 -0.00000000000E+00 -0.00000000000E+00 -0.45593999997E+02  0.45594000000E+02  0.51100000000E-03 0.  1.
    9900012    2    1    2    0    0 -0.18195270489E+02  0.17829111176E+02  0.31689435580E+02  0.50528863255E+02  0.30000010350E+02 0.  0.
        -12    1    1    2    0    0  0.18195270489E+02 -0.17829111176E+02 -0.31689435580E+02  0.40659136745E+02  0.00000000000E+00 0.  1.
         11    1    3    3    0    0 -0.28331660730E+01  0.83201461425E+01  0.22467630167E+01  0.90719130366E+01  0.51100000000E-03 0.  1.
        -11    1    3    3    0    0 -0.13418842427E+02  0.96473333565E+01  0.54748266006E+01  0.17410057425E+02  0.51100000000E-03 0. -1.
         12    1    3    3    0    0 -0.19432619886E+01 -0.13836832262E+00  0.23967845962E+02  0.24046892794E+02  0.00000000000E+00 0. -1.
</event>
<event>
 7    1  0.2945316E-011  0.5052886E+02  0.7816164E-02  0.1300439E+00
        -11   -1    0    0    0    0  0.00000000000E+00  0.00000000000E+00  0.45593999997E+02  0.45594000000E+02  0.51100000000E-03 0.  1.
         11   -1    0    0    0    0 -0.00000000000E+00 -0.00000000000E+00 -0.45593999997E+02  0.45594000000E+02  0.51100000000E-03 0. -1.
    9900012    2    1    2    0    0  0.20240138265E+02 -0.74947780500E+01 -0.34457666971E+02  0.50528859477E+02  0.29999998867E+02 0.  0.
        -12    1    1    2    0    0 -0.20240138265E+02  0.74947780500E+01  0.34457666971E+02  0.40659140523E+02  0.00000000000E+00 0.  1.
         11    1    3    3    0    0  0.53116680434E+01 -0.45264555829E+01 -0.55670625470E+01  0.89271945879E+01  0.51100000000E-03 0. -1.
        -11    1    3    3    0    0  0.17417448164E+02 -0.60691806223E+01 -0.76100560623E+01  0.19952829561E+02  0.51100000000E-03 0.  1.
         12    1    3    3    0    0 -0.24889779425E+01  0.31008581553E+01 -0.21280548362E+02  0.21648835328E+02  0.00000000000E+00 0. -1.
</event>
<event>
 7    1  0.2945316E-011  0.5052885E+02  0.7816164E-02  0.1300439E+00
        -11   -1    0    0    0    0  0.00000000000E+00  0.00000000000E+00  0.45593999997E+02  0.45594000000E+02  0.51100000000E-03 0.  1.
         11   -1    0    0    0    0 -0.00000000000E+00 -0.00000000000E+00 -0.45593999997E+02  0.45594000000E+02  0.51100000000E-03 0. -1.
    9900012    2    1    2    0    0 -0.38959387867E+02 -0.36361564511E+00 -0.11627571739E+02  0.50528849199E+02  0.29999967626E+02 0.  0.
        -12    1    1    2    0    0  0.38959387867E+02  0.36361564511E+00  0.11627571739E+02  0.40659150801E+02  0.00000000000E+00 0.  1.
         11    1    3    3    0    0 -0.48289019577E+01  0.49494375267E+01  0.53858040813E+00  0.69357980843E+01  0.51100000000E-03 0. -1.
        -11    1    3    3    0    0  0.34033802347E+01  0.14492805580E+01 -0.14979191665E+01  0.39908862736E+01  0.51100000000E-03 0.  1.
        -12    1    3    3    0    0 -0.37533866144E+02 -0.67623337299E+01 -0.10668232981E+02  0.39602164841E+02  0.00000000000E+00 0.  1.
</event>
<event>
 7    1  0.2945316E-011  0.5052886E+02  0.7816164E-02  0.1300439E+00
        -11   -1    0    0    0    0  0.00000000000E+00  0.00000000000E+00  0.45593999997E+02  0.45594000000E+02  0.51100000000E-03 0. -1.
         11   -1    0    0    0    0 -0.00000000000E+00 -0.00000000000E+00 -0.45593999997E+02  0.45594000000E+02  0.51100000000E-03 0.  1.
    9900012    2    1    2    0    0  0.83018548622E+01 -0.21521323262E+02  0.33482496790E+02  0.50528859079E+02  0.29999997657E+02 0.  0.
        -12    1    1    2    0    0 -0.83018548622E+01  0.21521323262E+02 -0.33482496790E+02  0.40659140921E+02  0.00000000000E+00 0.  1.
         11    1    3    3    0    0  0.48827357349E+01  0.58445140930E+00 -0.19728235142E+01  0.52985587272E+01  0.51100000000E-03 0. -1.
        -11    1    3    3    0    0  0.35819807861E+01  0.12111742587E+01  0.15629005337E+01  0.40914774564E+01  0.51100000000E-03 0.  1.
         12    1    3    3    0    0 -0.16286165882E+00 -0.23316948930E+02  0.33892419771E+02  0.41138822896E+02  0.00000000000E+00 0. -1.
</event>
<event>
 7    1  0.2945316E-011  0.5052885E+02  0.7816164E-02  0.1300439E+00
        -11   -1    0    0    0    0  0.00000000000E+00  0.00000000000E+00  0.45593999997E+02  0.45594000000E+02  0.51100000000E-03 0.  1.
         11   -1    0    0    0    0 -0.00000000000E+00 -0.00000000000E+00 -0.45593999997E+02  0.45594000000E+02  0.51100000000E-03 0. -1.
    9900012    2    1    2    0    0  0.32640573130E+02 -0.18850078647E+02 -0.15245780526E+02  0.50528852160E+02  0.29999976625E+02 0.  0.
        -12    1    1    2    0    0 -0.32640573130E+02  0.18850078647E+02  0.15245780526E+02  0.40659147840E+02  0.00000000000E+00 0.  1.
         11    1    3    3    0    0  0.17455054552E+02  0.49698936432E+00 -0.20030055464E+01  0.17576631058E+02  0.51100000000E-03 0.  1.
        -11    1    3    3    0    0  0.12730252400E+02 -0.51155389502E+01 -0.55848821988E+00  0.13730985918E+02  0.51100000000E-03 0. -1.
         12    1    3    3    0    0  0.24552661775E+01 -0.14231529061E+02 -0.12684286760E+02  0.19221235184E+02  0.00000000000E+00 0. -1.
</event>
<event>
 7    1  0.2945316E-011  0.5052883E+02  0.7816164E-02  0.1300439E+00
        -11   -1    0    0    0    0  0.00000000000E+00  0.00000000000E+00  0.45593999997E+02  0.45594000000E+02  0.51100000000E-03 0.  1.
         11   -1    0    0    0    0 -0.00000000000E+00 -0.00000000000E+00 -0.45593999997E+02  0.45594000000E+02  0.51100000000E-03 0. -1.
    9900012    2    1    2    0    0 -0.37710038540E+02 -0.13792869813E+02 -0.63936014934E+01  0.50528826319E+02  0.29999898078E+02 0.  0.
        -12    1    1    2    0    0  0.37710038540E+02  0.13792869813E+02  0.63936014934E+01  0.40659173681E+02  0.00000000000E+00 0.  1.
         11    1    3    3    0    0 -0.28281357142E+02 -0.14593909433E+01  0.13769142606E+01  0.28352440404E+02  0.51100000000E-03 0.  1.
        -11    1    3    3    0    0 -0.12590983692E+02 -0.78695196066E+01 -0.76537982433E+01  0.16704575331E+02  0.51100000000E-03 0. -1.
        -12    1    3    3    0    0  0.31623022933E+01 -0.44639592626E+01 -0.11671751074E+00  0.54718105843E+01  0.00000000000E+00 0.  1.
</event>
<event>
 7    1  0.2945316E-011  0.5052886E+02  0.7816164E-02  0.1300439E+00
        -11   -1    0    0    0    0  0.00000000000E+00  0.00000000000E+00  0.45593999997E+02  0.45594000000E+02  0.51100000000E-03 0.  1.
         11   -1    0    0    0    0 -0.00000000000E+00 -0.00000000000E+00 -0.45593999997E+02  0.45594000000E+02  0.51100000000E-03 0. -1.
    9900012    2    1    2    0    0  0.15908714594E+02 -0.17947182875E+01 -0.37374553032E+02  0.50528862919E+02  0.30000009330E+02 0.  0.
        -12    1    1    2    0    0 -0.15908714594E+02  0.17947182875E+01  0.37374553032E+02  0.40659137081E+02  0.00000000000E+00 0.  1.
         11    1    3    3    0    0  0.15684191397E+01  0.80767792926E+01 -0.73636844989E+01  0.11041655311E+02  0.51100000000E-03 0. -1.
        -11    1    3    3    0    0 -0.39288132181E+01  0.13034505803E+01 -0.62821224286E+01  0.75232718406E+01  0.51100000000E-03 0.  1.
         12    1    3    3    0    0  0.18269108673E+02 -0.11174948160E+02 -0.23728746105E+02  0.31963935768E+02  0.00000000000E+00 0. -1.
</event>
<event>
 7    1  0.2945316E-011  0.5052887E+02  0.7816164E-02  0.1300439E+00
        -11   -1    0    0    0    0  0.00000000000E+00  0.00000000000E+00  0.45593999997E+02  0.45594000000E+02  0.51100000000E-03 0.  1.
         11   -1    0    0    0    0 -0.00000000000E+00 -0.00000000000E+00 -0.45593999997E+02  0.45594000000E+02  0.51100000000E-03 0. -1.
    9900012    2    1    2    0    0 -0.12912303698E+02  0.29806636129E+02 -0.24454076821E+02  0.50528867972E+02  0.30000024688E+02 0.  0.
        -12    1    1    2    0    0  0.12912303698E+02 -0.29806636129E+02  0.24454076821E+02  0.40659132028E+02  0.00000000000E+00 0.  1.
         11    1    3    3    0    0  0.31284396150E+01  0.70456336176E+01 -0.67404057001E+01  0.10240173669E+02  0.51100000000E-03 0.  1.
        -11    1    3    3    0    0 -0.63690681475E+01  0.24428781571E+02 -0.17026017004E+02  0.30450215983E+02  0.51100000000E-03 0. -1.
        -12    1    3    3    0    0 -0.96716751650E+01 -0.16677790594E+01 -0.68765411666E+00  0.98384783210E+01  0.00000000000E+00 0.  1.
</event>
<event>
 7    1  0.2945316E-011  0.5052883E+02  0.7816164E-02  0.1300439E+00
        -11   -1    0    0    0    0  0.00000000000E+00  0.00000000000E+00  0.45593999997E+02  0.45594000000E+02  0.51100000000E-03 0.  1.
         11   -1    0    0    0    0 -0.00000000000E+00 -0.00000000000E+00 -0.45593999997E+02  0.45594000000E+02  0.51100000000E-03 0. -1.
    9900012    2    1    2    0    0 -0.68230449931E+01  0.85445602460E+00 -0.40073484330E+02  0.50528829025E+02  0.29999906303E+02 0.  0.
        -12    1    1    2    0    0  0.68230449931E+01 -0.85445602460E+00  0.40073484330E+02  0.40659170975E+02  0.00000000000E+00 0.  1.
         11    1    3    3    0    0 -0.96414031417E+01  0.73105455848E+00 -0.14551288785E+02  0.17470864342E+02  0.51100000000E-03 0. -1.
        -11    1    3    3    0    0 -0.58225753011E+01  0.75060735088E+01 -0.13571309055E+02  0.16565746358E+02  0.51100000000E-03 0.  1.
        -12    1    3    3    0    0  0.86409334496E+01 -0.73826720427E+01 -0.11950886490E+02  0.16492218325E+02  0.00000000000E+00 0.  1.
</event>
<event>
 7    1  0.2945316E-011  0.5052886E+02  0.7816164E-02  0.1300439E+00
        -11   -1    0    0    0    0  0.00000000000E+00  0.00000000000E+00  0.45593999997E+02  0.45594000000E+02  0.51100000000E-03 0. -1.
         11   -1    0    0    0    0 -0.00000000000E+00 -0.00000000000E+00 -0.45593999997E+02  0.45594000000E+02  0.51100000000E-03 0.  1.
    9900012    2    1    2    0    0  0.15236273220E+02 -0.30738298026E+02  0.21821521035E+02  0.50528858747E+02  0.29999996647E+02 0.  0.
        -12    1    1    2    0    0 -0.15236273220E+02  0.30738298026E+02 -0.21821521035E+02  0.40659141253E+02  0.00000000000E+00 0.  1.
         11    1    3    3    0    0  0.39668578563E+01 -0.12173608915E+02  0.10984142641E+02  0.16869620775E+02  0.51100000000E-03 0. -1.
        -11    1    3    3    0    0 -0.12723474044E+01 -0.17009141317E+02  0.12167171688E+02  0.20951606702E+02  0.51100000000E-03 0.  1.
        -12    1    3    3    0    0  0.12541762768E+02 -0.15555477935E+01 -0.13297932942E+01  0.12707631270E+02  0.00000000000E+00 0.  1.
</event>
<event>
 7    1  0.2945316E-011  0.5052885E+02  0.7816164E-02  0.1300439E+00
        -11   -1    0    0    0    0  0.00000000000E+00  0.00000000000E+00  0.45593999997E+02  0.45594000000E+02  0.51100000000E-03 0.  1.
         11   -1    0    0    0    0 -0.00000000000E+00 -0.00000000000E+00 -0.45593999997E+02  0.45594000000E+02  0.51100000000E-03 0. -1.
    9900012    2    1    2    0    0 -0.69063499759E+01 -0.23031721386E+02 -0.32787329470E+02  0.50528845634E+02  0.29999956789E+02 0.  0.
        -12    1    1    2    0    0  0.69063499759E+01  0.23031721386E+02  0.32787329470E+02  0.40659154366E+02  0.00000000000E+00 0.  1.
         11    1    3    3    0    0  0.93800677901E-01 -0.48203786715E+01 -0.20371013459E+00  0.48255929360E+01  0.51100000000E-03 0.  1.
        -11    1    3    3    0    0 -0.78234982868E+01 -0.16018765252E+02 -0.36794013175E+02  0.40885295295E+02  0.51100000000E-03 0. -1.
         12    1    3    3    0    0  0.82334763296E+00 -0.21925774623E+01  0.42103938391E+01  0.48179574026E+01  0.00000000000E+00 0. -1.
</event>
<event>
 7    1  0.2945316E-011  0.5052885E+02  0.7816164E-02  0.1300439E+00
        -11   -1    0    0    0    0  0.00000000000E+00  0.00000000000E+00  0.45593999997E+02  0.45594000000E+02  0.51100000000E-03 0.  1.
         11   -1    0    0    0    0 -0.00000000000E+00 -0.00000000000E+00 -0.45593999997E+02  0.45594000000E+02  0.51100000000E-03 0. -1.
    9900012    2    1    2    0    0  0.10095243549E+02 -0.16842278604E+02 -0.35603228565E+02  0.50528853733E+02  0.29999981408E+02 0.  0.
        -12    1    1    2    0    0 -0.10095243549E+02  0.16842278604E+02  0.35603228565E+02  0.40659146267E+02  0.00000000000E+00 0.  1.
         11    1    3    3    0    0  0.71392216351E+01 -0.15131751733E+02 -0.23475014068E+02  0.28827325263E+02  0.51100000000E-03 0. -1.
        -11    1    3    3    0    0  0.56074753945E+01 -0.79517624234E+01 -0.11233674365E+02  0.14861687183E+02  0.51100000000E-03 0.  1.
        -12    1    3    3    0    0 -0.26514534808E+01  0.62412355521E+01 -0.89454013169E+00  0.68398412866E+01  0.00000000000E+00 0.  1.
</event>
<event>
 7    1  0.2945316E-011  0.5052886E+02  0.7816164E-02  0.1300439E+00
        -11   -1    0    0    0    0  0.00000000000E+00  0.00000000000E+00  0.45593999997E+02  0.45594000000E+02  0.51100000000E-03 0.  1.
         11   -1    0    0    0    0 -0.00000000000E+00 -0.00000000000E+00 -0.45593999997E+02  0.45594000000E+02  0.51100000000E-03 0. -1.
    9900012    2    1    2    0    0  0.24944848462E+02  0.31973680890E+02 -0.29332056948E+01  0.50528862895E+02  0.30000009256E+02 0.  0.
        -12    1    1    2    0    0 -0.24944848462E+02 -0.31973680890E+02  0.29332056948E+01  0.40659137105E+02  0.00000000000E+00 0.  1.
         11    1    3    3    0    0  0.13048783559E+02  0.43084406813E+01 -0.22098842500E+01  0.13918225538E+02  0.51100000000E-03 0. -1.
        -11    1    3    3    0    0  0.11691267389E+02  0.13836937472E+02 -0.92741703314E+01  0.20350842915E+02  0.51100000000E-03 0.  1.
        -12    1    3    3    0    0  0.20479751387E+00  0.13828302737E+02  0.85508488865E+01  0.16259794442E+02  0.00000000000E+00 0.  1.
</event>
<event>
 7    1  0.2945316E-011  0.5052886E+02  0.7816164E-02  0.1300439E+00
        -11   -1    0    0    0    0  0.00000000000E+00  0.00000000000E+00  0.45593999997E+02  0.45594000000E+02  0.51100000000E-03 0. -1.
         11   -1    0    0    0    0 -0.00000000000E+00 -0.00000000000E+00 -0.45593999997E+02  0.45594000000E+02  0.51100000000E-03 0.  1.
    9900012    2    1    2    0    0 -0.74522040734E+01  0.21295704445E+02  0.33824891574E+02  0.50528860027E+02  0.30000000538E+02 0.  0.
        -12    1    1    2    0    0  0.74522040734E+01 -0.21295704445E+02 -0.33824891574E+02  0.40659139973E+02  0.00000000000E+00 0.  1.
         11    1    3    3    0    0 -0.24931160935E+01  0.60819422399E+00  0.10952075882E+02  0.11248710791E+02  0.51100000000E-03 0. -1.
        -11    1    3    3    0    0  0.43172533003E+01  0.58032155764E+01  0.20305067756E+02  0.21554854765E+02  0.51100000000E-03 0.  1.
        -12    1    3    3    0    0 -0.92763412802E+01  0.14884294645E+02  0.25677479354E+01  0.17725294471E+02  0.00000000000E+00 0.  1.
</event>
<event>
 7    1  0.2945316E-011  0.5052886E+02  0.7816164E-02  0.1300439E+00
        -11   -1    0    0    0    0  0.00000000000E+00  0.00000000000E+00  0.45593999997E+02  0.45594000000E+02  0.51100000000E-03 0.  1.
         11   -1    0    0    0    0 -0.00000000000E+00 -0.00000000000E+00 -0.45593999997E+02  0.45594000000E+02  0.51100000000E-03 0. -1.
    9900012    2    1    2    0    0  0.35210436347E+02 -0.19947414598E+02 -0.39359644844E+01  0.50528855969E+02  0.29999988204E+02 0.  0.
        -12    1    1    2    0    0 -0.35210436347E+02  0.19947414598E+02  0.39359644844E+01  0.40659144031E+02  0.00000000000E+00 0.  1.
         11    1    3    3    0    0  0.79844041083E+01 -0.16031593621E+02 -0.30404573028E+01  0.18166097100E+02  0.51100000000E-03 0.  1.
        -11    1    3    3    0    0  0.26023681906E+01 -0.26437457516E+01  0.57350675154E+01  0.68302790181E+01  0.51100000000E-03 0. -1.
         12    1    3    3    0    0  0.24623664048E+02 -0.12720752258E+01 -0.66305746970E+01  0.25532479851E+02  0.00000000000E+00 0. -1.
</event>
<event>
 7    1  0.2945316E-011  0.5052888E+02  0.7816164E-02  0.1300439E+00
        -11   -1    0    0    0    0  0.00000000000E+00  0.00000000000E+00  0.45593999997E+02  0.45594000000E+02  0.51100000000E-03 0. -1.
         11   -1    0    0    0    0 -0.00000000000E+00 -0.00000000000E+00 -0.45593999997E+02  0.45594000000E+02  0.51100000000E-03 0.  1.
    9900012    2    1    2    0    0 -0.13952752015E+01 -0.25920783068E+02  0.31294257990E+02  0.50528875921E+02  0.30000048848E+02 0.  0.
        -12    1    1    2    0    0  0.13952752015E+01  0.25920783068E+02 -0.31294257990E+02  0.40659124079E+02  0.00000000000E+00 0.  1.
         11    1    3    3    0    0 -0.49494166952E+01 -0.18948019578E+02  0.23455414298E+02  0.30556188108E+02  0.51100000000E-03 0. -1.
        -11    1    3    3    0    0  0.42189569674E+01 -0.10931013261E+02  0.10008924658E+02  0.15409906615E+02  0.51100000000E-03 0.  1.
         12    1    3    3    0    0 -0.66481547372E+00  0.39582497711E+01 -0.21700809652E+01  0.45627811979E+01  0.00000000000E+00 0. -1.
</event>
<event>
 7    1  0.2945316E-011  0.5052886E+02  0.7816164E-02  0.1300439E+00
        -11   -1    0    0    0    0  0.00000000000E+00  0.00000000000E+00  0.45593999997E+02  0.45594000000E+02  0.51100000000E-03 0.  1.
         11   -1    0    0    0    0 -0.00000000000E+00 -0.00000000000E+00 -0.45593999997E+02  0.45594000000E+02  0.51100000000E-03 0. -1.
    9900012    2    1    2    0    0  0.20387097871E+02 -0.15895600776E+02 -0.31382506471E+02  0.50528860855E+02  0.30000003054E+02 0.  0.
        -12    1    1    2    0    0 -0.20387097871E+02  0.15895600776E+02  0.31382506471E+02  0.40659139145E+02  0.00000000000E+00 0.  1.
         11    1    3    3    0    0  0.48251269827E+01  0.19702925106E+01 -0.14777103270E+02  0.15669291122E+02  0.51100000000E-03 0. -1.
        -11    1    3    3    0    0  0.36048704404E+01 -0.21197933398E+01 -0.14365238130E+02  0.14961573497E+02  0.51100000000E-03 0.  1.
         12    1    3    3    0    0  0.11957100448E+02 -0.15746099947E+02 -0.22401650709E+01  0.19897996236E+02  0.00000000000E+00 0. -1.
</event>
<event>
 7    1  0.2945316E-011  0.5052887E+02  0.7816164E-02  0.1300439E+00
        -11   -1    0    0    0    0  0.00000000000E+00  0.00000000000E+00  0.45593999997E+02  0.45594000000E+02  0.51100000000E-03 0.  1.
         11   -1    0    0    0    0 -0.00000000000E+00 -0.00000000000E+00 -0.45593999997E+02  0.45594000000E+02  0.51100000000E-03 0. -1.
    9900012    2    1    2    0    0 -0.27220926322E+01  0.10141846840E+02 -0.39279742530E+02  0.50528867953E+02  0.30000024630E+02 0.  0.
        -12    1    1    2    0    0  0.27220926322E+01 -0.10141846840E+02  0.39279742530E+02  0.40659132047E+02  0.00000000000E+00 0.  1.
         11    1    3    3    0    0  0.52574948166E+01 -0.62185064179E+01 -0.51900253328E+01  0.96564712516E+01  0.51100000000E-03 0. -1.
        -11    1    3    3    0    0 -0.22677736746E+01 -0.97590709067E+00 -0.32551385188E+00  0.24902111592E+01  0.51100000000E-03 0.  1.
         12    1    3    3    0    0 -0.57118137743E+01  0.17336260348E+02 -0.33764203345E+02  0.38382185542E+02  0.00000000000E+00 0. -1.
</event>
<event>
 7    1  0.2945316E-011  0.5052886E+02  0.7816164E-02  0.1300439E+00
        -11   -1    0    0    0    0  0.00000000000E+00  0.00000000000E+00  0.45593999997E+02  0.45594000000E+02  0.51100000000E-03 0.  1.
         11   -1    0    0    0    0 -0.00000000000E+00 -0.00000000000E+00 -0.45593999997E+02  0.45594000000E+02  0.51100000000E-03 0. -1.
    9900012    2    1    2    0    0  0.49534263914E+01  0.49843154357E+01 -0.40047297882E+02  0.50528857104E+02  0.29999991653E+02 0.  0.
        -12    1    1    2    0    0 -0.49534263914E+01 -0.49843154357E+01  0.40047297882E+02  0.40659142896E+02  0.00000000000E+00 0.  1.
         11    1    3    3    0    0 -0.55033819744E+00 -0.41319469473E+00  0.19381718515E+01  0.20567236991E+01  0.51100000000E-03 0. -1.
        -11    1    3    3    0    0  0.84853424688E+01  0.27763734072E+01 -0.32002094781E+01  0.94842304418E+01  0.51100000000E-03 0.  1.
         12    1    3    3    0    0 -0.29815778799E+01  0.26211367233E+01 -0.38785260256E+02  0.38987902963E+02  0.00000000000E+00 0. -1.
</event>
<event>
 7    1  0.2945316E-011  0.5052887E+02  0.7816164E-02  0.1300439E+00
        -11   -1    0    0    0    0  0.00000000000E+00  0.00000000000E+00  0.45593999997E+02  0.45594000000E+02  0.51100000000E-03 0. -1.
         11   -1    0    0    0    0 -0.00000000000E+00 -0.00000000000E+00 -0.45593999997E+02  0.45594000000E+02  0.51100000000E-03 0.  1.
    9900012    2    1    2    0    0  0.18809302686E+02  0.33256671245E+02  0.13905698844E+02  0.50528874208E+02  0.30000043642E+02 0.  0.
        -12    1    1    2    0    0 -0.18809302686E+02 -0.33256671245E+02 -0.13905698844E+02  0.40659125792E+02  0.00000000000E+00 0.  1.
         11    1    3    3    0    0  0.55352142873E+01 -0.30069692088E+01 -0.13025785292E-01  0.62992563816E+01  0.51100000000E-03 0. -1.
        -11    1    3    3    0    0  0.39033597821E+01  0.29223935560E+00 -0.12098775033E+01  0.40970019848E+01  0.51100000000E-03 0.  1.
         12    1    3    3    0    0  0.93707286170E+01  0.35971401098E+02  0.15128602133E+02  0.40132615841E+02  0.00000000000E+00 0. -1.
</event>
<event>
 7    1  0.2945316E-011  0.5052887E+02  0.7816164E-02  0.1300439E+00
        -11   -1    0    0    0    0  0.00000000000E+00  0.00000000000E+00  0.45593999997E+02  0.45594000000E+02  0.51100000000E-03 0.  1.
         11   -1    0    0    0    0 -0.00000000000E+00 -0.00000000000E+00 -0.45593999997E+02  0.45594000000E+02  0.51100000000E-03 0. -1.
    9900012    2    1    2    0    0  0.14569346442E+01 -0.40211456310E+02 -0.58378787869E+01  0.50528871802E+02  0.30000036328E+02 0.  0.
        -12    1    1    2    0    0 -0.14569346442E+01  0.40211456310E+02  0.58378787869E+01  0.40659128198E+02  0.00000000000E+00 0.  1.
         11    1    3    3    0    0 -0.48170711554E+01 -0.35352537274E+01 -0.15123340016E+01  0.61635499371E+01  0.51100000000E-03 0.  1.
        -11    1    3    3    0    0 -0.63331057619E+01 -0.26202923145E+02 -0.67690651341E+01  0.27794273745E+02  0.51100000000E-03 0. -1.
         12    1    3    3    0    0  0.12607111561E+02 -0.10473279438E+02  0.24435203489E+01  0.16571048120E+02  0.00000000000E+00 0. -1.
</event>
<event>
 7    1  0.2945316E-011  0.5052886E+02  0.7816164E-02  0.1300439E+00
        -11   -1    0    0    0    0  0.00000000000E+00  0.00000000000E+00  0.45593999997E+02  0.45594000000E+02  0.51100000000E-03 0. -1.
         11   -1    0    0    0    0 -0.00000000000E+00 -0.00000000000E+00 -0.45593999997E+02  0.45594000000E+02  0.51100000000E-03 0.  1.
    9900012    2    1    2    0    0  0.38020395633E+02  0.72649650563E+01 -0.12443285080E+02  0.50528861483E+02  0.30000004964E+02 0.  0.
        -12    1    1    2    0    0 -0.38020395633E+02 -0.72649650563E+01  0.12443285080E+02  0.40659138517E+02  0.00000000000E+00 0.  1.
         11    1    3    3    0    0  0.64640058853E+01 -0.14381359017E+01 -0.14106265720E+01  0.67706332454E+01  0.51100000000E-03 0. -1.
        -11    1    3    3    0    0  0.32254514109E+02 -0.70054119947E+00 -0.52216271659E+01  0.32681949589E+02  0.51100000000E-03 0.  1.
        -12    1    3    3    0    0 -0.69812436166E+00  0.94036421575E+01 -0.58110313425E+01  0.11076278649E+02  0.00000000000E+00 0.  1.
</event>
<event>
 7    1  0.3167493E-011  0.5052890E+02  0.7816164E-02  0.1300439E+00
        -11   -1    0    0    0    0  0.00000000000E+00  0.00000000000E+00  0.45593999997E+02  0.45594000000E+02  0.51100000000E-03 0. -1.
         11   -1    0    0    0    0 -0.00000000000E+00 -0.00000000000E+00 -0.45593999997E+02  0.45594000000E+02  0.51100000000E-03 0.  1.
    9900012    2    1    2    0    0  0.10345347786E+02  0.30028453771E+02  0.25385596605E+02  0.50528895587E+02  0.30000108625E+02 0.  0.
        -12    1    1    2    0    0 -0.10345347786E+02 -0.30028453771E+02 -0.25385596605E+02  0.40659104413E+02  0.00000000000E+00 0.  1.
         11    1    3    3    0    0 -0.48639205047E+01  0.42569703661E+01  0.64387616152E+01  0.91234407310E+01  0.51100000000E-03 0. -1.
        -11    1    3    3    0    0 -0.30470144114E+01  0.47184704225E+01 -0.25915404848E+01  0.61858178357E+01  0.51100000000E-03 0.  1.
         12    1    3    3    0    0  0.18256282702E+02  0.21053012982E+02  0.21538375475E+02  0.35219637020E+02  0.00000000000E+00 0. -1.
</event>
<event>
 7    1  0.2945316E-011  0.5052886E+02  0.7816164E-02  0.1300439E+00
        -11   -1    0    0    0    0  0.00000000000E+00  0.00000000000E+00  0.45593999997E+02  0.45594000000E+02  0.51100000000E-03 0.  1.
         11   -1    0    0    0    0 -0.00000000000E+00 -0.00000000000E+00 -0.45593999997E+02  0.45594000000E+02  0.51100000000E-03 0. -1.
    9900012    2    1    2    0    0 -0.23212052834E+02 -0.44152023700E+01 -0.33088857481E+02  0.50528857139E+02  0.29999991761E+02 0.  0.
        -12    1    1    2    0    0  0.23212052834E+02  0.44152023700E+01  0.33088857481E+02  0.40659142861E+02  0.00000000000E+00 0.  1.
         11    1    3    3    0    0 -0.12258742264E+02 -0.29037517560E+01 -0.15769768522E+02  0.20184006928E+02  0.51100000000E-03 0. -1.
        -11    1    3    3    0    0 -0.25651718937E+01 -0.94208569468E+01 -0.27506374242E+00  0.97677178900E+01  0.51100000000E-03 0.  1.
         12    1    3    3    0    0 -0.83881386762E+01  0.79094063328E+01 -0.17044025216E+02  0.20577132321E+02  0.00000000000E+00 0. -1.
</event>
<event>
 7    1  0.2945316E-011  0.5052883E+02  0.7816164E-02  0.1300439E+00
        -11   -1    0    0    0    0  0.00000000000E+00  0.00000000000E+00  0.45593999997E+02  0.45594000000E+02  0.51100000000E-03 0.  1.
         11   -1    0    0    0    0 -0.00000000000E+00 -0.00000000000E+00 -0.45593999997E+02  0.45594000000E+02  0.51100000000E-03 0. -1.
    9900012    2    1    2    0    0  0.24792045711E+02 -0.53598001389E+01 -0.31777269202E+02  0.50528833432E+02  0.29999919701E+02 0.  0.
        -12    1    1    2    0    0 -0.24792045711E+02  0.53598001389E+01  0.31777269202E+02  0.40659166568E+02  0.00000000000E+00 0.  1.
         11    1    3    3    0    0 -0.42554318775E+01 -0.39488788842E+01 -0.19668099338E+01  0.61294931669E+01  0.51100000000E-03 0.  1.
        -11    1    3    3    0    0  0.14356048533E+02 -0.11563227726E+01 -0.25154124103E+02  0.28985568331E+02  0.51100000000E-03 0. -1.
        -12    1    3    3    0    0  0.14691429055E+02 -0.25459848199E+00 -0.46563351654E+01  0.15413771934E+02  0.00000000000E+00 0.  1.
</event>
<event>
 7    1  0.2945316E-011  0.5052885E+02  0.7816164E-02  0.1300439E+00
        -11   -1    0    0    0    0  0.00000000000E+00  0.00000000000E+00  0.45593999997E+02  0.45594000000E+02  0.51100000000E-03 0.  1.
         11   -1    0    0    0    0 -0.00000000000E+00 -0.00000000000E+00 -0.45593999997E+02  0.45594000000E+02  0.51100000000E-03 0. -1.
    9900012    2    1    2    0    0  0.33041754166E+02 -0.20283925164E+02 -0.12246265996E+02  0.50528853806E+02  0.29999981628E+02 0.  0.
        -12    1    1    2    0    0 -0.33041754166E+02  0.20283925164E+02  0.12246265996E+02  0.40659146194E+02  0.00000000000E+00 0.  1.
         11    1    3    3    0    0  0.11247087267E+02  0.24279020668E+01 -0.11333400596E+02  0.16150469026E+02  0.51100000000E-03 0. -1.
        -11    1    3    3    0    0  0.90989359936E+01 -0.36866006662E+01 -0.51973391613E+01  0.11108284985E+02  0.51100000000E-03 0.  1.
        -12    1    3    3    0    0  0.12695730905E+02 -0.19025226565E+02  0.42844737612E+01  0.23270099795E+02  0.00000000000E+00 0.  1.
</event>
<event>
 7    1  0.2945316E-011  0.5052887E+02  0.7816164E-02  0.1300439E+00
        -11   -1    0    0    0    0  0.00000000000E+00  0.00000000000E+00  0.45593999997E+02  0.45594000000E+02  0.51100000000E-03 0.  1.
         11   -1    0    0    0    0 -0.00000000000E+00 -0.00000000000E+00 -0.45593999997E+02  0.45594000000E+02  0.51100000000E-03 0. -1.
    9900012    2    1    2    0    0 -0.40098058352E+02  0.30140295410E+01 -0.60188535704E+01  0.50528865037E+02  0.30000015766E+02 0.  0.
        -12    1    1    2    0    0  0.40098058352E+02 -0.30140295410E+01  0.60188535704E+01  0.40659134963E+02  0.00000000000E+00 0.  1.
         11    1    3    3    0    0  0.32142080535E+01 -0.16769869635E+00 -0.40884244216E+01  0.52033134421E+01  0.51100000000E-03 0. -1.
        -11    1    3    3    0    0 -0.12220550525E+02  0.51171511759E+01 -0.46837674951E+01  0.14052215822E+02  0.51100000000E-03 0.  1.
        -12    1    3    3    0    0 -0.31091715880E+02 -0.19354229386E+01  0.27533383464E+01  0.31273335773E+02  0.00000000000E+00 0.  1.
</event>
<event>
 7    1  0.2945316E-011  0.5052886E+02  0.7816164E-02  0.1300439E+00
        -11   -1    0    0    0    0  0.00000000000E+00  0.00000000000E+00  0.45593999997E+02  0.45594000000E+02  0.51100000000E-03 0.  1.
         11   -1    0    0    0    0 -0.00000000000E+00 -0.00000000000E+00 -0.45593999997E+02  0.45594000000E+02  0.51100000000E-03 0. -1.
    9900012    2    1    2    0    0 -0.21614279023E+02 -0.85827708932E+01 -0.33351525603E+02  0.50528864815E+02  0.30000015093E+02 0.  0.
        -12    1    1    2    0    0  0.21614279023E+02  0.85827708932E+01  0.33351525603E+02  0.40659135185E+02  0.00000000000E+00 0.  1.
         11    1    3    3    0    0 -0.28614670398E+00  0.51068839948E+01 -0.42379229408E+01  0.66424494869E+01  0.51100000000E-03 0. -1.
        -11    1    3    3    0    0 -0.60105667906E+01 -0.13465036718E+02 -0.54980509273E+01  0.15737302540E+02  0.51100000000E-03 0.  1.
         12    1    3    3    0    0 -0.15317565529E+02 -0.22461817005E+00 -0.23615551735E+02  0.28149112789E+02  0.00000000000E+00 0. -1.
</event>
<event>
 7    1  0.2945316E-011  0.5052886E+02  0.7816164E-02  0.1300439E+00
        -11   -1    0    0    0    0  0.00000000000E+00  0.00000000000E+00  0.45593999997E+02  0.45594000000E+02  0.51100000000E-03 0.  1.
         11   -1    0    0    0    0 -0.00000000000E+00 -0.00000000000E+00 -0.45593999997E+02  0.45594000000E+02  0.51100000000E-03 0. -1.
    9900012    2    1    2    0    0 -0.12355795133E+02 -0.37634564851E+02 -0.91727414419E+01  0.50528864121E+02  0.30000012982E+02 0.  0.
        -12    1    1    2    0    0  0.12355795133E+02  0.37634564851E+02  0.91727414419E+01  0.40659135879E+02  0.00000000000E+00 0.  1.
         11    1    3    3    0    0 -0.65426519672E+01 -0.79313452718E+01 -0.49112455785E+01  0.11394422582E+02  0.51100000000E-03 0. -1.
        -11    1    3    3    0    0 -0.53009519098E+01 -0.16584178241E+02  0.97320633686E+01  0.19946130370E+02  0.51100000000E-03 0.  1.
         12    1    3    3    0    0 -0.51219125555E+00 -0.13119041339E+02 -0.13993559232E+02  0.19188311169E+02  0.00000000000E+00 0. -1.
</event>
<event>
 7    1  0.2945316E-011  0.5052887E+02  0.7816164E-02  0.1300439E+00
        -11   -1    0    0    0    0  0.00000000000E+00  0.00000000000E+00  0.45593999997E+02  0.45594000000E+02  0.51100000000E-03 0.  1.
         11   -1    0    0    0    0 -0.00000000000E+00 -0.00000000000E+00 -0.45593999997E+02  0.45594000000E+02  0.51100000000E-03 0. -1.
    9900012    2    1    2    0    0 -0.93631478690E+01 -0.24624790275E+02 -0.30969602821E+02  0.50528866548E+02  0.30000020360E+02 0.  0.
        -12    1    1    2    0    0  0.93631478690E+01  0.24624790275E+02  0.30969602821E+02  0.40659133452E+02  0.00000000000E+00 0.  1.
         11    1    3    3    0    0 -0.59872114372E+01 -0.16501791351E+02 -0.19519266900E+02  0.26251811350E+02  0.51100000000E-03 0. -1.
        -11    1    3    3    0    0 -0.54477290677E+01 -0.26774387933E+01  0.43295065726E+01  0.74559411150E+01  0.51100000000E-03 0.  1.
         12    1    3    3    0    0  0.20717926358E+01 -0.54455601313E+01 -0.15779842494E+02  0.16821114083E+02  0.00000000000E+00 0. -1.
</event>
<event>
 7    1  0.2945316E-011  0.5052885E+02  0.7816164E-02  0.1300439E+00
        -11   -1    0    0    0    0  0.00000000000E+00  0.00000000000E+00  0.45593999997E+02  0.45594000000E+02  0.51100000000E-03 0.  1.
         11   -1    0    0    0    0 -0.00000000000E+00 -0.00000000000E+00 -0.45593999997E+02  0.45594000000E+02  0.51100000000E-03 0. -1.
    9900012    2    1    2    0    0  0.28459802439E+02  0.56854876579E+01 -0.28475975558E+02  0.50528852090E+02  0.29999976414E+02 0.  0.
        -12    1    1    2    0    0 -0.28459802439E+02 -0.56854876579E+01  0.28475975558E+02  0.40659147910E+02  0.00000000000E+00 0.  1.
         11    1    3    3    0    0  0.13060584061E+02 -0.32705581049E+00 -0.18387097930E+02  0.22555956908E+02  0.51100000000E-03 0. -1.
        -11    1    3    3    0    0  0.21221364985E+01 -0.13069065187E+01 -0.12390089564E+02  0.12638266797E+02  0.51100000000E-03 0.  1.
         12    1    3    3    0    0  0.13277081879E+02  0.73194499871E+01  0.23012119355E+01  0.15334628385E+02  0.00000000000E+00 0. -1.
</event>
<event>
 7    1  0.2945316E-011  0.5052886E+02  0.7816164E-02  0.1300439E+00
        -11   -1    0    0    0    0  0.00000000000E+00  0.00000000000E+00  0.45593999997E+02  0.45594000000E+02  0.51100000000E-03 0. -1.
         11   -1    0    0    0    0 -0.00000000000E+00 -0.00000000000E+00 -0.45593999997E+02  0.45594000000E+02  0.51100000000E-03 0.  1.
    9900012    2    1    2    0    0 -0.30870445558E+02 -0.11377526494E+02 -0.23890022074E+02  0.50528859911E+02  0.30000000185E+02 0.  0.
        -12    1    1    2    0    0  0.30870445558E+02  0.11377526494E+02  0.23890022074E+02  0.40659140089E+02  0.00000000000E+00 0.  1.
         11    1    3    3    0    0  0.32506834994E+01 -0.74420461048E+01 -0.24650364823E+01  0.84868956963E+01  0.51100000000E-03 0. -1.
        -11    1    3    3    0    0 -0.93105470620E+01 -0.36938705538E+01 -0.11675713921E+02  0.15383538672E+02  0.51100000000E-03 0.  1.
         12    1    3    3    0    0 -0.24810581996E+02 -0.24160983519E+00 -0.97492716708E+01  0.26658425542E+02  0.00000000000E+00 0. -1.
</event>
<event>
 7    1  0.2945316E-011  0.5052884E+02  0.7816164E-02  0.1300439E+00
        -11   -1    0    0    0    0  0.00000000000E+00  0.00000000000E+00  0.45593999997E+02  0.45594000000E+02  0.51100000000E-03 0. -1.
         11   -1    0    0    0    0 -0.00000000000E+00 -0.00000000000E+00 -0.45593999997E+02  0.45594000000E+02  0.51100000000E-03 0.  1.
    9900012    2    1    2    0    0  0.47627372397E+01 -0.10016883675E+02  0.39117078343E+02  0.50528838146E+02  0.29999934028E+02 0.  0.
        -12    1    1    2    0    0 -0.47627372397E+01  0.10016883675E+02 -0.39117078343E+02  0.40659161854E+02  0.00000000000E+00 0.  1.
         11    1    3    3    0    0 -0.67205700759E+00  0.77140763116E+01  0.13789673984E+02  0.15814984756E+02  0.51100000000E-03 0. -1.
        -11    1    3    3    0    0 -0.47624620873E-02  0.48467509745E+00  0.10741663443E+02  0.10752593474E+02  0.51100000000E-03 0.  1.
         12    1    3    3    0    0  0.54395567094E+01 -0.18215635084E+02  0.14585740916E+02  0.23961259916E+02  0.00000000000E+00 0. -1.
</event>
<event>
 7    1  0.2945316E-011  0.5052883E+02  0.7816164E-02  0.1300439E+00
        -11   -1    0    0    0    0  0.00000000000E+00  0.00000000000E+00  0.45593999997E+02  0.45594000000E+02  0.51100000000E-03 0.  1.
         11   -1    0    0    0    0 -0.00000000000E+00 -0.00000000000E+00 -0.45593999997E+02  0.45594000000E+02  0.51100000000E-03 0. -1.
    9900012    2    1    2    0    0  0.24556924272E+02 -0.14449152724E+02 -0.29005991354E+02  0.50528830326E+02  0.29999910258E+02 0.  0.
        -12    1    1    2    0    0 -0.24556924272E+02  0.14449152724E+02  0.29005991354E+02  0.40659169674E+02  0.00000000000E+00 0.  1.
         11    1    3    3    0    0  0.65835926372E+01  0.28242964719E+01 -0.91111632005E+01  0.11590238897E+02  0.51100000000E-03 0. -1.
        -11    1    3    3    0    0  0.55047496846E+01  0.45719139705E+01 -0.49430426256E+00  0.71727960663E+01  0.51100000000E-03 0.  1.
        -12    1    3    3    0    0  0.12468581950E+02 -0.21845363166E+02 -0.19400523891E+02  0.31765795362E+02  0.00000000000E+00 0.  1.
</event>
<event>
 7    1  0.2945316E-011  0.5052886E+02  0.7816164E-02  0.1300439E+00
        -11   -1    0    0    0    0  0.00000000000E+00  0.00000000000E+00  0.45593999997E+02  0.45594000000E+02  0.51100000000E-03 0.  1.
         11   -1    0    0    0    0 -0.00000000000E+00 -0.00000000000E+00 -0.45593999997E+02  0.45594000000E+02  0.51100000000E-03 0. -1.
    9900012    2    1    2    0    0 -0.38570040380E+01  0.10576429642E+02 -0.39069527531E+02  0.50528864180E+02  0.30000013163E+02 0.  0.
        -12    1    1    2    0    0  0.38570040380E+01 -0.10576429642E+02  0.39069527531E+02  0.40659135820E+02  0.00000000000E+00 0.  1.
         11    1    3    3    0    0  0.55334657021E+01 -0.24373349667E+01 -0.10771503665E+01  0.61416689579E+01  0.51100000000E-03 0. -1.
        -11    1    3    3    0    0  0.28863654772E+01 -0.94489888219E+00 -0.12334747725E+02  0.12703146904E+02  0.51100000000E-03 0.  1.
        -12    1    3    3    0    0 -0.12276835217E+02  0.13958663491E+02 -0.25657629440E+02  0.31684048319E+02  0.00000000000E+00 0.  1.
</event>
<event>
 7    1  0.2945316E-011  0.5052886E+02  0.7816164E-02  0.1300439E+00
        -11   -1    0    0    0    0  0.00000000000E+00  0.00000000000E+00  0.45593999997E+02  0.45594000000E+02  0.51100000000E-03 0.  1.
         11   -1    0    0    0    0 -0.00000000000E+00 -0.00000000000E+00 -0.45593999997E+02  0.45594000000E+02  0.51100000000E-03 0. -1.
    9900012    2    1    2    0    0  0.17162443349E+02 -0.30466650822E+02 -0.20746071255E+02  0.50528859004E+02  0.29999997429E+02 0.  0.
        -12    1    1    2    0    0 -0.17162443349E+02  0.30466650822E+02  0.20746071255E+02  0.40659140996E+02  0.00000000000E+00 0.  1.
         11    1    3    3    0    0  0.50630699668E+01 -0.82155307420E+01 -0.58042448219E+01  0.11261388950E+02  0.51100000000E-03 0. -1.
        -11    1    3    3    0    0  0.64478579336E+01 -0.26990198040E+02 -0.74017090247E+01  0.28719870454E+02  0.51100000000E-03 0.  1.
        -12    1    3    3    0    0  0.56515154490E+01  0.47390779605E+01 -0.75401174086E+01  0.10547599600E+02  0.00000000000E+00 0.  1.
</event>
<event>
 7    1  0.2945316E-011  0.5052886E+02  0.7816164E-02  0.1300439E+00
        -11   -1    0    0    0    0  0.00000000000E+00  0.00000000000E+00  0.45593999997E+02  0.45594000000E+02  0.51100000000E-03 0. -1.
         11   -1    0    0    0    0 -0.00000000000E+00 -0.00000000000E+00 -0.45593999997E+02  0.45594000000E+02  0.51100000000E-03 0.  1.
    9900012    2    1    2    0    0 -0.12791353558E+02  0.16244155405E+02  0.35009632676E+02  0.50528859690E+02  0.29999999513E+02 0.  0.
        -12    1    1    2    0    0  0.12791353558E+02 -0.16244155405E+02 -0.35009632676E+02  0.40659140310E+02  0.00000000000E+00 0.  1.
         11    1    3    3    0    0 -0.12948496422E+02  0.70021499103E+01  0.18274446348E+02  0.23465912566E+02  0.51100000000E-03 0. -1.
        -11    1    3    3    0    0 -0.78727278684E+01 -0.12065183499E+01  0.77541633694E+01  0.11115870656E+02  0.51100000000E-03 0.  1.
         12    1    3    3    0    0  0.80298707321E+01  0.10448523844E+02  0.89810229583E+01  0.15947076468E+02  0.00000000000E+00 0. -1.
</event>
<event>
 7    1  0.2945316E-011  0.5052888E+02  0.7816164E-02  0.1300439E+00
        -11   -1    0    0    0    0  0.00000000000E+00  0.00000000000E+00  0.45593999997E+02  0.45594000000E+02  0.51100000000E-03 0.  1.
         11   -1    0    0    0    0 -0.00000000000E+00 -0.00000000000E+00 -0.45593999997E+02  0.45594000000E+02  0.51100000000E-03 0. -1.
    9900012    2    1    2    0    0  0.69509672959E+01 -0.20416302509E+02 -0.34467707422E+02  0.50528877907E+02  0.30000054886E+02 0.  0.
        -12    1    1    2    0    0 -0.69509672959E+01  0.20416302509E+02  0.34467707422E+02  0.40659122093E+02  0.00000000000E+00 0.  1.
         11    1    3    3    0    0  0.90557064974E+01 -0.90885888207E+01 -0.16441480285E+02  0.20854988399E+02  0.51100000000E-03 0. -1.
        -11    1    3    3    0    0  0.88325966997E+01 -0.47809940064E+01 -0.42520015249E+01  0.10906520315E+02  0.51100000000E-03 0.  1.
        -12    1    3    3    0    0 -0.10937335901E+02 -0.65467196816E+01 -0.13774225612E+02  0.18767369193E+02  0.00000000000E+00 0.  1.
</event>
<event>
 7    1  0.2945316E-011  0.5052884E+02  0.7816164E-02  0.1300439E+00
        -11   -1    0    0    0    0  0.00000000000E+00  0.00000000000E+00  0.45593999997E+02  0.45594000000E+02  0.51100000000E-03 0.  1.
         11   -1    0    0    0    0 -0.00000000000E+00 -0.00000000000E+00 -0.45593999997E+02  0.45594000000E+02  0.51100000000E-03 0. -1.
    9900012    2    1    2    0    0 -0.37779193950E+02  0.27881477116E+01 -0.14769089513E+02  0.50528840291E+02  0.29999940549E+02 0.  0.
        -12    1    1    2    0    0  0.37779193950E+02 -0.27881477116E+01  0.14769089513E+02  0.40659159709E+02  0.00000000000E+00 0.  1.
         11    1    3    3    0    0 -0.75556916153E+01 -0.55886638534E+00 -0.79809257738E+01  0.11004362039E+02  0.51100000000E-03 0. -1.
        -11    1    3    3    0    0  0.29035441265E+01  0.41955276547E+01  0.15892577575E+01  0.53440397900E+01  0.51100000000E-03 0.  1.
         12    1    3    3    0    0 -0.33127046462E+02 -0.84851355775E+00 -0.83774214965E+01  0.34180438462E+02  0.00000000000E+00 0. -1.
</event>
<event>
 7    1  0.2945316E-011  0.5052886E+02  0.7816164E-02  0.1300439E+00
        -11   -1    0    0    0    0  0.00000000000E+00  0.00000000000E+00  0.45593999997E+02  0.45594000000E+02  0.51100000000E-03 0.  1.
         11   -1    0    0    0    0 -0.00000000000E+00 -0.00000000000E+00 -0.45593999997E+02  0.45594000000E+02  0.51100000000E-03 0. -1.
    9900012    2    1    2    0    0  0.15262554396E+02 -0.14098016582E+02 -0.34949479494E+02  0.50528858899E+02  0.29999997108E+02 0.  0.
        -12    1    1    2    0    0 -0.15262554396E+02  0.14098016582E+02  0.34949479494E+02  0.40659141101E+02  0.00000000000E+00 0.  1.
         11    1    3    3    0    0 -0.39274793254E+00  0.56474241564E+00 -0.51180281243E+01  0.51640485161E+01  0.51100000000E-03 0. -1.
        -11    1    3    3    0    0  0.17418218163E+02 -0.44600199206E+01 -0.30038818681E+02  0.35008809315E+02  0.51100000000E-03 0.  1.
        -12    1    3    3    0    0 -0.17629158344E+01 -0.10202739077E+02  0.20736731150E+00  0.10356001067E+02  0.00000000000E+00 0.  1.
</event>
<event>
 7    1  0.2945316E-011  0.5052887E+02  0.7816164E-02  0.1300439E+00
        -11   -1    0    0    0    0  0.00000000000E+00  0.00000000000E+00  0.45593999997E+02  0.45594000000E+02  0.51100000000E-03 0. -1.
         11   -1    0    0    0    0 -0.00000000000E+00 -0.00000000000E+00 -0.45593999997E+02  0.45594000000E+02  0.51100000000E-03 0.  1.
    9900012    2    1    2    0    0  0.29207559976E+02 -0.15151957381E+02  0.23885167158E+02  0.50528873320E+02  0.30000040943E+02 0.  0.
        -12    1    1    2    0    0 -0.29207559976E+02  0.15151957381E+02 -0.23885167158E+02  0.40659126680E+02  0.00000000000E+00 0.  1.
         11    1    3    3    0    0  0.10005608289E+02  0.72511284861E+00  0.51864885862E+01  0.11293256837E+02  0.51100000000E-03 0. -1.
        -11    1    3    3    0    0  0.21628067010E+02 -0.36333832878E+01  0.10616365758E+02  0.24365590058E+02  0.51100000000E-03 0.  1.
        -12    1    3    3    0    0 -0.24261153219E+01 -0.12243686941E+02  0.80823128137E+01  0.14870026425E+02  0.00000000000E+00 0.  1.
</event>
<event>
 7    1  0.2945316E-011  0.5052886E+02  0.7816164E-02  0.1300439E+00
        -11   -1    0    0    0    0  0.00000000000E+00  0.00000000000E+00  0.45593999997E+02  0.45594000000E+02  0.51100000000E-03 0.  1.
         11   -1    0    0    0    0 -0.00000000000E+00 -0.00000000000E+00 -0.45593999997E+02  0.45594000000E+02  0.51100000000E-03 0. -1.
    9900012    2    1    2    0    0  0.28302611985E+02  0.49842795273E+01 -0.28762555970E+02  0.50528861869E+02  0.30000006138E+02 0.  0.
        -12    1    1    2    0    0 -0.28302611985E+02 -0.49842795273E+01  0.28762555970E+02  0.40659138131E+02  0.00000000000E+00 0.  1.
         11    1    3    3    0    0  0.14610911360E+02  0.58121708376E+00 -0.16005640490E+02  0.21679415856E+02  0.51100000000E-03 0. -1.
        -11    1    3    3    0    0  0.44436753079E+01 -0.85450057093E+01 -0.70871586048E+01  0.11957892380E+02  0.51100000000E-03 0.  1.
        -12    1    3    3    0    0  0.92480253165E+01  0.12948068153E+02 -0.56697568753E+01  0.16891553634E+02  0.00000000000E+00 0.  1.
</event>
<event>
 7    1  0.2945316E-011  0.5052879E+02  0.7816164E-02  0.1300439E+00
        -11   -1    0    0    0    0  0.00000000000E+00  0.00000000000E+00  0.45593999997E+02  0.45594000000E+02  0.51100000000E-03 0.  1.
         11   -1    0    0    0    0 -0.00000000000E+00 -0.00000000000E+00 -0.45593999997E+02  0.45594000000E+02  0.51100000000E-03 0. -1.
    9900012    2    1    2    0    0 -0.13014350258E+02  0.33184990225E+02 -0.19558998447E+02  0.50528790598E+02  0.29999789502E+02 0.  0.
        -12    1    1    2    0    0  0.13014350258E+02 -0.33184990225E+02  0.19558998447E+02  0.40659209402E+02  0.00000000000E+00 0.  1.
         11    1    3    3    0    0 -0.36018738235E+01  0.13083066303E+02 -0.10627648984E+02  0.17236213102E+02  0.51100000000E-03 0. -1.
        -11    1    3    3    0    0 -0.48792578926E+01  0.82329884613E+01 -0.16081405475E+02  0.18713654344E+02  0.51100000000E-03 0.  1.
        -12    1    3    3    0    0 -0.45332185423E+01  0.11868935461E+02  0.71500560110E+01  0.14578923152E+02  0.00000000000E+00 0.  1.
</event>
<event>
 7    1  0.2945316E-011  0.5052886E+02  0.7816164E-02  0.1300439E+00
        -11   -1    0    0    0    0  0.00000000000E+00  0.00000000000E+00  0.45593999997E+02  0.45594000000E+02  0.51100000000E-03 0.  1.
         11   -1    0    0    0    0 -0.00000000000E+00 -0.00000000000E+00 -0.45593999997E+02  0.45594000000E+02  0.51100000000E-03 0. -1.
    9900012    2    1    2    0    0 -0.27378177751E+02  0.83585027715E+01 -0.28874491442E+02  0.50528862754E+02  0.30000008827E+02 0.  0.
        -12    1    1    2    0    0  0.27378177751E+02 -0.83585027715E+01  0.28874491442E+02  0.40659137246E+02  0.00000000000E+00 0.  1.
         11    1    3    3    0    0 -0.84134408740E+01  0.37753678551E+01 -0.11965603438E+02  0.15106788397E+02  0.51100000000E-03 0. -1.
        -11    1    3    3    0    0 -0.14941420261E+02 -0.13724618650E+01 -0.21989230176E+02  0.26620592311E+02  0.51100000000E-03 0.  1.
        -12    1    3    3    0    0 -0.40233166160E+01  0.59555967814E+01  0.50803421721E+01  0.88014820457E+01  0.00000000000E+00 0.  1.
</event>
<event>
 7    1  0.2945316E-011  0.5052886E+02  0.7816164E-02  0.1300439E+00
        -11   -1    0    0    0    0  0.00000000000E+00  0.00000000000E+00  0.45593999997E+02  0.45594000000E+02  0.51100000000E-03 0.  1.
         11   -1    0    0    0    0 -0.00000000000E+00 -0.00000000000E+00 -0.45593999997E+02  0.45594000000E+02  0.51100000000E-03 0. -1.
    9900012    2    1    2    0    0 -0.12459709008E+02 -0.38478228030E+02 -0.41650442443E+01  0.50528856201E+02  0.29999988908E+02 0.  0.
        -12    1    1    2    0    0  0.12459709008E+02  0.38478228030E+02  0.41650442443E+01  0.40659143799E+02  0.00000000000E+00 0.  1.
         11    1    3    3    0    0 -0.10337761287E+02 -0.86091377090E+01 -0.32352489003E+01  0.13836668538E+02  0.51100000000E-03 0. -1.
        -11    1    3    3    0    0  0.22530340562E+01 -0.36916314888E+01  0.76596997257E+01  0.87963234170E+01  0.51100000000E-03 0.  1.
        -12    1    3    3    0    0 -0.43749817775E+01 -0.26177458832E+02 -0.85894950697E+01  0.27895864246E+02  0.00000000000E+00 0.  1.
</event>
<event>
 7    1  0.2945316E-011  0.5052874E+02  0.7816164E-02  0.1300439E+00
        -11   -1    0    0    0    0  0.00000000000E+00  0.00000000000E+00  0.45593999997E+02  0.45594000000E+02  0.51100000000E-03 0.  1.
         11   -1    0    0    0    0 -0.00000000000E+00 -0.00000000000E+00 -0.45593999997E+02  0.45594000000E+02  0.51100000000E-03 0. -1.
    9900012    2    1    2    0    0  0.15782665903E+02  0.50393468999E+01 -0.37130688015E+02  0.50528738415E+02  0.29999630884E+02 0.  0.
        -12    1    1    2    0    0 -0.15782665903E+02 -0.50393468999E+01  0.37130688015E+02  0.40659261585E+02  0.00000000000E+00 0.  1.
         11    1    3    3    0    0 -0.70399297629E+00 -0.42848404960E+01 -0.15414060234E+02  0.16014016277E+02  0.51100000000E-03 0. -1.
        -11    1    3    3    0    0 -0.42628230744E+01  0.18109660469E+01 -0.25596173976E+01  0.52917766459E+01  0.51100000000E-03 0.  1.
        -12    1    3    3    0    0  0.20749481954E+02  0.75132213490E+01 -0.19157010383E+02  0.29222945492E+02  0.00000000000E+00 0.  1.
</event>
<event>
 7    1  0.2945316E-011  0.5052886E+02  0.7816164E-02  0.1300439E+00
        -11   -1    0    0    0    0  0.00000000000E+00  0.00000000000E+00  0.45593999997E+02  0.45594000000E+02  0.51100000000E-03 0.  1.
         11   -1    0    0    0    0 -0.00000000000E+00 -0.00000000000E+00 -0.45593999997E+02  0.45594000000E+02  0.51100000000E-03 0. -1.
    9900012    2    1    2    0    0 -0.30223728627E+02 -0.18318087918E+01 -0.27135515235E+02  0.50528862249E+02  0.30000007292E+02 0.  0.
        -12    1    1    2    0    0  0.30223728627E+02  0.18318087918E+01  0.27135515235E+02  0.40659137751E+02  0.00000000000E+00 0.  1.
         11    1    3    3    0    0 -0.50207840437E+01 -0.65634167933E+01 -0.13554346571E+02  0.15874729089E+02  0.51100000000E-03 0. -1.
        -11    1    3    3    0    0 -0.63995734584E+01 -0.21679449717E+01 -0.12959587880E+02  0.14615246974E+02  0.51100000000E-03 0.  1.
        -12    1    3    3    0    0 -0.18803371125E+02  0.68995529732E+01 -0.62158078425E+00  0.20038886186E+02  0.00000000000E+00 0.  1.
</event>
<event>
 7    1  0.2945316E-011  0.5052886E+02  0.7816164E-02  0.1300439E+00
        -11   -1    0    0    0    0  0.00000000000E+00  0.00000000000E+00  0.45593999997E+02  0.45594000000E+02  0.51100000000E-03 0. -1.
         11   -1    0    0    0    0 -0.00000000000E+00 -0.00000000000E+00 -0.45593999997E+02  0.45594000000E+02  0.51100000000E-03 0.  1.
    9900012    2    1    2    0    0  0.22962015834E+02 -0.31545068911E+02 -0.11437649468E+02  0.50528863645E+02  0.30000011537E+02 0.  0.
        -12    1    1    2    0    0 -0.22962015834E+02  0.31545068911E+02  0.11437649468E+02  0.40659136355E+02  0.00000000000E+00 0.  1.
         11    1    3    3    0    0 -0.18315354451E+01 -0.31867043528E+01  0.52603201471E+01  0.64172092867E+01  0.51100000000E-03 0. -1.
        -11    1    3    3    0    0  0.51686494952E+01 -0.80184712624E+01  0.26000852861E+01  0.98879352115E+01  0.51100000000E-03 0.  1.
        -12    1    3    3    0    0  0.19624901784E+02 -0.20339893296E+02 -0.19298054901E+02  0.34223719147E+02  0.00000000000E+00 0.  1.
</event>
<event>
 7    1  0.2945316E-011  0.5052886E+02  0.7816164E-02  0.1300439E+00
        -11   -1    0    0    0    0  0.00000000000E+00  0.00000000000E+00  0.45593999997E+02  0.45594000000E+02  0.51100000000E-03 0.  1.
         11   -1    0    0    0    0 -0.00000000000E+00 -0.00000000000E+00 -0.45593999997E+02  0.45594000000E+02  0.51100000000E-03 0. -1.
    9900012    2    1    2    0    0 -0.32314411348E+02 -0.55207243034E+01 -0.24051326923E+02  0.50528857063E+02  0.29999991529E+02 0.  0.
        -12    1    1    2    0    0  0.32314411348E+02  0.55207243034E+01  0.24051326923E+02  0.40659142937E+02  0.00000000000E+00 0.  1.
         11    1    3    3    0    0  0.21120337696E+01  0.22333127357E+00 -0.41027681478E+01  0.46198777297E+01  0.51100000000E-03 0.  1.
        -11    1    3    3    0    0 -0.15889149613E+01  0.21452241827E+01 -0.10508785294E+02  0.10842564557E+02  0.51100000000E-03 0. -1.
        -12    1    3    3    0    0 -0.32837530156E+02 -0.78892797596E+01 -0.94397734814E+01  0.35066414776E+02  0.00000000000E+00 0.  1.
</event>
<event>
 7    1  0.3032551E-011  0.5052890E+02  0.7816164E-02  0.1300439E+00
        -11   -1    0    0    0    0  0.00000000000E+00  0.00000000000E+00  0.45593999997E+02  0.45594000000E+02  0.51100000000E-03 0. -1.
         11   -1    0    0    0    0 -0.00000000000E+00 -0.00000000000E+00 -0.45593999997E+02  0.45594000000E+02  0.51100000000E-03 0.  1.
    9900012    2    1    2    0    0 -0.14725992610E+02 -0.11989388250E+02  0.35952218233E+02  0.50528901573E+02  0.30000126822E+02 0.  0.
        -12    1    1    2    0    0  0.14725992610E+02  0.11989388250E+02 -0.35952218233E+02  0.40659098427E+02  0.00000000000E+00 0.  1.
         11    1    3    3    0    0 -0.43100452728E+01  0.56533655776E+01  0.10314466986E+02  0.12526981363E+02  0.51100000000E-03 0. -1.
        -11    1    3    3    0    0 -0.76978217402E+01 -0.49258144988E+01 -0.12871760956E+00  0.91398400700E+01  0.51100000000E-03 0.  1.
         12    1    3    3    0    0 -0.27181255969E+01 -0.12716939329E+02  0.25766468857E+02  0.28862080141E+02  0.00000000000E+00 0. -1.
</event>
<event>
 7    1  0.2945316E-011  0.5052886E+02  0.7816164E-02  0.1300439E+00
        -11   -1    0    0    0    0  0.00000000000E+00  0.00000000000E+00  0.45593999997E+02  0.45594000000E+02  0.51100000000E-03 0.  1.
         11   -1    0    0    0    0 -0.00000000000E+00 -0.00000000000E+00 -0.45593999997E+02  0.45594000000E+02  0.51100000000E-03 0. -1.
    9900012    2    1    2    0    0  0.29270320592E+01 -0.29854502510E+02 -0.27446437070E+02  0.50528859028E+02  0.29999997501E+02 0.  0.
        -12    1    1    2    0    0 -0.29270320592E+01  0.29854502510E+02  0.27446437070E+02  0.40659140972E+02  0.00000000000E+00 0.  1.
         11    1    3    3    0    0  0.54553330430E+01 -0.18607835251E+02 -0.89896950740E+01  0.21373507178E+02  0.51100000000E-03 0. -1.
        -11    1    3    3    0    0 -0.34545284627E+01 -0.12436183281E+02 -0.25241209634E+01  0.13151562964E+02  0.51100000000E-03 0.  1.
         12    1    3    3    0    0  0.92622747896E+00  0.11895160224E+01 -0.15932621032E+02  0.16003788885E+02  0.00000000000E+00 0. -1.
</event>
<event>
 7    1  0.2945316E-011  0.5052886E+02  0.7816164E-02  0.1300439E+00
        -11   -1    0    0    0    0  0.00000000000E+00  0.00000000000E+00  0.45593999997E+02  0.45594000000E+02  0.51100000000E-03 0.  1.
         11   -1    0    0    0    0 -0.00000000000E+00 -0.00000000000E+00 -0.45593999997E+02  0.45594000000E+02  0.51100000000E-03 0. -1.
    9900012    2    1    2    0    0  0.13300601997E+02  0.23617878646E+02 -0.30306026363E+02  0.50528862784E+02  0.30000008917E+02 0.  0.
        -12    1    1    2    0    0 -0.13300601997E+02 -0.23617878646E+02  0.30306026363E+02  0.40659137216E+02  0.00000000000E+00 0.  1.
         11    1    3    3    0    0  0.45656537653E+01  0.67590920243E+01 -0.24478689126E+01  0.85160191270E+01  0.51100000000E-03 0. -1.
        -11    1    3    3    0    0  0.11111873367E+02  0.12469965678E+02 -0.33928753110E+01  0.17043631563E+02  0.51100000000E-03 0.  1.
         12    1    3    3    0    0 -0.23769251348E+01  0.43888209438E+01 -0.24465282140E+02  0.24969212093E+02  0.00000000000E+00 0. -1.
</event>
<event>
 7    1  0.2945316E-011  0.5052887E+02  0.7816164E-02  0.1300439E+00
        -11   -1    0    0    0    0  0.00000000000E+00  0.00000000000E+00  0.45593999997E+02  0.45594000000E+02  0.51100000000E-03 0. -1.
         11   -1    0    0    0    0 -0.00000000000E+00 -0.00000000000E+00 -0.45593999997E+02  0.45594000000E+02  0.51100000000E-03 0.  1.
    9900012    2    1    2    0    0  0.10983132998E+02  0.22727412316E+01  0.39081587640E+02  0.50528867500E+02  0.30000023254E+02 0.  0.
        -12    1    1    2    0    0 -0.10983132998E+02 -0.22727412316E+01 -0.39081587640E+02  0.40659132500E+02  0.00000000000E+00 0.  1.
         11    1    3    3    0    0  0.59663790509E+00  0.71753940966E+01  0.11141337858E+02  0.13265431269E+02  0.51100000000E-03 0. -1.
        -11    1    3    3    0    0 -0.53046097756E+01  0.39610868579E+01  0.80671300409E+01  0.10435884310E+02  0.51100000000E-03 0.  1.
         12    1    3    3    0    0  0.15691104868E+02 -0.88637397229E+01  0.19873119741E+02  0.26827551922E+02  0.00000000000E+00 0. -1.
</event>
<event>
 7    1  0.2945316E-011  0.5052885E+02  0.7816164E-02  0.1300439E+00
        -11   -1    0    0    0    0  0.00000000000E+00  0.00000000000E+00  0.45593999997E+02  0.45594000000E+02  0.51100000000E-03 0.  1.
         11   -1    0    0    0    0 -0.00000000000E+00 -0.00000000000E+00 -0.45593999997E+02  0.45594000000E+02  0.51100000000E-03 0. -1.
    9900012    2    1    2    0    0  0.67212949144E+01  0.40092022294E+02 -0.78742441418E+00  0.50528854729E+02  0.29999984434E+02 0.  0.
        -12    1    1    2    0    0 -0.67212949144E+01 -0.40092022294E+02  0.78742441418E+00  0.40659145271E+02  0.00000000000E+00 0.  1.
         11    1    3    3    0    0  0.94352716039E+01  0.29867631847E+02 -0.48682753324E+01  0.31698578633E+02  0.51100000000E-03 0. -1.
        -11    1    3    3    0    0  0.13136348062E+01  0.13264194396E+02  0.32024259055E+01  0.13708392369E+02  0.51100000000E-03 0.  1.
         12    1    3    3    0    0 -0.40276114956E+01 -0.30398039493E+01  0.87842501272E+00  0.51218837269E+01  0.00000000000E+00 0. -1.
</event>
<event>
 7    1  0.2945316E-011  0.5052886E+02  0.7816164E-02  0.1300439E+00
        -11   -1    0    0    0    0  0.00000000000E+00  0.00000000000E+00  0.45593999997E+02  0.45594000000E+02  0.51100000000E-03 0.  1.
         11   -1    0    0    0    0 -0.00000000000E+00 -0.00000000000E+00 -0.45593999997E+02  0.45594000000E+02  0.51100000000E-03 0. -1.
    9900012    2    1    2    0    0  0.27942483661E+01  0.24035014360E+02 -0.32675316422E+02  0.50528855364E+02  0.29999986366E+02 0.  0.
        -12    1    1    2    0    0 -0.27942483661E+01 -0.24035014360E+02  0.32675316422E+02  0.40659144636E+02  0.00000000000E+00 0.  1.
         11    1    3    3    0    0  0.71177705526E+01  0.10295558669E+02 -0.17578443280E+02  0.21579222747E+02  0.51100000000E-03 0. -1.
        -11    1    3    3    0    0  0.47518233300E+01  0.14566842535E+02 -0.73739878698E+01  0.17004364845E+02  0.51100000000E-03 0.  1.
        -12    1    3    3    0    0 -0.90753455165E+01 -0.82738684465E+00 -0.77228852724E+01  0.11945267773E+02  0.00000000000E+00 0.  1.
</event>
<event>
 7    1  0.2945316E-011  0.5052883E+02  0.7816164E-02  0.1300439E+00
        -11   -1    0    0    0    0  0.00000000000E+00  0.00000000000E+00  0.45593999997E+02  0.45594000000E+02  0.51100000000E-03 0.  1.
         11   -1    0    0    0    0 -0.00000000000E+00 -0.00000000000E+00 -0.45593999997E+02  0.45594000000E+02  0.51100000000E-03 0. -1.
    9900012    2    1    2    0    0  0.88374460598E+01  0.33098226415E+02 -0.21899206099E+02  0.50528827942E+02  0.29999903013E+02 0.  0.
        -12    1    1    2    0    0 -0.88374460598E+01 -0.33098226415E+02  0.21899206099E+02  0.40659172058E+02  0.00000000000E+00 0.  1.
         11    1    3    3    0    0  0.26290271498E+01  0.79387907299E+01 -0.13849471671E+02  0.16178505736E+02  0.51100000000E-03 0. -1.
        -11    1    3    3    0    0 -0.27592260897E+01  0.47059932471E+01 -0.10550860836E+02  0.11877725612E+02  0.51100000000E-03 0.  1.
        -12    1    3    3    0    0  0.89676449998E+01  0.20453442438E+02  0.25011264083E+01  0.22472596595E+02  0.00000000000E+00 0.  1.
</event>
<event>
 7    1  0.2945316E-011  0.5052884E+02  0.7816164E-02  0.1300439E+00
        -11   -1    0    0    0    0  0.00000000000E+00  0.00000000000E+00  0.45593999997E+02  0.45594000000E+02  0.51100000000E-03 0.  1.
         11   -1    0    0    0    0 -0.00000000000E+00 -0.00000000000E+00 -0.45593999997E+02  0.45594000000E+02  0.51100000000E-03 0. -1.
    9900012    2    1    2    0    0  0.26409289787E+02 -0.94677484004E+01 -0.29429206282E+02  0.50528843230E+02  0.29999949483E+02 0.  0.
        -12    1    1    2    0    0 -0.26409289787E+02  0.94677484004E+01  0.29429206282E+02  0.40659156770E+02  0.00000000000E+00 0.  1.
         11    1    3    3    0    0 -0.13404233863E+01 -0.13584290404E+01 -0.40364003511E+01  0.44648171707E+01  0.51100000000E-03 0. -1.
        -11    1    3    3    0    0 -0.14898490691E+01  0.28675811040E+01  0.25810383240E+01  0.41357503222E+01  0.51100000000E-03 0.  1.
         12    1    3    3    0    0  0.29239562242E+02 -0.10976900464E+02 -0.27973844255E+02  0.41928275737E+02  0.00000000000E+00 0. -1.
</event>
<event>
 7    1  0.2945316E-011  0.5052885E+02  0.7816164E-02  0.1300439E+00
        -11   -1    0    0    0    0  0.00000000000E+00  0.00000000000E+00  0.45593999997E+02  0.45594000000E+02  0.51100000000E-03 0.  1.
         11   -1    0    0    0    0 -0.00000000000E+00 -0.00000000000E+00 -0.45593999997E+02  0.45594000000E+02  0.51100000000E-03 0. -1.
    9900012    2    1    2    0    0 -0.37351620386E+02 -0.10497634416E+02  0.12158216515E+02  0.50528854625E+02  0.29999984118E+02 0.  0.
        -12    1    1    2    0    0  0.37351620386E+02  0.10497634416E+02 -0.12158216515E+02  0.40659145375E+02  0.00000000000E+00 0.  1.
         11    1    3    3    0    0 -0.24808953360E+02 -0.24785347041E+00  0.10505642438E+02  0.26942793498E+02  0.51100000000E-03 0. -1.
        -11    1    3    3    0    0 -0.15840996376E+01  0.63273937322E+00  0.70289192434E+01  0.72329410869E+01  0.51100000000E-03 0.  1.
        -12    1    3    3    0    0 -0.10958567389E+02 -0.10882520319E+02 -0.53763451671E+01  0.16353120040E+02  0.00000000000E+00 0.  1.
</event>
<event>
 7    1  0.2945316E-011  0.5052886E+02  0.7816164E-02  0.1300439E+00
        -11   -1    0    0    0    0  0.00000000000E+00  0.00000000000E+00  0.45593999997E+02  0.45594000000E+02  0.51100000000E-03 0.  1.
         11   -1    0    0    0    0 -0.00000000000E+00 -0.00000000000E+00 -0.45593999997E+02  0.45594000000E+02  0.51100000000E-03 0. -1.
    9900012    2    1    2    0    0 -0.28158440679E+02 -0.67242056869E+01 -0.28549127212E+02  0.50528863411E+02  0.30000010825E+02 0.  0.
        -12    1    1    2    0    0  0.28158440679E+02  0.67242056869E+01  0.28549127212E+02  0.40659136589E+02  0.00000000000E+00 0.  1.
         11    1    3    3    0    0 -0.14645709914E+01 -0.32328256413E+01 -0.30256932259E+01  0.46637913305E+01  0.51100000000E-03 0. -1.
        -11    1    3    3    0    0 -0.23403062549E+02 -0.13673101609E+02 -0.15609575499E+02  0.31278041687E+02  0.51100000000E-03 0.  1.
        -12    1    3    3    0    0 -0.32908071386E+01  0.10181721563E+02 -0.99138584867E+01  0.14587030394E+02  0.00000000000E+00 0.  1.
</event>
<event>
 7    1  0.2945316E-011  0.5052885E+02  0.7816164E-02  0.1300439E+00
        -11   -1    0    0    0    0  0.00000000000E+00  0.00000000000E+00  0.45593999997E+02  0.45594000000E+02  0.51100000000E-03 0.  1.
         11   -1    0    0    0    0 -0.00000000000E+00 -0.00000000000E+00 -0.45593999997E+02  0.45594000000E+02  0.51100000000E-03 0. -1.
    9900012    2    1    2    0    0 -0.29883216660E+02  0.70941630477E+01 -0.26642678696E+02  0.50528854468E+02  0.29999983641E+02 0.  0.
        -12    1    1    2    0    0  0.29883216660E+02 -0.70941630477E+01  0.26642678696E+02  0.40659145532E+02  0.00000000000E+00 0.  1.
         11    1    3    3    0    0 -0.20054843313E+02  0.36456993377E+01 -0.18613395103E+02  0.27603375545E+02  0.51100000000E-03 0. -1.
        -11    1    3    3    0    0 -0.64469293679E+01  0.78411943206E+01 -0.12285312584E+02  0.15936628633E+02  0.51100000000E-03 0.  1.
        -12    1    3    3    0    0 -0.33814439791E+01 -0.43927306106E+01  0.42560289911E+01  0.69888502898E+01  0.00000000000E+00 0.  1.
</event>
<event>
 7    1  0.2945316E-011  0.5052886E+02  0.7816164E-02  0.1300439E+00
        -11   -1    0    0    0    0  0.00000000000E+00  0.00000000000E+00  0.45593999997E+02  0.45594000000E+02  0.51100000000E-03 0.  1.
         11   -1    0    0    0    0 -0.00000000000E+00 -0.00000000000E+00 -0.45593999997E+02  0.45594000000E+02  0.51100000000E-03 0. -1.
    9900012    2    1    2    0    0  0.71704213332E+00  0.25746026875E+02 -0.31460986957E+02  0.50528858966E+02  0.29999997315E+02 0.  0.
        -12    1    1    2    0    0 -0.71704213332E+00 -0.25746026875E+02  0.31460986957E+02  0.40659141034E+02  0.00000000000E+00 0.  1.
         11    1    3    3    0    0  0.30115338820E+01  0.14692021195E+01 -0.16941549694E+02  0.17269742253E+02  0.51100000000E-03 0. -1.
        -11    1    3    3    0    0 -0.64488196290E+01  0.13361271389E+01 -0.26651850808E+01  0.71046268104E+01  0.51100000000E-03 0.  1.
         12    1    3    3    0    0  0.41543278804E+01  0.22940697617E+02 -0.11854252182E+02  0.26154489903E+02  0.00000000000E+00 0. -1.
</event>
<event>
 7    1  0.2945316E-011  0.5052885E+02  0.7816164E-02  0.1300439E+00
        -11   -1    0    0    0    0  0.00000000000E+00  0.00000000000E+00  0.45593999997E+02  0.45594000000E+02  0.51100000000E-03 0. -1.
         11   -1    0    0    0    0 -0.00000000000E+00 -0.00000000000E+00 -0.45593999997E+02  0.45594000000E+02  0.51100000000E-03 0.  1.
    9900012    2    1    2    0    0 -0.29317816680E+02 -0.14793137948E+02  0.23974882830E+02  0.50528852051E+02  0.29999976294E+02 0.  0.
        -12    1    1    2    0    0  0.29317816680E+02  0.14793137948E+02 -0.23974882830E+02  0.40659147949E+02  0.00000000000E+00 0.  1.
         11    1    3    3    0    0 -0.46228739576E+01  0.53403184026E+01  0.81172661525E+01  0.10760110330E+02  0.51100000000E-03 0. -1.
        -11    1    3    3    0    0 -0.65802588132E+01 -0.21921087689E+00  0.10387060648E+02  0.12297922126E+02  0.51100000000E-03 0.  1.
        -12    1    3    3    0    0 -0.18114683909E+02 -0.19914245473E+02  0.54705560299E+01  0.27470819594E+02  0.00000000000E+00 0.  1.
</event>
<event>
 7    1  0.2945316E-011  0.5052880E+02  0.7816164E-02  0.1300439E+00
        -11   -1    0    0    0    0  0.00000000000E+00  0.00000000000E+00  0.45593999997E+02  0.45594000000E+02  0.51100000000E-03 0. -1.
         11   -1    0    0    0    0 -0.00000000000E+00 -0.00000000000E+00 -0.45593999997E+02  0.45594000000E+02  0.51100000000E-03 0.  1.
    9900012    2    1    2    0    0 -0.21822534975E+02  0.19319412564E+01  0.34252229145E+02  0.50528798936E+02  0.29999814845E+02 0.  0.
        -12    1    1    2    0    0  0.21822534975E+02 -0.19319412564E+01 -0.34252229145E+02  0.40659201064E+02  0.00000000000E+00 0.  1.
         11    1    3    3    0    0 -0.46329173481E+01  0.44470969567E+01  0.18236266449E+02  0.19333959986E+02  0.51100000000E-03 0. -1.
        -11    1    3    3    0    0 -0.86306136683E+01 -0.38150038826E+01  0.19655917552E+02  0.21803596997E+02  0.51100000000E-03 0.  1.
        -12    1    3    3    0    0 -0.85590039588E+01  0.12998481823E+01 -0.36399548562E+01  0.93912419529E+01  0.00000000000E+00 0.  1.
</event>
<event>
 7    1  0.2945316E-011  0.5052884E+02  0.7816164E-02  0.1300439E+00
        -11   -1    0    0    0    0  0.00000000000E+00  0.00000000000E+00  0.45593999997E+02  0.45594000000E+02  0.51100000000E-03 0.  1.
         11   -1    0    0    0    0 -0.00000000000E+00 -0.00000000000E+00 -0.45593999997E+02  0.45594000000E+02  0.51100000000E-03 0. -1.
    9900012    2    1    2    0    0  0.18579121335E+02 -0.26077547069E+02 -0.25058824435E+02  0.50528844908E+02  0.29999954582E+02 0.  0.
        -12    1    1    2    0    0 -0.18579121335E+02  0.26077547069E+02  0.25058824435E+02  0.40659155092E+02  0.00000000000E+00 0.  1.
         11    1    3    3    0    0  0.27398586146E+01 -0.24875087307E+01 -0.12418336351E+02  0.12957993784E+02  0.51100000000E-03 0. -1.
        -11    1    3    3    0    0 -0.67088939752E+00 -0.53769395308E+01 -0.11787719432E+02  0.12973507659E+02  0.51100000000E-03 0.  1.
         12    1    3    3    0    0  0.16510152118E+02 -0.18213098808E+02 -0.85276865110E+00  0.24597343465E+02  0.00000000000E+00 0. -1.
</event>
<event>
 7    1  0.2945316E-011  0.5052885E+02  0.7816164E-02  0.1300439E+00
        -11   -1    0    0    0    0  0.00000000000E+00  0.00000000000E+00  0.45593999997E+02  0.45594000000E+02  0.51100000000E-03 0.  1.
         11   -1    0    0    0    0 -0.00000000000E+00 -0.00000000000E+00 -0.45593999997E+02  0.45594000000E+02  0.51100000000E-03 0. -1.
    9900012    2    1    2    0    0 -0.12601546807E+00  0.14348507645E+02 -0.38043013460E+02  0.50528850665E+02  0.29999972082E+02 0.  0.
        -12    1    1    2    0    0  0.12601546807E+00 -0.14348507645E+02  0.38043013460E+02  0.40659149335E+02  0.00000000000E+00 0.  1.
         11    1    3    3    0    0  0.11893712151E+02  0.62577636840E+00 -0.10590907766E+02  0.15937983322E+02  0.51100000000E-03 0. -1.
        -11    1    3    3    0    0  0.16482748029E+01  0.10829630823E+00 -0.13494993293E+01  0.21329994415E+01  0.51100000000E-03 0.  1.
         12    1    3    3    0    0 -0.13668002422E+02  0.13614434969E+02 -0.26102606364E+02  0.32457867902E+02  0.00000000000E+00 0. -1.
</event>
<event>
 7    1  0.2945316E-011  0.5052886E+02  0.7816164E-02  0.1300439E+00
        -11   -1    0    0    0    0  0.00000000000E+00  0.00000000000E+00  0.45593999997E+02  0.45594000000E+02  0.51100000000E-03 0.  1.
         11   -1    0    0    0    0 -0.00000000000E+00 -0.00000000000E+00 -0.45593999997E+02  0.45594000000E+02  0.51100000000E-03 0. -1.
    9900012    2    1    2    0    0  0.21419240334E+02 -0.92551890226E+01 -0.33297499545E+02  0.50528857655E+02  0.29999993327E+02 0.  0.
        -12    1    1    2    0    0 -0.21419240334E+02  0.92551890226E+01  0.33297499545E+02  0.40659142345E+02  0.00000000000E+00 0.  1.
         11    1    3    3    0    0 -0.28108573309E+01  0.22738352595E+01 -0.15288555750E+01  0.39253847394E+01  0.51100000000E-03 0.  1.
        -11    1    3    3    0    0  0.28133103049E+02 -0.10490507497E+02 -0.27311825040E+02  0.40588890377E+02  0.51100000000E-03 0. -1.
         12    1    3    3    0    0 -0.39030053842E+01 -0.10385167848E+01 -0.44568189293E+01  0.60145825383E+01  0.00000000000E+00 0. -1.
</event>
<event>
 7    1  0.2945316E-011  0.5052885E+02  0.7816164E-02  0.1300439E+00
        -11   -1    0    0    0    0  0.00000000000E+00  0.00000000000E+00  0.45593999997E+02  0.45594000000E+02  0.51100000000E-03 0. -1.
         11   -1    0    0    0    0 -0.00000000000E+00 -0.00000000000E+00 -0.45593999997E+02  0.45594000000E+02  0.51100000000E-03 0.  1.
    9900012    2    1    2    0    0  0.17193667074E+02  0.32394403429E+02  0.17554125390E+02  0.50528845076E+02  0.29999955093E+02 0.  0.
        -12    1    1    2    0    0 -0.17193667074E+02 -0.32394403429E+02 -0.17554125390E+02  0.40659154924E+02  0.00000000000E+00 0.  1.
         11    1    3    3    0    0  0.19258214037E+01  0.14000073150E+02  0.20495103227E+02  0.24894981278E+02  0.51100000000E-03 0. -1.
        -11    1    3    3    0    0  0.19446007926E+00  0.12004999953E+01  0.19052994524E+01  0.22603498016E+01  0.51100000000E-03 0.  1.
        -12    1    3    3    0    0  0.15073385591E+02  0.17193830283E+02 -0.48462772892E+01  0.23373513996E+02  0.00000000000E+00 0.  1.
</event>
<event>
 7    1  0.2945316E-011  0.5052886E+02  0.7816164E-02  0.1300439E+00
        -11   -1    0    0    0    0  0.00000000000E+00  0.00000000000E+00  0.45593999997E+02  0.45594000000E+02  0.51100000000E-03 0.  1.
         11   -1    0    0    0    0 -0.00000000000E+00 -0.00000000000E+00 -0.45593999997E+02  0.45594000000E+02  0.51100000000E-03 0. -1.
    9900012    2    1    2    0    0  0.35545952756E+02  0.13164805838E+02 -0.14708447958E+02  0.50528864355E+02  0.30000013693E+02 0.  0.
        -12    1    1    2    0    0 -0.35545952756E+02 -0.13164805838E+02  0.14708447958E+02  0.40659135645E+02  0.00000000000E+00 0.  1.
         11    1    3    3    0    0  0.28208797319E+02  0.59784615554E+01 -0.47507855511E+01  0.29224103278E+02  0.51100000000E-03 0. -1.
        -11    1    3    3    0    0  0.81567814345E+01 -0.21358138142E+01 -0.12535152811E+01  0.85244404415E+01  0.51100000000E-03 0.  1.
         12    1    3    3    0    0 -0.81962599799E+00  0.93221580973E+01 -0.87041471253E+01  0.12780320636E+02  0.00000000000E+00 0. -1.
</event>
<event>
 7    1  0.2945316E-011  0.5052887E+02  0.7816164E-02  0.1300439E+00
        -11   -1    0    0    0    0  0.00000000000E+00  0.00000000000E+00  0.45593999997E+02  0.45594000000E+02  0.51100000000E-03 0.  1.
         11   -1    0    0    0    0 -0.00000000000E+00 -0.00000000000E+00 -0.45593999997E+02  0.45594000000E+02  0.51100000000E-03 0. -1.
    9900012    2    1    2    0    0  0.34205578929E+01  0.17652996666E+02 -0.36466916425E+02  0.50528874319E+02  0.30000043981E+02 0.  0.
        -12    1    1    2    0    0 -0.34205578929E+01 -0.17652996666E+02  0.36466916425E+02  0.40659125681E+02  0.00000000000E+00 0.  1.
         11    1    3    3    0    0 -0.11573498869E+01  0.13651517166E+01  0.34344582270E+01  0.38728028021E+01  0.51100000000E-03 0.  1.
        -11    1    3    3    0    0  0.11161773211E+01  0.53534324539E+00  0.16624401400E+01  0.20727160159E+01  0.51100000000E-03 0. -1.
         12    1    3    3    0    0  0.34617304586E+01  0.15752501704E+02 -0.41563814792E+02  0.44583355501E+02  0.00000000000E+00 0. -1.
</event>
<event>
 7    1  0.2945316E-011  0.5052886E+02  0.7816164E-02  0.1300439E+00
        -11   -1    0    0    0    0  0.00000000000E+00  0.00000000000E+00  0.45593999997E+02  0.45594000000E+02  0.51100000000E-03 0.  1.
         11   -1    0    0    0    0 -0.00000000000E+00 -0.00000000000E+00 -0.45593999997E+02  0.45594000000E+02  0.51100000000E-03 0. -1.
    9900012    2    1    2    0    0 -0.25403404611E+02  0.31687621651E+02  0.19306615887E+01  0.50528858521E+02  0.29999995959E+02 0.  0.
        -12    1    1    2    0    0  0.25403404611E+02 -0.31687621651E+02 -0.19306615887E+01  0.40659141479E+02  0.00000000000E+00 0.  1.
         11    1    3    3    0    0 -0.43097923693E+01 -0.19434447405E-01  0.61753376475E+01  0.75305699178E+01  0.51100000000E-03 0. -1.
        -11    1    3    3    0    0 -0.91640006779E+01  0.19724407483E+01  0.35528798338E+01  0.10024589084E+02  0.51100000000E-03 0.  1.
         12    1    3    3    0    0 -0.11929611563E+02  0.29734615350E+02 -0.77975558926E+01  0.32973699519E+02  0.00000000000E+00 0. -1.
</event>
<event>
 7    1  0.2945316E-011  0.5052884E+02  0.7816164E-02  0.1300439E+00
        -11   -1    0    0    0    0  0.00000000000E+00  0.00000000000E+00  0.45593999997E+02  0.45594000000E+02  0.51100000000E-03 0. -1.
         11   -1    0    0    0    0 -0.00000000000E+00 -0.00000000000E+00 -0.45593999997E+02  0.45594000000E+02  0.51100000000E-03 0.  1.
    9900012    2    1    2    0    0  0.37267448495E+01  0.16876253851E+02  0.36803131385E+02  0.50528842963E+02  0.29999948671E+02 0.  0.
        -12    1    1    2    0    0 -0.37267448495E+01 -0.16876253851E+02 -0.36803131385E+02  0.40659157037E+02  0.00000000000E+00 0.  1.
         11    1    3    3    0    0 -0.35765987390E+01 -0.48953444557E+00 -0.75690452873E+00  0.36884423867E+01  0.51100000000E-03 0. -1.
        -11    1    3    3    0    0 -0.49456237622E+01  0.51019335779E+01  0.21632370513E+01  0.74275511059E+01  0.51100000000E-03 0.  1.
         12    1    3    3    0    0  0.12248967351E+02  0.12263854718E+02  0.35396798862E+02  0.39412849471E+02  0.00000000000E+00 0. -1.
</event>
<event>
 7    1  0.2945316E-011  0.5052886E+02  0.7816164E-02  0.1300439E+00
        -11   -1    0    0    0    0  0.00000000000E+00  0.00000000000E+00  0.45593999997E+02  0.45594000000E+02  0.51100000000E-03 0.  1.
         11   -1    0    0    0    0 -0.00000000000E+00 -0.00000000000E+00 -0.45593999997E+02  0.45594000000E+02  0.51100000000E-03 0. -1.
    9900012    2    1    2    0    0 -0.22097956723E+02  0.88293745197E+01 -0.32967983812E+02  0.50528862006E+02  0.30000006555E+02 0.  0.
        -12    1    1    2    0    0  0.22097956723E+02 -0.88293745197E+01  0.32967983812E+02  0.40659137994E+02  0.00000000000E+00 0.  1.
         11    1    3    3    0    0 -0.50393006522E+01 -0.34471847871E+01  0.15040482040E+01  0.62880676905E+01  0.51100000000E-03 0.  1.
        -11    1    3    3    0    0 -0.72432877407E+01 -0.32928133271E+01 -0.47059260156E+01  0.92441103859E+01  0.51100000000E-03 0. -1.
         12    1    3    3    0    0 -0.98153683301E+01  0.15569372634E+02 -0.29766106000E+02  0.34996683930E+02  0.00000000000E+00 0. -1.
</event>
<event>
 7    1  0.2945316E-011  0.5052887E+02  0.7816164E-02  0.1300439E+00
        -11   -1    0    0    0    0  0.00000000000E+00  0.00000000000E+00  0.45593999997E+02  0.45594000000E+02  0.51100000000E-03 0.  1.
         11   -1    0    0    0    0 -0.00000000000E+00 -0.00000000000E+00 -0.45593999997E+02  0.45594000000E+02  0.51100000000E-03 0. -1.
    9900012    2    1    2    0    0 -0.15538392401E+02  0.18950743556E+02 -0.32443687003E+02  0.50528866388E+02  0.30000019872E+02 0.  0.
        -12    1    1    2    0    0  0.15538392401E+02 -0.18950743556E+02  0.32443687003E+02  0.40659133612E+02  0.00000000000E+00 0.  1.
         11    1    3    3    0    0  0.13704721979E+01 -0.11955131653E+01 -0.16443752413E+02  0.16544015216E+02  0.51100000000E-03 0. -1.
        -11    1    3    3    0    0 -0.63104109404E+01  0.53087301284E+01 -0.13161041773E+02  0.15531159732E+02  0.51100000000E-03 0.  1.
        -12    1    3    3    0    0 -0.10598453658E+02  0.14837526593E+02 -0.28388928177E+01  0.18453691440E+02  0.00000000000E+00 0.  1.
</event>
<event>
 7    1  0.2945316E-011  0.5052887E+02  0.7816164E-02  0.1300439E+00
        -11   -1    0    0    0    0  0.00000000000E+00  0.00000000000E+00  0.45593999997E+02  0.45594000000E+02  0.51100000000E-03 0.  1.
         11   -1    0    0    0    0 -0.00000000000E+00 -0.00000000000E+00 -0.45593999997E+02  0.45594000000E+02  0.51100000000E-03 0. -1.
    9900012    2    1    2    0    0 -0.18674286874E+02  0.47195408971E+01 -0.35807281669E+02  0.50528874615E+02  0.30000044881E+02 0.  0.
        -12    1    1    2    0    0  0.18674286874E+02 -0.47195408971E+01  0.35807281669E+02  0.40659125385E+02  0.00000000000E+00 0.  1.
         11    1    3    3    0    0 -0.49717659920E+01 -0.41018073056E+01 -0.73057661156E+01  0.97425612160E+01  0.51100000000E-03 0. -1.
        -11    1    3    3    0    0  0.48981470233E-01 -0.18974031619E+01 -0.22148189250E+02  0.22229368530E+02  0.51100000000E-03 0.  1.
        -12    1    3    3    0    0 -0.13751502352E+02  0.10718751365E+02 -0.63533263032E+01  0.18556944869E+02  0.00000000000E+00 0.  1.
</event>
<event>
 7    1  0.2945316E-011  0.5052886E+02  0.7816164E-02  0.1300439E+00
        -11   -1    0    0    0    0  0.00000000000E+00  0.00000000000E+00  0.45593999997E+02  0.45594000000E+02  0.51100000000E-03 0. -1.
         11   -1    0    0    0    0 -0.00000000000E+00 -0.00000000000E+00 -0.45593999997E+02  0.45594000000E+02  0.51100000000E-03 0.  1.
    9900012    2    1    2    0    0  0.22296657035E+02  0.32083606495E+02  0.11254652498E+02  0.50528856828E+02  0.29999990814E+02 0.  0.
        -12    1    1    2    0    0 -0.22296657035E+02 -0.32083606495E+02 -0.11254652498E+02  0.40659143172E+02  0.00000000000E+00 0.  1.
         11    1    3    3    0    0  0.75511272859E+00 -0.14387850318E+01  0.36583628630E+01  0.40029884711E+01  0.51100000000E-03 0. -1.
        -11    1    3    3    0    0  0.49561579446E+01  0.55103617700E+01  0.11559901752E+02  0.13731675687E+02  0.51100000000E-03 0.  1.
         12    1    3    3    0    0  0.16585386362E+02  0.28012029756E+02 -0.39636121169E+01  0.32794192670E+02  0.00000000000E+00 0. -1.
</event>
<event>
 7    1  0.2948332E-011  0.5052887E+02  0.7816164E-02  0.1300439E+00
        -11   -1    0    0    0    0  0.00000000000E+00  0.00000000000E+00  0.45593999997E+02  0.45594000000E+02  0.51100000000E-03 0. -1.
         11   -1    0    0    0    0 -0.00000000000E+00 -0.00000000000E+00 -0.45593999997E+02  0.45594000000E+02  0.51100000000E-03 0.  1.
    9900012    2    1    2    0    0 -0.16592689528E+02  0.17604402982E+02  0.32679238822E+02  0.50528868183E+02  0.30000025328E+02 0.  0.
        -12    1    1    2    0    0  0.16592689528E+02 -0.17604402982E+02 -0.32679238822E+02  0.40659131817E+02  0.00000000000E+00 0.  1.
         11    1    3    3    0    0 -0.12301697525E+02  0.33838269440E+01  0.22265567598E+02  0.25661986429E+02  0.51100000000E-03 0. -1.
        -11    1    3    3    0    0 -0.76425736403E+01  0.38631331971E+01 -0.15380239618E+01  0.87004740052E+01  0.51100000000E-03 0.  1.
        -12    1    3    3    0    0  0.33515816367E+01  0.10357442841E+02  0.11951695186E+02  0.16166407748E+02  0.00000000000E+00 0.  1.
</event>
<event>
 7    1  0.2945316E-011  0.5052885E+02  0.7816164E-02  0.1300439E+00
        -11   -1    0    0    0    0  0.00000000000E+00  0.00000000000E+00  0.45593999997E+02  0.45594000000E+02  0.51100000000E-03 0. -1.
         11   -1    0    0    0    0 -0.00000000000E+00 -0.00000000000E+00 -0.45593999997E+02  0.45594000000E+02  0.51100000000E-03 0.  1.
    9900012    2    1    2    0    0  0.16756909753E+01 -0.40307584006E+02 -0.50652818577E+01  0.50528851596E+02  0.29999974910E+02 0.  0.
        -12    1    1    2    0    0 -0.16756909753E+01  0.40307584006E+02  0.50652818577E+01  0.40659148404E+02  0.00000000000E+00 0.  1.
         11    1    3    3    0    0  0.25541069825E+01 -0.83518854237E+01  0.48144101901E+01  0.99727628243E+01  0.51100000000E-03 0. -1.
        -11    1    3    3    0    0  0.67781641909E+01 -0.15276544271E+02  0.44233396314E+01  0.17288211255E+02  0.51100000000E-03 0.  1.
         12    1    3    3    0    0 -0.76565801981E+01 -0.16679154312E+02 -0.14303031679E+02  0.23267877516E+02  0.00000000000E+00 0. -1.
</event>
<event>
 7    1  0.2945316E-011  0.5052889E+02  0.7816164E-02  0.1300439E+00
        -11   -1    0    0    0    0  0.00000000000E+00  0.00000000000E+00  0.45593999997E+02  0.45594000000E+02  0.51100000000E-03 0. -1.
         11   -1    0    0    0    0 -0.00000000000E+00 -0.00000000000E+00 -0.45593999997E+02  0.45594000000E+02  0.51100000000E-03 0.  1.
    9900012    2    1    2    0    0 -0.13832202249E+02 -0.38199993129E+02  0.16105994054E+01  0.50528888788E+02  0.30000087959E+02 0.  0.
        -12    1    1    2    0    0  0.13832202249E+02  0.38199993129E+02 -0.16105994054E+01  0.40659111212E+02  0.00000000000E+00 0.  1.
         11    1    3    3    0    0  0.16285400283E+01  0.48665680635E-01 -0.22299198156E+01  0.27617120808E+01  0.51100000000E-03 0. -1.
        -11    1    3    3    0    0 -0.11603908082E+01 -0.14513863816E+02 -0.91152526992E+01  0.17178084344E+02  0.51100000000E-03 0.  1.
         12    1    3    3    0    0 -0.14300351469E+02 -0.23734794994E+02  0.12955771920E+02  0.30589092363E+02  0.00000000000E+00 0. -1.
</event>
<event>
 7    1  0.2945316E-011  0.5052891E+02  0.7816164E-02  0.1300439E+00
        -11   -1    0    0    0    0  0.00000000000E+00  0.00000000000E+00  0.45593999997E+02  0.45594000000E+02  0.51100000000E-03 0.  1.
         11   -1    0    0    0    0 -0.00000000000E+00 -0.00000000000E+00 -0.45593999997E+02  0.45594000000E+02  0.51100000000E-03 0. -1.
    9900012    2    1    2    0    0  0.13366024258E+02  0.33906590459E+02  0.18023710988E+02  0.50528909518E+02  0.30000150971E+02 0.  0.
        -12    1    1    2    0    0 -0.13366024258E+02 -0.33906590459E+02 -0.18023710988E+02  0.40659090482E+02  0.00000000000E+00 0.  1.
         11    1    3    3    0    0  0.82527203345E+01  0.29710752285E+02  0.11717680224E+02  0.32986970524E+02  0.51100000000E-03 0. -1.
        -11    1    3    3    0    0  0.10276546887E+02  0.43801991287E+01  0.38001980368E+01  0.11799790918E+02  0.51100000000E-03 0.  1.
         12    1    3    3    0    0 -0.51632429642E+01 -0.18436095430E+00  0.25058327272E+01  0.57421480759E+01  0.00000000000E+00 0. -1.
</event>
<event>
 7    1  0.2945316E-011  0.5052886E+02  0.7816164E-02  0.1300439E+00
        -11   -1    0    0    0    0  0.00000000000E+00  0.00000000000E+00  0.45593999997E+02  0.45594000000E+02  0.51100000000E-03 0.  1.
         11   -1    0    0    0    0 -0.00000000000E+00 -0.00000000000E+00 -0.45593999997E+02  0.45594000000E+02  0.51100000000E-03 0. -1.
    9900012    2    1    2    0    0 -0.38091842936E+02 -0.86692591781E+01 -0.11270349194E+02  0.50528864202E+02  0.30000013227E+02 0.  0.
        -12    1    1    2    0    0  0.38091842936E+02  0.86692591781E+01  0.11270349194E+02  0.40659135798E+02  0.00000000000E+00 0.  1.
         11    1    3    3    0    0 -0.15738121599E+02  0.47749366942E+01 -0.63262172876E+01  0.17621280241E+02  0.51100000000E-03 0. -1.
        -11    1    3    3    0    0 -0.26549372643E+01  0.46677719050E+01 -0.28154062827E+01  0.60632746295E+01  0.51100000000E-03 0.  1.
         12    1    3    3    0    0 -0.19698784072E+02 -0.18111967777E+02 -0.21287256233E+01  0.26844309331E+02  0.00000000000E+00 0. -1.
</event>
<event>
 7    1  0.2945316E-011  0.5052876E+02  0.7816164E-02  0.1300439E+00
        -11   -1    0    0    0    0  0.00000000000E+00  0.00000000000E+00  0.45593999997E+02  0.45594000000E+02  0.51100000000E-03 0.  1.
         11   -1    0    0    0    0 -0.00000000000E+00 -0.00000000000E+00 -0.45593999997E+02  0.45594000000E+02  0.51100000000E-03 0. -1.
    9900012    2    1    2    0    0 -0.91012300971E+01  0.18432376432E+02 -0.35079752461E+02  0.50528758457E+02  0.29999691803E+02 0.  0.
        -12    1    1    2    0    0  0.91012300971E+01 -0.18432376432E+02  0.35079752461E+02  0.40659241543E+02  0.00000000000E+00 0.  1.
         11    1    3    3    0    0 -0.14489711159E+02  0.67902430989E+01 -0.70083607220E+01  0.17469294522E+02  0.51100000000E-03 0. -1.
        -11    1    3    3    0    0 -0.19167939136E+01  0.91587331072E+01 -0.18780174165E+02  0.20982169406E+02  0.51100000000E-03 0.  1.
        -12    1    3    3    0    0  0.73052749754E+01  0.24834002256E+01 -0.92912175731E+01  0.12077294529E+02  0.00000000000E+00 0.  1.
</event>
<event>
 7    1  0.2945316E-011  0.5052890E+02  0.7816164E-02  0.1300439E+00
        -11   -1    0    0    0    0  0.00000000000E+00  0.00000000000E+00  0.45593999997E+02  0.45594000000E+02  0.51100000000E-03 0.  1.
         11   -1    0    0    0    0 -0.00000000000E+00 -0.00000000000E+00 -0.45593999997E+02  0.45594000000E+02  0.51100000000E-03 0. -1.
    9900012    2    1    2    0    0  0.18343808763E+00  0.13483736670E+02 -0.38357760365E+02  0.50528897890E+02  0.30000115628E+02 0.  0.
        -12    1    1    2    0    0 -0.18343808763E+00 -0.13483736670E+02  0.38357760365E+02  0.40659102110E+02  0.00000000000E+00 0.  1.
         11    1    3    3    0    0  0.15483453335E+01  0.85887995030E+01 -0.20198907583E+02  0.22003652379E+02  0.51100000000E-03 0. -1.
        -11    1    3    3    0    0 -0.10862266564E+02  0.53350432891E+01 -0.12784507794E+02  0.17603839400E+02  0.51100000000E-03 0.  1.
        -12    1    3    3    0    0  0.94973593183E+01 -0.44010612259E+00 -0.53743449876E+01  0.10921406112E+02  0.00000000000E+00 0.  1.
</event>
<event>
 7    1  0.2945316E-011  0.5052886E+02  0.7816164E-02  0.1300439E+00
        -11   -1    0    0    0    0  0.00000000000E+00  0.00000000000E+00  0.45593999997E+02  0.45594000000E+02  0.51100000000E-03 0.  1.
         11   -1    0    0    0    0 -0.00000000000E+00 -0.00000000000E+00 -0.45593999997E+02  0.45594000000E+02  0.51100000000E-03 0. -1.
    9900012    2    1    2    0    0  0.99064042132E+01 -0.18582360488E+02 -0.34781098474E+02  0.50528858632E+02  0.29999996297E+02 0.  0.
        -12    1    1    2    0    0 -0.99064042132E+01  0.18582360488E+02  0.34781098474E+02  0.40659141368E+02  0.00000000000E+00 0.  1.
         11    1    3    3    0    0 -0.52982466698E+01 -0.11655570406E+01  0.81682838932E+00  0.54860869359E+01  0.51100000000E-03 0. -1.
        -11    1    3    3    0    0  0.11500241937E+02 -0.64618599167E+01 -0.88030887395E+01  0.15858927133E+02  0.51100000000E-03 0.  1.
        -12    1    3    3    0    0  0.37044089464E+01 -0.10954943531E+02 -0.26794838124E+02  0.29183844563E+02  0.00000000000E+00 0.  1.
</event>
<event>
 7    1  0.2945316E-011  0.5052886E+02  0.7816164E-02  0.1300439E+00
        -11   -1    0    0    0    0  0.00000000000E+00  0.00000000000E+00  0.45593999997E+02  0.45594000000E+02  0.51100000000E-03 0.  1.
         11   -1    0    0    0    0 -0.00000000000E+00 -0.00000000000E+00 -0.45593999997E+02  0.45594000000E+02  0.51100000000E-03 0. -1.
    9900012    2    1    2    0    0  0.32256077264E+02  0.22607226218E+02  0.10080894343E+02  0.50528860456E+02  0.30000001841E+02 0.  0.
        -12    1    1    2    0    0 -0.32256077264E+02 -0.22607226218E+02 -0.10080894343E+02  0.40659139544E+02  0.00000000000E+00 0.  1.
         11    1    3    3    0    0  0.12863280469E+02  0.20712450762E+02  0.16369352220E+00  0.24382296791E+02  0.51100000000E-03 0. -1.
        -11    1    3    3    0    0 -0.12791482425E+01  0.31636010701E+01  0.21157534886E+01  0.40150971399E+01  0.51100000000E-03 0.  1.
         12    1    3    3    0    0  0.20671945037E+02 -0.12688256137E+01  0.78014473321E+01  0.22131466525E+02  0.00000000000E+00 0. -1.
</event>
<event>
 7    1  0.2945316E-011  0.5052886E+02  0.7816164E-02  0.1300439E+00
        -11   -1    0    0    0    0  0.00000000000E+00  0.00000000000E+00  0.45593999997E+02  0.45594000000E+02  0.51100000000E-03 0.  1.
         11   -1    0    0    0    0 -0.00000000000E+00 -0.00000000000E+00 -0.45593999997E+02  0.45594000000E+02  0.51100000000E-03 0. -1.
    9900012    2    1    2    0    0  0.31361881373E+02 -0.11198134133E+02 -0.23328095077E+02  0.50528857962E+02  0.29999994262E+02 0.  0.
        -12    1    1    2    0    0 -0.31361881373E+02  0.11198134133E+02  0.23328095077E+02  0.40659142038E+02  0.00000000000E+00 0.  1.
         11    1    3    3    0    0  0.53836406462E+01  0.18218348497E+01 -0.49700534956E+01  0.75501060150E+01  0.51100000000E-03 0. -1.
        -11    1    3    3    0    0  0.21072714442E+02  0.36620854497E+01 -0.87188035447E+01  0.23097352647E+02  0.51100000000E-03 0.  1.
        -12    1    3    3    0    0  0.49055262849E+01 -0.16682054432E+02 -0.96392380368E+01  0.19881399300E+02  0.00000000000E+00 0.  1.
</event>
<event>
 7    1  0.2945316E-011  0.5052886E+02  0.7816164E-02  0.1300439E+00
        -11   -1    0    0    0    0  0.00000000000E+00  0.00000000000E+00  0.45593999997E+02  0.45594000000E+02  0.51100000000E-03 0.  1.
         11   -1    0    0    0    0 -0.00000000000E+00 -0.00000000000E+00 -0.45593999997E+02  0.45594000000E+02  0.51100000000E-03 0. -1.
    9900012    2    1    2    0    0 -0.30906548222E+02  0.21985093444E+02  0.14649455056E+02  0.50528860927E+02  0.30000003274E+02 0.  0.
        -12    1    1    2    0    0  0.30906548222E+02 -0.21985093444E+02 -0.14649455056E+02  0.40659139073E+02  0.00000000000E+00 0.  1.
         11    1    3    3    0    0 -0.25167097930E+02  0.41519547979E+01  0.12000751405E+02  0.28189352271E+02  0.51100000000E-03 0. -1.
        -11    1    3    3    0    0 -0.16748776020E+01  0.94888851233E+01  0.71745914860E+01  0.12013280947E+02  0.51100000000E-03 0.  1.
        -12    1    3    3    0    0 -0.40645726892E+01  0.83442535231E+01 -0.45258878355E+01  0.10326227709E+02  0.00000000000E+00 0.  1.
</event>
<event>
 7    1  0.2945316E-011  0.5052886E+02  0.7816164E-02  0.1300439E+00
        -11   -1    0    0    0    0  0.00000000000E+00  0.00000000000E+00  0.45593999997E+02  0.45594000000E+02  0.51100000000E-03 0.  1.
         11   -1    0    0    0    0 -0.00000000000E+00 -0.00000000000E+00 -0.45593999997E+02  0.45594000000E+02  0.51100000000E-03 0. -1.
    9900012    2    1    2    0    0  0.31116469573E+02 -0.16968140500E+02 -0.19925190314E+02  0.50528859825E+02  0.29999999924E+02 0.  0.
        -12    1    1    2    0    0 -0.31116469573E+02  0.16968140500E+02  0.19925190314E+02  0.40659140175E+02  0.00000000000E+00 0.  1.
         11    1    3    3    0    0 -0.87878592518E+00  0.99518865078E+00  0.25748059927E+00  0.13523910947E+01  0.51100000000E-03 0. -1.
        -11    1    3    3    0    0  0.21138960558E+00 -0.12369296567E+02 -0.35515871549E+01  0.12870817950E+02  0.51100000000E-03 0.  1.
         12    1    3    3    0    0  0.31783865892E+02 -0.55940325844E+01 -0.16631083759E+02  0.36305650780E+02  0.00000000000E+00 0. -1.
</event>
<event>
 7    1  0.2945316E-011  0.5052883E+02  0.7816164E-02  0.1300439E+00
        -11   -1    0    0    0    0  0.00000000000E+00  0.00000000000E+00  0.45593999997E+02  0.45594000000E+02  0.51100000000E-03 0.  1.
         11   -1    0    0    0    0 -0.00000000000E+00 -0.00000000000E+00 -0.45593999997E+02  0.45594000000E+02  0.51100000000E-03 0. -1.
    9900012    2    1    2    0    0  0.61227992527E+01 -0.63791740798E+01 -0.39686089290E+02  0.50528828639E+02  0.29999905131E+02 0.  0.
        -12    1    1    2    0    0 -0.61227992527E+01  0.63791740798E+01  0.39686089290E+02  0.40659171361E+02  0.00000000000E+00 0.  1.
         11    1    3    3    0    0 -0.22418986239E+00 -0.98243940081E+01 -0.11725500910E+02  0.15298900306E+02  0.51100000000E-03 0. -1.
        -11    1    3    3    0    0  0.40172241441E+01 -0.47791962011E+01 -0.26907742535E+00  0.62490966607E+01  0.51100000000E-03 0.  1.
        -12    1    3    3    0    0  0.23297649710E+01  0.82244161294E+01 -0.27691510954E+02  0.28980831672E+02  0.00000000000E+00 0.  1.
</event>
<event>
 7    1  0.2945316E-011  0.5052882E+02  0.7816164E-02  0.1300439E+00
        -11   -1    0    0    0    0  0.00000000000E+00  0.00000000000E+00  0.45593999997E+02  0.45594000000E+02  0.51100000000E-03 0.  1.
         11   -1    0    0    0    0 -0.00000000000E+00 -0.00000000000E+00 -0.45593999997E+02  0.45594000000E+02  0.51100000000E-03 0. -1.
    9900012    2    1    2    0    0 -0.34876006294E+01 -0.11445809399E+02 -0.38858707660E+02  0.50528818110E+02  0.29999873126E+02 0.  0.
        -12    1    1    2    0    0  0.34876006294E+01  0.11445809399E+02  0.38858707660E+02  0.40659181890E+02  0.00000000000E+00 0.  1.
         11    1    3    3    0    0  0.95320232901E+00  0.27124125829E+01 -0.91736000266E+01  0.96135692856E+01  0.51100000000E-03 0. -1.
        -11    1    3    3    0    0  0.29254020800E+01  0.54286027350E+01 -0.26109633169E+01  0.66966286060E+01  0.51100000000E-03 0.  1.
        -12    1    3    3    0    0 -0.73662050384E+01 -0.19586824717E+02 -0.27074144317E+02  0.34218620218E+02  0.00000000000E+00 0.  1.
</event>
<event>
 7    1  0.3505569E-011  0.5052885E+02  0.7816164E-02  0.1300439E+00
        -11   -1    0    0    0    0  0.00000000000E+00  0.00000000000E+00  0.45593999997E+02  0.45594000000E+02  0.51100000000E-03 0. -1.
         11   -1    0    0    0    0 -0.00000000000E+00 -0.00000000000E+00 -0.45593999997E+02  0.45594000000E+02  0.51100000000E-03 0.  1.
    9900012    2    1    2    0    0 -0.28774046555E+02 -0.12601821149E+02  0.25815017622E+02  0.50528846219E+02  0.29999958566E+02 0.  0.
        -12    1    1    2    0    0  0.28774046555E+02  0.12601821149E+02 -0.25815017622E+02  0.40659153781E+02  0.00000000000E+00 0.  1.
         11    1    3    3    0    0 -0.22630828300E+02 -0.60335623672E+01  0.10786702789E+02  0.25785872522E+02  0.51100000000E-03 0. -1.
        -11    1    3    3    0    0  0.36505364820E+00  0.27929216094E+01 -0.25443520031E+01  0.37957084529E+01  0.51100000000E-03 0.  1.
         12    1    3    3    0    0 -0.65082719026E+01 -0.93611803912E+01  0.17572666836E+02  0.20947265244E+02  0.00000000000E+00 0. -1.
</event>
<event>
 7    1  0.2945316E-011  0.5052884E+02  0.7816164E-02  0.1300439E+00
        -11   -1    0    0    0    0  0.00000000000E+00  0.00000000000E+00  0.45593999997E+02  0.45594000000E+02  0.51100000000E-03 0.  1.
         11   -1    0    0    0    0 -0.00000000000E+00 -0.00000000000E+00 -0.45593999997E+02  0.45594000000E+02  0.51100000000E-03 0. -1.
    9900012    2    1    2    0    0  0.26222692095E+02  0.12975050000E+02 -0.28234474198E+02  0.50528843142E+02  0.29999949214E+02 0.  0.
        -12    1    1    2    0    0 -0.26222692095E+02 -0.12975050000E+02  0.28234474198E+02  0.40659156858E+02  0.00000000000E+00 0.  1.
         11    1    3    3    0    0  0.57269414203E+01  0.36735915765E-01 -0.11128588847E+02  0.12515777944E+02  0.51100000000E-03 0. -1.
        -11    1    3    3    0    0  0.20303431467E+01 -0.50401824296E+01  0.21481440826E+01  0.58429663253E+01  0.51100000000E-03 0.  1.
         12    1    3    3    0    0  0.18465407528E+02  0.17978496513E+02 -0.19254029434E+02  0.32170098873E+02  0.00000000000E+00 0. -1.
</event>
<event>
 7    1  0.2945316E-011  0.5052885E+02  0.7816164E-02  0.1300439E+00
        -11   -1    0    0    0    0  0.00000000000E+00  0.00000000000E+00  0.45593999997E+02  0.45594000000E+02  0.51100000000E-03 0.  1.
         11   -1    0    0    0    0 -0.00000000000E+00 -0.00000000000E+00 -0.45593999997E+02  0.45594000000E+02  0.51100000000E-03 0. -1.
    9900012    2    1    2    0    0 -0.39852627913E+02  0.80488512720E+01  0.38793900949E+00  0.50528850291E+02  0.29999970946E+02 0.  0.
        -12    1    1    2    0    0  0.39852627913E+02 -0.80488512720E+01 -0.38793900949E+00  0.40659149709E+02  0.00000000000E+00 0.  1.
         11    1    3    3    0    0 -0.39412947534E+01 -0.14552779972E+00  0.56987745664E+01  0.69304411471E+01  0.51100000000E-03 0. -1.
        -11    1    3    3    0    0 -0.10442695735E+02 -0.15086811862E+00  0.84840285707E+01  0.13455534046E+02  0.51100000000E-03 0.  1.
         12    1    3    3    0    0 -0.25468637424E+02  0.83452471904E+01 -0.13794864128E+02  0.30142875098E+02  0.00000000000E+00 0. -1.
</event>
<event>
 7    1  0.2945316E-011  0.5052886E+02  0.7816164E-02  0.1300439E+00
        -11   -1    0    0    0    0  0.00000000000E+00  0.00000000000E+00  0.45593999997E+02  0.45594000000E+02  0.51100000000E-03 0.  1.
         11   -1    0    0    0    0 -0.00000000000E+00 -0.00000000000E+00 -0.45593999997E+02  0.45594000000E+02  0.51100000000E-03 0. -1.
    9900012    2    1    2    0    0 -0.19992575786E+02  0.11162775191E+02 -0.33598432170E+02  0.50528864731E+02  0.30000014837E+02 0.  0.
        -12    1    1    2    0    0  0.19992575786E+02 -0.11162775191E+02  0.33598432170E+02  0.40659135269E+02  0.00000000000E+00 0.  1.
         11    1    3    3    0    0 -0.11740389992E+02  0.33794773989E+01 -0.11577319111E+02  0.16831278701E+02  0.51100000000E-03 0. -1.
        -11    1    3    3    0    0 -0.10406943026E+02  0.14399051095E+02 -0.11781097015E+02  0.21317396246E+02  0.51100000000E-03 0.  1.
        -12    1    3    3    0    0  0.21547572322E+01 -0.66157533028E+01 -0.10240016045E+02  0.12380189784E+02  0.00000000000E+00 0.  1.
</event>
<event>
 7    1  0.2945316E-011  0.5052881E+02  0.7816164E-02  0.1300439E+00
        -11   -1    0    0    0    0  0.00000000000E+00  0.00000000000E+00  0.45593999997E+02  0.45594000000E+02  0.51100000000E-03 0.  1.
         11   -1    0    0    0    0 -0.00000000000E+00 -0.00000000000E+00 -0.45593999997E+02  0.45594000000E+02  0.51100000000E-03 0. -1.
    9900012    2    1    2    0    0 -0.49094586754E+01  0.39793794202E+02 -0.67469139540E+01  0.50528810517E+02  0.29999850048E+02 0.  0.
        -12    1    1    2    0    0  0.49094586754E+01 -0.39793794202E+02  0.67469139540E+01  0.40659189483E+02  0.00000000000E+00 0.  1.
         11    1    3    3    0    0  0.52968480356E+01 -0.13503109366E+01 -0.26023954286E+01  0.60541226421E+01  0.51100000000E-03 0. -1.
        -11    1    3    3    0    0 -0.11169210362E+00  0.19655180032E+02 -0.62866832709E+01  0.20636399008E+02  0.51100000000E-03 0.  1.
        -12    1    3    3    0    0 -0.10094614607E+02  0.21488925107E+02  0.21421647455E+01  0.23838288867E+02  0.00000000000E+00 0.  1.
</event>
<event>
 7    1  0.2945316E-011  0.5052886E+02  0.7816164E-02  0.1300439E+00
        -11   -1    0    0    0    0  0.00000000000E+00  0.00000000000E+00  0.45593999997E+02  0.45594000000E+02  0.51100000000E-03 0.  1.
         11   -1    0    0    0    0 -0.00000000000E+00 -0.00000000000E+00 -0.45593999997E+02  0.45594000000E+02  0.51100000000E-03 0. -1.
    9900012    2    1    2    0    0  0.23702116251E+02  0.18177379510E+01 -0.32985925904E+02  0.50528858424E+02  0.29999995664E+02 0.  0.
        -12    1    1    2    0    0 -0.23702116251E+02 -0.18177379510E+01  0.32985925904E+02  0.40659141576E+02  0.00000000000E+00 0.  1.
         11    1    3    3    0    0  0.14731960744E+02 -0.12159174788E+01 -0.18479243492E+02  0.23664140867E+02  0.51100000000E-03 0. -1.
        -11    1    3    3    0    0  0.46111698107E+01  0.11166101838E+02 -0.12574872791E+02  0.17437664502E+02  0.51100000000E-03 0.  1.
        -12    1    3    3    0    0  0.43589856961E+01 -0.81324464086E+01 -0.19318096198E+01  0.94270530546E+01  0.00000000000E+00 0.  1.
</event>
<event>
 7    1  0.2945316E-011  0.5052881E+02  0.7816164E-02  0.1300439E+00
        -11   -1    0    0    0    0  0.00000000000E+00  0.00000000000E+00  0.45593999997E+02  0.45594000000E+02  0.51100000000E-03 0. -1.
         11   -1    0    0    0    0 -0.00000000000E+00 -0.00000000000E+00 -0.45593999997E+02  0.45594000000E+02  0.51100000000E-03 0.  1.
    9900012    2    1    2    0    0 -0.23512691587E+02 -0.20926952802E+02  0.25736850878E+02  0.50528812694E+02  0.29999856665E+02 0.  0.
        -12    1    1    2    0    0  0.23512691587E+02  0.20926952802E+02 -0.25736850878E+02  0.40659187306E+02  0.00000000000E+00 0.  1.
         11    1    3    3    0    0 -0.61940962769E+01  0.11402397575E+01  0.56966375819E+01  0.84922703321E+01  0.51100000000E-03 0. -1.
        -11    1    3    3    0    0 -0.17270474712E+02 -0.26302271927E+01  0.10528537772E+02  0.20396997322E+02  0.51100000000E-03 0.  1.
        -12    1    3    3    0    0 -0.48120597856E-01 -0.19436965367E+02  0.95116755237E+01  0.21639545040E+02  0.00000000000E+00 0.  1.
</event>
<event>
 7    1  0.2945316E-011  0.5052886E+02  0.7816164E-02  0.1300439E+00
        -11   -1    0    0    0    0  0.00000000000E+00  0.00000000000E+00  0.45593999997E+02  0.45594000000E+02  0.51100000000E-03 0. -1.
         11   -1    0    0    0    0 -0.00000000000E+00 -0.00000000000E+00 -0.45593999997E+02  0.45594000000E+02  0.51100000000E-03 0.  1.
    9900012    2    1    2    0    0  0.31041191573E+02  0.12144756762E+02  0.23283360719E+02  0.50528861083E+02  0.30000003748E+02 0.  0.
        -12    1    1    2    0    0 -0.31041191573E+02 -0.12144756762E+02 -0.23283360719E+02  0.40659138917E+02  0.00000000000E+00 0.  1.
         11    1    3    3    0    0 -0.45643547015E+00  0.36423127245E+01  0.11785900967E+00  0.36726919731E+01  0.51100000000E-03 0. -1.
        -11    1    3    3    0    0  0.19479184726E+02  0.26108535129E+01 -0.50895121637E+00  0.19659965037E+02  0.51100000000E-03 0.  1.
        -12    1    3    3    0    0  0.12018442318E+02  0.58915905243E+01  0.23674452926E+02  0.27196204073E+02  0.00000000000E+00 0.  1.
</event>
<event>
 7    1  0.2945316E-011  0.5052885E+02  0.7816164E-02  0.1300439E+00
        -11   -1    0    0    0    0  0.00000000000E+00  0.00000000000E+00  0.45593999997E+02  0.45594000000E+02  0.51100000000E-03 0.  1.
         11   -1    0    0    0    0 -0.00000000000E+00 -0.00000000000E+00 -0.45593999997E+02  0.45594000000E+02  0.51100000000E-03 0. -1.
    9900012    2    1    2    0    0 -0.22069156800E+02  0.32258087159E+02 -0.11204224642E+02  0.50528849507E+02  0.29999968561E+02 0.  0.
        -12    1    1    2    0    0  0.22069156800E+02 -0.32258087159E+02  0.11204224642E+02  0.40659150493E+02  0.00000000000E+00 0.  1.
         11    1    3    3    0    0 -0.42828572883E+01  0.12611794425E+02 -0.23191846621E+01  0.13519572587E+02  0.51100000000E-03 0. -1.
        -11    1    3    3    0    0 -0.22540557345E+02  0.19469192394E+02 -0.37676710465E+01  0.30022017309E+02  0.51100000000E-03 0.  1.
        -12    1    3    3    0    0  0.47542578330E+01  0.17710033920E+00 -0.51173689335E+01  0.69872596112E+01  0.00000000000E+00 0.  1.
</event>
<event>
 7    1  0.2945316E-011  0.5052878E+02  0.7816164E-02  0.1300439E+00
        -11   -1    0    0    0    0  0.00000000000E+00  0.00000000000E+00  0.45593999997E+02  0.45594000000E+02  0.51100000000E-03 0.  1.
         11   -1    0    0    0    0 -0.00000000000E+00 -0.00000000000E+00 -0.45593999997E+02  0.45594000000E+02  0.51100000000E-03 0. -1.
    9900012    2    1    2    0    0  0.23608418631E+02 -0.43932101729E+01 -0.32810277308E+02  0.50528781821E+02  0.29999762822E+02 0.  0.
        -12    1    1    2    0    0 -0.23608418631E+02  0.43932101729E+01  0.32810277308E+02  0.40659218179E+02  0.00000000000E+00 0.  1.
         11    1    3    3    0    0  0.43244330260E+01 -0.63383287615E+01 -0.21787610133E+02  0.23099244318E+02  0.51100000000E-03 0. -1.
        -11    1    3    3    0    0  0.13788102919E+02 -0.63173633108E+01 -0.72882145108E+01  0.16826732669E+02  0.51100000000E-03 0.  1.
        -12    1    3    3    0    0  0.54958826862E+01  0.82624818995E+01 -0.37344526648E+01  0.10602804834E+02  0.00000000000E+00 0.  1.
</event>
<event>
 7    1  0.2945316E-011  0.5052885E+02  0.7816164E-02  0.1300439E+00
        -11   -1    0    0    0    0  0.00000000000E+00  0.00000000000E+00  0.45593999997E+02  0.45594000000E+02  0.51100000000E-03 0.  1.
         11   -1    0    0    0    0 -0.00000000000E+00 -0.00000000000E+00 -0.45593999997E+02  0.45594000000E+02  0.51100000000E-03 0. -1.
    9900012    2    1    2    0    0 -0.79909844647E+01  0.15856101327E+02 -0.36577242875E+02  0.50528850004E+02  0.29999970073E+02 0.  0.
        -12    1    1    2    0    0  0.79909844647E+01 -0.15856101327E+02  0.36577242875E+02  0.40659149996E+02  0.00000000000E+00 0.  1.
         11    1    3    3    0    0 -0.46535230986E+01 -0.37978051536E+00 -0.36008252656E+01  0.58962236494E+01  0.51100000000E-03 0. -1.
        -11    1    3    3    0    0  0.22052482741E+01 -0.55244414157E+01 -0.18066340218E+01  0.62166308927E+01  0.51100000000E-03 0.  1.
        -12    1    3    3    0    0 -0.55427096402E+01  0.21760323258E+02 -0.31169783588E+02  0.38415995462E+02  0.00000000000E+00 0.  1.
</event>
<event>
 7    1  0.2945316E-011  0.5052885E+02  0.7816164E-02  0.1300439E+00
        -11   -1    0    0    0    0  0.00000000000E+00  0.00000000000E+00  0.45593999997E+02  0.45594000000E+02  0.51100000000E-03 0.  1.
         11   -1    0    0    0    0 -0.00000000000E+00 -0.00000000000E+00 -0.45593999997E+02  0.45594000000E+02  0.51100000000E-03 0. -1.
    9900012    2    1    2    0    0 -0.38417852408E+02  0.12924374545E+02 -0.31930834190E+01  0.50528848229E+02  0.29999964678E+02 0.  0.
        -12    1    1    2    0    0  0.38417852408E+02 -0.12924374545E+02  0.31930834190E+01  0.40659151771E+02  0.00000000000E+00 0.  1.
         11    1    3    3    0    0 -0.39122295865E+02  0.21993435985E+01 -0.16093334768E+01  0.39217102143E+02  0.51100000000E-03 0. -1.
        -11    1    3    3    0    0 -0.18972915107E+00  0.56244574097E-01 -0.51575560041E+00  0.55241714615E+00  0.51100000000E-03 0.  1.
        -12    1    3    3    0    0  0.89417260861E+00  0.10668786373E+02 -0.10679943417E+01  0.10759328940E+02  0.00000000000E+00 0.  1.
</event>
<event>
 7    1  0.2945316E-011  0.5052886E+02  0.7816164E-02  0.1300439E+00
        -11   -1    0    0    0    0  0.00000000000E+00  0.00000000000E+00  0.45593999997E+02  0.45594000000E+02  0.51100000000E-03 0.  1.
         11   -1    0    0    0    0 -0.00000000000E+00 -0.00000000000E+00 -0.45593999997E+02  0.45594000000E+02  0.51100000000E-03 0. -1.
    9900012    2    1    2    0    0  0.18282010342E+02 -0.29281117611E+02 -0.21483713661E+02  0.50528859535E+02  0.29999999043E+02 0.  0.
        -12    1    1    2    0    0 -0.18282010342E+02  0.29281117611E+02  0.21483713661E+02  0.40659140465E+02  0.00000000000E+00 0.  1.
         11    1    3    3    0    0  0.39274600384E+01 -0.36480936380E+01 -0.15589063996E+02  0.16484915713E+02  0.51100000000E-03 0. -1.
        -11    1    3    3    0    0  0.14021704519E+02 -0.96214638719E+01 -0.78479863938E-01  0.17005496876E+02  0.51100000000E-03 0.  1.
        -12    1    3    3    0    0  0.33284578508E+00 -0.16011560101E+02 -0.58161698005E+01  0.17038446946E+02  0.00000000000E+00 0.  1.
</event>
<event>
 7    1  0.2945316E-011  0.5052884E+02  0.7816164E-02  0.1300439E+00
        -11   -1    0    0    0    0  0.00000000000E+00  0.00000000000E+00  0.45593999997E+02  0.45594000000E+02  0.51100000000E-03 0. -1.
         11   -1    0    0    0    0 -0.00000000000E+00 -0.00000000000E+00 -0.45593999997E+02  0.45594000000E+02  0.51100000000E-03 0.  1.
    9900012    2    1    2    0    0 -0.31005535899E+02 -0.22822163996E+02  0.13075647899E+02  0.50528843665E+02  0.29999950804E+02 0.  0.
        -12    1    1    2    0    0  0.31005535899E+02  0.22822163996E+02 -0.13075647899E+02  0.40659156335E+02  0.00000000000E+00 0.  1.
         11    1    3    3    0    0 -0.51938112840E+01 -0.84077181297E+01 -0.35589569420E+01  0.10503883786E+02  0.51100000000E-03 0. -1.
        -11    1    3    3    0    0 -0.18927651247E+01  0.24055446686E+01  0.94233397668E+01  0.99080037137E+01  0.51100000000E-03 0.  1.
         12    1    3    3    0    0 -0.23918959491E+02 -0.16819990535E+02  0.72112650741E+01  0.30116956166E+02  0.00000000000E+00 0. -1.
</event>
<event>
 7    1  0.2945316E-011  0.5052883E+02  0.7816164E-02  0.1300439E+00
        -11   -1    0    0    0    0  0.00000000000E+00  0.00000000000E+00  0.45593999997E+02  0.45594000000E+02  0.51100000000E-03 0.  1.
         11   -1    0    0    0    0 -0.00000000000E+00 -0.00000000000E+00 -0.45593999997E+02  0.45594000000E+02  0.51100000000E-03 0. -1.
    9900012    2    1    2    0    0  0.41720436924E+01 -0.38481874774E+02 -0.12446181615E+02  0.50528830413E+02  0.29999910524E+02 0.  0.
        -12    1    1    2    0    0 -0.41720436924E+01  0.38481874774E+02  0.12446181615E+02  0.40659169587E+02  0.00000000000E+00 0.  1.
         11    1    3    3    0    0 -0.22677215088E+00 -0.32270889589E+01 -0.63302669237E+01  0.71089948898E+01  0.51100000000E-03 0. -1.
        -11    1    3    3    0    0 -0.93271786692E+01 -0.13505094460E+02 -0.66161794120E+01  0.17696261429E+02  0.51100000000E-03 0.  1.
        -12    1    3    3    0    0  0.13725994512E+02 -0.21749691355E+02  0.50026472035E+00  0.25723574094E+02  0.00000000000E+00 0.  1.
</event>
<event>
 7    1  0.2945316E-011  0.5052884E+02  0.7816164E-02  0.1300439E+00
        -11   -1    0    0    0    0  0.00000000000E+00  0.00000000000E+00  0.45593999997E+02  0.45594000000E+02  0.51100000000E-03 0.  1.
         11   -1    0    0    0    0 -0.00000000000E+00 -0.00000000000E+00 -0.45593999997E+02  0.45594000000E+02  0.51100000000E-03 0. -1.
    9900012    2    1    2    0    0  0.33395871492E+02  0.22927953369E+02 -0.34916841108E+01  0.50528841913E+02  0.29999945480E+02 0.  0.
        -12    1    1    2    0    0 -0.33395871492E+02 -0.22927953369E+02  0.34916841108E+01  0.40659158087E+02  0.00000000000E+00 0.  1.
         11    1    3    3    0    0  0.10391034624E+02  0.77305595024E+00 -0.52644198200E+01  0.11674130904E+02  0.51100000000E-03 0. -1.
        -11    1    3    3    0    0  0.20148797402E+01  0.58573503849E+01 -0.83682150397E+01  0.10411307176E+02  0.51100000000E-03 0.  1.
        -12    1    3    3    0    0  0.20989957127E+02  0.16297547034E+02  0.10140950749E+02  0.28443403833E+02  0.00000000000E+00 0.  1.
</event>
<event>
 7    1  0.2945316E-011  0.5052886E+02  0.7816164E-02  0.1300439E+00
        -11   -1    0    0    0    0  0.00000000000E+00  0.00000000000E+00  0.45593999997E+02  0.45594000000E+02  0.51100000000E-03 0.  1.
         11   -1    0    0    0    0 -0.00000000000E+00 -0.00000000000E+00 -0.45593999997E+02  0.45594000000E+02  0.51100000000E-03 0. -1.
    9900012    2    1    2    0    0 -0.25288126010E+02  0.28313549121E+02 -0.14560887245E+02  0.50528858121E+02  0.29999994745E+02 0.  0.
        -12    1    1    2    0    0  0.25288126010E+02 -0.28313549121E+02  0.14560887245E+02  0.40659141879E+02  0.00000000000E+00 0.  1.
         11    1    3    3    0    0 -0.20322216939E+02  0.21866311353E+02 -0.67032984409E+01  0.30595134969E+02  0.51100000000E-03 0.  1.
        -11    1    3    3    0    0 -0.10547116144E+02  0.70705232261E+01 -0.52116235406E+01  0.13725705004E+02  0.51100000000E-03 0. -1.
        -12    1    3    3    0    0  0.55812070735E+01 -0.62328545786E+00 -0.26459652638E+01  0.62080181489E+01  0.00000000000E+00 0.  1.
</event>
<event>
 7    1  0.2945316E-011  0.5052887E+02  0.7816164E-02  0.1300439E+00
        -11   -1    0    0    0    0  0.00000000000E+00  0.00000000000E+00  0.45593999997E+02  0.45594000000E+02  0.51100000000E-03 0. -1.
         11   -1    0    0    0    0 -0.00000000000E+00 -0.00000000000E+00 -0.45593999997E+02  0.45594000000E+02  0.51100000000E-03 0.  1.
    9900012    2    1    2    0    0  0.38429550335E+02  0.24817493810E+01  0.13045120412E+02  0.50528873281E+02  0.30000040826E+02 0.  0.
        -12    1    1    2    0    0 -0.38429550335E+02 -0.24817493810E+01 -0.13045120412E+02  0.40659126719E+02  0.00000000000E+00 0.  1.
         11    1    3    3    0    0  0.24624044794E+01  0.95989195472E+01  0.16759808882E+01  0.10050452950E+02  0.51100000000E-03 0. -1.
        -11    1    3    3    0    0  0.28035907034E+02 -0.80141455504E+00  0.49564843394E+01  0.28481943153E+02  0.51100000000E-03 0.  1.
        -12    1    3    3    0    0  0.79312388220E+01 -0.63157556111E+01  0.64126551840E+01  0.11996477179E+02  0.00000000000E+00 0.  1.
</event>
<event>
 7    1  0.2945316E-011  0.5052886E+02  0.7816164E-02  0.1300439E+00
        -11   -1    0    0    0    0  0.00000000000E+00  0.00000000000E+00  0.45593999997E+02  0.45594000000E+02  0.51100000000E-03 0.  1.
         11   -1    0    0    0    0 -0.00000000000E+00 -0.00000000000E+00 -0.45593999997E+02  0.45594000000E+02  0.51100000000E-03 0. -1.
    9900012    2    1    2    0    0 -0.13468638879E+02 -0.28368138903E+02 -0.25826540676E+02  0.50528859067E+02  0.29999997621E+02 0.  0.
        -12    1    1    2    0    0  0.13468638879E+02  0.28368138903E+02  0.25826540676E+02  0.40659140933E+02  0.00000000000E+00 0.  1.
         11    1    3    3    0    0 -0.10498898309E+01 -0.88551551778E+01 -0.15518450339E+02  0.17897998298E+02  0.51100000000E-03 0. -1.
        -11    1    3    3    0    0 -0.10312535365E+02  0.97894466692E+00 -0.35810501138E+01  0.10960412332E+02  0.51100000000E-03 0.  1.
         12    1    3    3    0    0 -0.21062136829E+01 -0.20491928392E+02 -0.67270402233E+01  0.21670448437E+02  0.00000000000E+00 0. -1.
</event>
<event>
 7    1  0.2945316E-011  0.5052887E+02  0.7816164E-02  0.1300439E+00
        -11   -1    0    0    0    0  0.00000000000E+00  0.00000000000E+00  0.45593999997E+02  0.45594000000E+02  0.51100000000E-03 0.  1.
         11   -1    0    0    0    0 -0.00000000000E+00 -0.00000000000E+00 -0.45593999997E+02  0.45594000000E+02  0.51100000000E-03 0. -1.
    9900012    2    1    2    0    0 -0.26692976629E+02  0.20809247458E+02 -0.22530541642E+02  0.50528867105E+02  0.30000022053E+02 0.  0.
        -12    1    1    2    0    0  0.26692976629E+02 -0.20809247458E+02  0.22530541642E+02  0.40659132895E+02  0.00000000000E+00 0.  1.
         11    1    3    3    0    0 -0.19926975501E+01  0.54292244825E+01 -0.64914608585E+01  0.86940431530E+01  0.51100000000E-03 0. -1.
        -11    1    3    3    0    0  0.48851312346E+01  0.23675204892E+01  0.63674770890E+00  0.54658126890E+01  0.51100000000E-03 0.  1.
        -12    1    3    3    0    0 -0.29585410313E+02  0.13012502487E+02 -0.16675828492E+02  0.36369011263E+02  0.00000000000E+00 0.  1.
</event>
<event>
 7    1  0.2945316E-011  0.5052887E+02  0.7816164E-02  0.1300439E+00
        -11   -1    0    0    0    0  0.00000000000E+00  0.00000000000E+00  0.45593999997E+02  0.45594000000E+02  0.51100000000E-03 0. -1.
         11   -1    0    0    0    0 -0.00000000000E+00 -0.00000000000E+00 -0.45593999997E+02  0.45594000000E+02  0.51100000000E-03 0.  1.
    9900012    2    1    2    0    0  0.74271807598E+01  0.13456610432E+02  0.37642016978E+02  0.50528870391E+02  0.30000032040E+02 0.  0.
        -12    1    1    2    0    0 -0.74271807598E+01 -0.13456610432E+02 -0.37642016978E+02  0.40659129609E+02  0.00000000000E+00 0.  1.
         11    1    3    3    0    0 -0.12257668509E+01 -0.24383394199E+01  0.10993379993E+02  0.11327065261E+02  0.51100000000E-03 0. -1.
        -11    1    3    3    0    0 -0.64549365416E+01 -0.47636712794E-01  0.87215873453E+01  0.10850555797E+02  0.51100000000E-03 0.  1.
        -12    1    3    3    0    0  0.15107884152E+02  0.15942586565E+02  0.17927049640E+02  0.28351249333E+02  0.00000000000E+00 0.  1.
</event>
<event>
 7    1  0.2945316E-011  0.5052887E+02  0.7816164E-02  0.1300439E+00
        -11   -1    0    0    0    0  0.00000000000E+00  0.00000000000E+00  0.45593999997E+02  0.45594000000E+02  0.51100000000E-03 0.  1.
         11   -1    0    0    0    0 -0.00000000000E+00 -0.00000000000E+00 -0.45593999997E+02  0.45594000000E+02  0.51100000000E-03 0. -1.
    9900012    2    1    2    0    0 -0.23519551446E+02  0.19881482178E+02 -0.26546606837E+02  0.50528868573E+02  0.30000026516E+02 0.  0.
        -12    1    1    2    0    0  0.23519551446E+02 -0.19881482178E+02  0.26546606837E+02  0.40659131427E+02  0.00000000000E+00 0.  1.
         11    1    3    3    0    0 -0.18000663486E+02  0.37638465599E+01 -0.20169899403E+02  0.27294967834E+02  0.51100000000E-03 0. -1.
        -11    1    3    3    0    0 -0.58640172334E+01 -0.18751544535E+00 -0.29584783992E+01  0.65707271177E+01  0.51100000000E-03 0.  1.
        -12    1    3    3    0    0  0.34512927310E+00  0.16305151064E+02 -0.34182290343E+01  0.16663173622E+02  0.00000000000E+00 0.  1.
</event>
<event>
 7    1  0.2945316E-011  0.5052885E+02  0.7816164E-02  0.1300439E+00
        -11   -1    0    0    0    0  0.00000000000E+00  0.00000000000E+00  0.45593999997E+02  0.45594000000E+02  0.51100000000E-03 0.  1.
         11   -1    0    0    0    0 -0.00000000000E+00 -0.00000000000E+00 -0.45593999997E+02  0.45594000000E+02  0.51100000000E-03 0. -1.
    9900012    2    1    2    0    0 -0.46704959922E+01  0.40194617491E+02 -0.39680731129E+01  0.50528850817E+02  0.29999972543E+02 0.  0.
        -12    1    1    2    0    0  0.46704959922E+01 -0.40194617491E+02  0.39680731129E+01  0.40659149183E+02  0.00000000000E+00 0.  1.
         11    1    3    3    0    0 -0.37430805585E+01  0.10235003222E+02 -0.12167142507E+02  0.16334175831E+02  0.51100000000E-03 0. -1.
        -11    1    3    3    0    0  0.26570507074E+01  0.11568406002E+02 -0.31601624634E+01  0.12283100706E+02  0.51100000000E-03 0.  1.
        -12    1    3    3    0    0 -0.35844661411E+01  0.18391208267E+02  0.11359231858E+02  0.21911574281E+02  0.00000000000E+00 0.  1.
</event>
<event>
 7    1  0.2945316E-011  0.5052886E+02  0.7816164E-02  0.1300439E+00
        -11   -1    0    0    0    0  0.00000000000E+00  0.00000000000E+00  0.45593999997E+02  0.45594000000E+02  0.51100000000E-03 0.  1.
         11   -1    0    0    0    0 -0.00000000000E+00 -0.00000000000E+00 -0.45593999997E+02  0.45594000000E+02  0.51100000000E-03 0. -1.
    9900012    2    1    2    0    0 -0.17778347348E+02  0.99752279062E+01 -0.35179409794E+02  0.50528859827E+02  0.29999999930E+02 0.  0.
        -12    1    1    2    0    0  0.17778347348E+02 -0.99752279062E+01  0.35179409794E+02  0.40659140173E+02  0.00000000000E+00 0.  1.
         11    1    3    3    0    0 -0.14008451659E+02  0.14220506160E+02 -0.18823500377E+02  0.27436903616E+02  0.51100000000E-03 0. -1.
        -11    1    3    3    0    0 -0.56467789514E+01  0.24067570785E+01 -0.95624577962E+00  0.62123263286E+01  0.51100000000E-03 0.  1.
        -12    1    3    3    0    0  0.18768832625E+01 -0.66520353320E+01 -0.15399663637E+02  0.16879629882E+02  0.00000000000E+00 0.  1.
</event>
<event>
 7    1  0.2945316E-011  0.5052885E+02  0.7816164E-02  0.1300439E+00
        -11   -1    0    0    0    0  0.00000000000E+00  0.00000000000E+00  0.45593999997E+02  0.45594000000E+02  0.51100000000E-03 0.  1.
         11   -1    0    0    0    0 -0.00000000000E+00 -0.00000000000E+00 -0.45593999997E+02  0.45594000000E+02  0.51100000000E-03 0. -1.
    9900012    2    1    2    0    0  0.14540165043E+02  0.34297671833E+02 -0.16291710516E+02  0.50528849441E+02  0.29999968362E+02 0.  0.
        -12    1    1    2    0    0 -0.14540165043E+02 -0.34297671833E+02  0.16291710516E+02  0.40659150559E+02  0.00000000000E+00 0.  1.
         11    1    3    3    0    0  0.29751643598E+01  0.11918138631E+02  0.63019561059E+01  0.13806095843E+02  0.51100000000E-03 0. -1.
        -11    1    3    3    0    0  0.21834955050E+01  0.59729955908E+01  0.10585825978E+01  0.64470866541E+01  0.51100000000E-03 0.  1.
         12    1    3    3    0    0  0.93815051780E+01  0.16406537611E+02 -0.23652249220E+02  0.30275666944E+02  0.00000000000E+00 0. -1.
</event>
<event>
 7    1  0.2945316E-011  0.5052886E+02  0.7816164E-02  0.1300439E+00
        -11   -1    0    0    0    0  0.00000000000E+00  0.00000000000E+00  0.45593999997E+02  0.45594000000E+02  0.51100000000E-03 0. -1.
         11   -1    0    0    0    0 -0.00000000000E+00 -0.00000000000E+00 -0.45593999997E+02  0.45594000000E+02  0.51100000000E-03 0.  1.
    9900012    2    1    2    0    0  0.18411708603E+02  0.12241607173E+02  0.34122095579E+02  0.50528863677E+02  0.30000011633E+02 0.  0.
        -12    1    1    2    0    0 -0.18411708603E+02 -0.12241607173E+02 -0.34122095579E+02  0.40659136323E+02  0.00000000000E+00 0.  1.
         11    1    3    3    0    0  0.54412742670E+01  0.98467141601E+01  0.13098692395E+02  0.17266759630E+02  0.51100000000E-03 0. -1.
        -11    1    3    3    0    0  0.12743262899E+02  0.11088094370E+02  0.11930937619E+02  0.20680518823E+02  0.51100000000E-03 0.  1.
        -12    1    3    3    0    0  0.22717143721E+00 -0.86932013575E+01  0.90924655651E+01  0.12581585224E+02  0.00000000000E+00 0.  1.
</event>
<event>
 7    1  0.2945316E-011  0.5052885E+02  0.7816164E-02  0.1300439E+00
        -11   -1    0    0    0    0  0.00000000000E+00  0.00000000000E+00  0.45593999997E+02  0.45594000000E+02  0.51100000000E-03 0.  1.
         11   -1    0    0    0    0 -0.00000000000E+00 -0.00000000000E+00 -0.45593999997E+02  0.45594000000E+02  0.51100000000E-03 0. -1.
    9900012    2    1    2    0    0  0.77116026015E+01  0.65399826224E-01 -0.39921091141E+02  0.50528848389E+02  0.29999965164E+02 0.  0.
        -12    1    1    2    0    0 -0.77116026015E+01 -0.65399826224E-01  0.39921091141E+02  0.40659151611E+02  0.00000000000E+00 0.  1.
         11    1    3    3    0    0  0.69351903989E+01  0.63785515982E+01 -0.23081224044E+02  0.24930416964E+02  0.51100000000E-03 0. -1.
        -11    1    3    3    0    0  0.65813306806E+01 -0.79561986152E+01 -0.16614064497E+02  0.19561240996E+02  0.51100000000E-03 0.  1.
        -12    1    3    3    0    0 -0.58049184779E+01  0.16430468432E+01 -0.22580259945E+00  0.60371904292E+01  0.00000000000E+00 0.  1.
</event>
<event>
 7    1  0.2945316E-011  0.5052886E+02  0.7816164E-02  0.1300439E+00
        -11   -1    0    0    0    0  0.00000000000E+00  0.00000000000E+00  0.45593999997E+02  0.45594000000E+02  0.51100000000E-03 0.  1.
         11   -1    0    0    0    0 -0.00000000000E+00 -0.00000000000E+00 -0.45593999997E+02  0.45594000000E+02  0.51100000000E-03 0. -1.
    9900012    2    1    2    0    0 -0.16414561823E+02  0.36858487718E+02  0.50179022794E+01  0.50528864495E+02  0.30000014119E+02 0.  0.
        -12    1    1    2    0    0  0.16414561823E+02 -0.36858487718E+02 -0.50179022794E+01  0.40659135505E+02  0.00000000000E+00 0.  1.
         11    1    3    3    0    0 -0.19170626156E+02  0.19103775852E+02 -0.70552882463E+01  0.27968629776E+02  0.51100000000E-03 0. -1.
        -11    1    3    3    0    0  0.38600896161E+00  0.14082849633E+02  0.66034372124E+01  0.15558953692E+02  0.51100000000E-03 0.  1.
        -12    1    3    3    0    0  0.23700553707E+01  0.36718622330E+01  0.54697533133E+01  0.70012810276E+01  0.00000000000E+00 0.  1.
</event>
<event>
 7    1  0.2945316E-011  0.5052886E+02  0.7816164E-02  0.1300439E+00
        -11   -1    0    0    0    0  0.00000000000E+00  0.00000000000E+00  0.45593999997E+02  0.45594000000E+02  0.51100000000E-03 0.  1.
         11   -1    0    0    0    0 -0.00000000000E+00 -0.00000000000E+00 -0.45593999997E+02  0.45594000000E+02  0.51100000000E-03 0. -1.
    9900012    2    1    2    0    0 -0.35972925415E+02  0.89042284383E+01  0.16728085165E+02  0.50528862279E+02  0.30000007382E+02 0.  0.
        -12    1    1    2    0    0  0.35972925415E+02 -0.89042284383E+01 -0.16728085165E+02  0.40659137721E+02  0.00000000000E+00 0.  1.
         11    1    3    3    0    0 -0.15524329277E+02  0.32270654188E+01  0.32294083955E+01  0.16181712813E+02  0.51100000000E-03 0. -1.
        -11    1    3    3    0    0 -0.20214925330E+02  0.32212802254E+00  0.43012825738E+00  0.20222066738E+02  0.51100000000E-03 0.  1.
        -12    1    3    3    0    0 -0.23367080765E+00  0.53550349970E+01  0.13068548512E+02  0.14125082728E+02  0.00000000000E+00 0.  1.
</event>
<event>
 7    1  0.2945316E-011  0.5052886E+02  0.7816164E-02  0.1300439E+00
        -11   -1    0    0    0    0  0.00000000000E+00  0.00000000000E+00  0.45593999997E+02  0.45594000000E+02  0.51100000000E-03 0. -1.
         11   -1    0    0    0    0 -0.00000000000E+00 -0.00000000000E+00 -0.45593999997E+02  0.45594000000E+02  0.51100000000E-03 0.  1.
    9900012    2    1    2    0    0 -0.21053120042E+02 -0.27385318889E+02  0.21447056462E+02  0.50528858531E+02  0.29999995990E+02 0.  0.
        -12    1    1    2    0    0  0.21053120042E+02  0.27385318889E+02 -0.21447056462E+02  0.40659141469E+02  0.00000000000E+00 0.  1.
         11    1    3    3    0    0 -0.14728887264E+02 -0.83890133790E+01  0.19894348265E+02  0.26136196331E+02  0.51100000000E-03 0. -1.
        -11    1    3    3    0    0  0.64078489972E+00  0.13406309278E+01  0.24633633029E+01  0.28768134447E+01  0.51100000000E-03 0.  1.
         12    1    3    3    0    0 -0.69650176776E+01 -0.20336936438E+02 -0.91065510610E+00  0.21515848755E+02  0.00000000000E+00 0. -1.
</event>
<event>
 7    1  0.2945316E-011  0.5052887E+02  0.7816164E-02  0.1300439E+00
        -11   -1    0    0    0    0  0.00000000000E+00  0.00000000000E+00  0.45593999997E+02  0.45594000000E+02  0.51100000000E-03 0. -1.
         11   -1    0    0    0    0 -0.00000000000E+00 -0.00000000000E+00 -0.45593999997E+02  0.45594000000E+02  0.51100000000E-03 0.  1.
    9900012    2    1    2    0    0  0.34435520588E+02 -0.21584500817E+02  0.12121896276E+01  0.50528866249E+02  0.30000019449E+02 0.  0.
        -12    1    1    2    0    0 -0.34435520588E+02  0.21584500817E+02 -0.12121896276E+01  0.40659133751E+02  0.00000000000E+00 0.  1.
         11    1    3    3    0    0  0.74630426151E+00 -0.18099216908E+01  0.23374373007E+00  0.19716548811E+01  0.51100000000E-03 0. -1.
        -11    1    3    3    0    0  0.33235967534E+00  0.32454648357E+01 -0.65661165443E+01  0.73319432409E+01  0.51100000000E-03 0.  1.
         12    1    3    3    0    0  0.33356856652E+02 -0.23020043962E+02  0.75445624419E+01  0.41225268127E+02  0.00000000000E+00 0. -1.
</event>
<event>
 7    1  0.2945316E-011  0.5052887E+02  0.7816164E-02  0.1300439E+00
        -11   -1    0    0    0    0  0.00000000000E+00  0.00000000000E+00  0.45593999997E+02  0.45594000000E+02  0.51100000000E-03 0. -1.
         11   -1    0    0    0    0 -0.00000000000E+00 -0.00000000000E+00 -0.45593999997E+02  0.45594000000E+02  0.51100000000E-03 0.  1.
    9900012    2    1    2    0    0  0.37658080849E+02 -0.81153426634E+01 -0.13006734943E+02  0.50528868262E+02  0.30000025569E+02 0.  0.
        -12    1    1    2    0    0 -0.37658080849E+02  0.81153426634E+01  0.13006734943E+02  0.40659131738E+02  0.00000000000E+00 0.  1.
         11    1    3    3    0    0 -0.85714536892E+00  0.32368779169E+00 -0.27492041847E+01  0.28978605695E+01  0.51100000000E-03 0. -1.
        -11    1    3    3    0    0 -0.39531042244E+00  0.10706879306E+01 -0.73846694874E+01  0.74723481366E+01  0.51100000000E-03 0.  1.
         12    1    3    3    0    0  0.38910536641E+02 -0.95097183857E+01 -0.28728612709E+01  0.40158659556E+02  0.00000000000E+00 0. -1.
</event>
<event>
 7    1  0.2945316E-011  0.5052886E+02  0.7816164E-02  0.1300439E+00
        -11   -1    0    0    0    0  0.00000000000E+00  0.00000000000E+00  0.45593999997E+02  0.45594000000E+02  0.51100000000E-03 0.  1.
         11   -1    0    0    0    0 -0.00000000000E+00 -0.00000000000E+00 -0.45593999997E+02  0.45594000000E+02  0.51100000000E-03 0. -1.
    9900012    2    1    2    0    0 -0.28691522368E+02 -0.23626189450E+02 -0.16485308675E+02  0.50528859751E+02  0.29999999699E+02 0.  0.
        -12    1    1    2    0    0  0.28691522368E+02  0.23626189450E+02  0.16485308675E+02  0.40659140249E+02  0.00000000000E+00 0.  1.
         11    1    3    3    0    0 -0.20945106098E+02 -0.14457381333E+02 -0.16066208736E+02  0.30097116272E+02  0.51100000000E-03 0. -1.
        -11    1    3    3    0    0 -0.11892929627E+02 -0.37249023443E+01 -0.34737884344E+01  0.12937692180E+02  0.51100000000E-03 0.  1.
        -12    1    3    3    0    0  0.41465133574E+01 -0.54439057723E+01  0.30546884949E+01  0.74940512997E+01  0.00000000000E+00 0.  1.
</event>
<event>
 7    1  0.2945316E-011  0.5052885E+02  0.7816164E-02  0.1300439E+00
        -11   -1    0    0    0    0  0.00000000000E+00  0.00000000000E+00  0.45593999997E+02  0.45594000000E+02  0.51100000000E-03 0. -1.
         11   -1    0    0    0    0 -0.00000000000E+00 -0.00000000000E+00 -0.45593999997E+02  0.45594000000E+02  0.51100000000E-03 0.  1.
    9900012    2    1    2    0    0 -0.19737338498E+02 -0.38253951401E+01  0.35340769365E+02  0.50528853941E+02  0.29999982039E+02 0.  0.
        -12    1    1    2    0    0  0.19737338498E+02  0.38253951401E+01 -0.35340769365E+02  0.40659146059E+02  0.00000000000E+00 0.  1.
         11    1    3    3    0    0  0.43107865120E+00 -0.93539024951E+01  0.39264478571E+01  0.10153733979E+02  0.51100000000E-03 0. -1.
        -11    1    3    3    0    0  0.63663504406E+00 -0.18254632977E+01 -0.62118801449E-01  0.19342904221E+01  0.51100000000E-03 0.  1.
        -12    1    3    3    0    0 -0.20805052193E+02  0.73539706526E+01  0.31476440309E+02  0.38440829539E+02  0.00000000000E+00 0.  1.
</event>
<event>
 7    1  0.2945316E-011  0.5052887E+02  0.7816164E-02  0.1300439E+00
        -11   -1    0    0    0    0  0.00000000000E+00  0.00000000000E+00  0.45593999997E+02  0.45594000000E+02  0.51100000000E-03 0.  1.
         11   -1    0    0    0    0 -0.00000000000E+00 -0.00000000000E+00 -0.45593999997E+02  0.45594000000E+02  0.51100000000E-03 0. -1.
    9900012    2    1    2    0    0  0.21474912878E+02 -0.17590883116E+02 -0.29707812725E+02  0.50528865862E+02  0.30000018274E+02 0.  0.
        -12    1    1    2    0    0 -0.21474912878E+02  0.17590883116E+02  0.29707812725E+02  0.40659134138E+02  0.00000000000E+00 0.  1.
         11    1    3    3    0    0  0.24961686543E+01 -0.11839086159E+01  0.33666945316E+01  0.43551268514E+01  0.51100000000E-03 0. -1.
        -11    1    3    3    0    0 -0.22995205965E+01  0.29998512081E+00  0.11169155684E+01  0.25739632271E+01  0.51100000000E-03 0.  1.
         12    1    3    3    0    0  0.21278264821E+02 -0.16706959621E+02 -0.34191422825E+02  0.43599775783E+02  0.00000000000E+00 0. -1.
</event>
<event>
 7    1  0.2945316E-011  0.5052886E+02  0.7816164E-02  0.1300439E+00
        -11   -1    0    0    0    0  0.00000000000E+00  0.00000000000E+00  0.45593999997E+02  0.45594000000E+02  0.51100000000E-03 0.  1.
         11   -1    0    0    0    0 -0.00000000000E+00 -0.00000000000E+00 -0.45593999997E+02  0.45594000000E+02  0.51100000000E-03 0. -1.
    9900012    2    1    2    0    0 -0.35547657146E+02  0.17611280526E+02  0.89091273783E+01  0.50528859810E+02  0.29999999880E+02 0.  0.
        -12    1    1    2    0    0  0.35547657146E+02 -0.17611280526E+02 -0.89091273783E+01  0.40659140190E+02  0.00000000000E+00 0.  1.
         11    1    3    3    0    0 -0.23780458833E+02  0.66705523190E+01  0.15898818070E+02  0.29373098353E+02  0.51100000000E-03 0.  1.
        -11    1    3    3    0    0 -0.13115736738E+02  0.60083772645E+01 -0.31632775926E+01  0.14769206916E+02  0.51100000000E-03 0. -1.
        -12    1    3    3    0    0  0.13485384257E+01  0.49323509422E+01 -0.38264130993E+01  0.63865545413E+01  0.00000000000E+00 0.  1.
</event>
<event>
 7    1  0.2945316E-011  0.5052887E+02  0.7816164E-02  0.1300439E+00
        -11   -1    0    0    0    0  0.00000000000E+00  0.00000000000E+00  0.45593999997E+02  0.45594000000E+02  0.51100000000E-03 0.  1.
         11   -1    0    0    0    0 -0.00000000000E+00 -0.00000000000E+00 -0.45593999997E+02  0.45594000000E+02  0.51100000000E-03 0. -1.
    9900012    2    1    2    0    0  0.10060964859E+02  0.37024689146E+02 -0.13457883631E+02  0.50528865084E+02  0.30000015910E+02 0.  0.
        -12    1    1    2    0    0 -0.10060964859E+02 -0.37024689146E+02  0.13457883631E+02  0.40659134916E+02  0.00000000000E+00 0.  1.
         11    1    3    3    0    0  0.49831426319E+01  0.30159631603E+02 -0.10696531485E+02  0.32385967254E+02  0.51100000000E-03 0. -1.
        -11    1    3    3    0    0  0.40596228013E+01  0.11683950161E+02  0.24689688978E+00  0.12371587892E+02  0.51100000000E-03 0.  1.
        -12    1    3    3    0    0  0.10181994261E+01 -0.48188926175E+01 -0.30082490365E+01  0.57713099375E+01  0.00000000000E+00 0.  1.
</event>
<event>
 7    1  0.2945316E-011  0.5052886E+02  0.7816164E-02  0.1300439E+00
        -11   -1    0    0    0    0  0.00000000000E+00  0.00000000000E+00  0.45593999997E+02  0.45594000000E+02  0.51100000000E-03 0.  1.
         11   -1    0    0    0    0 -0.00000000000E+00 -0.00000000000E+00 -0.45593999997E+02  0.45594000000E+02  0.51100000000E-03 0. -1.
    9900012    2    1    2    0    0  0.11424596689E+02 -0.33271953684E+02 -0.20386795516E+02  0.50528859050E+02  0.29999997567E+02 0.  0.
        -12    1    1    2    0    0 -0.11424596689E+02  0.33271953684E+02  0.20386795516E+02  0.40659140950E+02  0.00000000000E+00 0.  1.
         11    1    3    3    0    0  0.13639261627E+02 -0.83171714233E+01 -0.30852891990E+01  0.16270335212E+02  0.51100000000E-03 0. -1.
        -11    1    3    3    0    0  0.14778528913E+01 -0.78450232382E+01  0.19720688946E+01  0.82229857572E+01  0.51100000000E-03 0.  1.
         12    1    3    3    0    0 -0.36925178290E+01 -0.17109759022E+02 -0.19273575211E+02  0.26035538080E+02  0.00000000000E+00 0. -1.
</event>
<event>
 7    1  0.2945316E-011  0.5052886E+02  0.7816164E-02  0.1300439E+00
        -11   -1    0    0    0    0  0.00000000000E+00  0.00000000000E+00  0.45593999997E+02  0.45594000000E+02  0.51100000000E-03 0. -1.
         11   -1    0    0    0    0 -0.00000000000E+00 -0.00000000000E+00 -0.45593999997E+02  0.45594000000E+02  0.51100000000E-03 0.  1.
    9900012    2    1    2    0    0 -0.28007513938E+01  0.31602956842E+02  0.25427835122E+02  0.50528857258E+02  0.29999992123E+02 0.  0.
        -12    1    1    2    0    0  0.28007513938E+01 -0.31602956842E+02 -0.25427835122E+02  0.40659142742E+02  0.00000000000E+00 0.  1.
         11    1    3    3    0    0 -0.36460049918E+01  0.80374898780E+01  0.44062489416E+01  0.98645641533E+01  0.51100000000E-03 0. -1.
        -11    1    3    3    0    0 -0.12229348267E+02  0.11231610234E+02  0.12434780184E+02  0.20744391676E+02  0.51100000000E-03 0.  1.
        -12    1    3    3    0    0  0.13074601865E+02  0.12333856729E+02  0.85868059957E+01  0.19919901429E+02  0.00000000000E+00 0.  1.
</event>
<event>
 7    1  0.2945316E-011  0.5052883E+02  0.7816164E-02  0.1300439E+00
        -11   -1    0    0    0    0  0.00000000000E+00  0.00000000000E+00  0.45593999997E+02  0.45594000000E+02  0.51100000000E-03 0.  1.
         11   -1    0    0    0    0 -0.00000000000E+00 -0.00000000000E+00 -0.45593999997E+02  0.45594000000E+02  0.51100000000E-03 0. -1.
    9900012    2    1    2    0    0 -0.13479769254E+02 -0.16418669802E+02 -0.34668304789E+02  0.50528828167E+02  0.29999903696E+02 0.  0.
        -12    1    1    2    0    0  0.13479769254E+02  0.16418669802E+02  0.34668304789E+02  0.40659171833E+02  0.00000000000E+00 0.  1.
         11    1    3    3    0    0  0.56890525837E+01 -0.19062369171E+01 -0.16807424315E+02  0.17846248089E+02  0.51100000000E-03 0. -1.
        -11    1    3    3    0    0 -0.53789982851E+00 -0.59621631456E+01 -0.78426072556E+01  0.98662664887E+01  0.51100000000E-03 0.  1.
        -12    1    3    3    0    0 -0.18630922009E+02 -0.85502697393E+01 -0.10018273218E+02  0.22816313589E+02  0.00000000000E+00 0.  1.
</event>
<event>
 7    1  0.2945316E-011  0.5052886E+02  0.7816164E-02  0.1300439E+00
        -11   -1    0    0    0    0  0.00000000000E+00  0.00000000000E+00  0.45593999997E+02  0.45594000000E+02  0.51100000000E-03 0.  1.
         11   -1    0    0    0    0 -0.00000000000E+00 -0.00000000000E+00 -0.45593999997E+02  0.45594000000E+02  0.51100000000E-03 0. -1.
    9900012    2    1    2    0    0  0.17927734691E+02 -0.34183138111E+02  0.12777909708E+02  0.50528861067E+02  0.30000003699E+02 0.  0.
        -12    1    1    2    0    0 -0.17927734691E+02  0.34183138111E+02 -0.12777909708E+02  0.40659138933E+02  0.00000000000E+00 0.  1.
         11    1    3    3    0    0 -0.66328765331E+01 -0.27470798281E+01  0.27502125915E+01  0.76879885695E+01  0.51100000000E-03 0. -1.
        -11    1    3    3    0    0  0.36648835368E+01  0.15443646802E+00  0.32643044279E-01  0.36682813129E+01  0.51100000000E-03 0.  1.
         12    1    3    3    0    0  0.20895727688E+02 -0.31590494751E+02  0.99950540719E+01  0.39172591185E+02  0.00000000000E+00 0. -1.
</event>
<event>
 7    1  0.2945316E-011  0.5052886E+02  0.7816164E-02  0.1300439E+00
        -11   -1    0    0    0    0  0.00000000000E+00  0.00000000000E+00  0.45593999997E+02  0.45594000000E+02  0.51100000000E-03 0. -1.
         11   -1    0    0    0    0 -0.00000000000E+00 -0.00000000000E+00 -0.45593999997E+02  0.45594000000E+02  0.51100000000E-03 0.  1.
    9900012    2    1    2    0    0  0.17964010953E+02 -0.87311264572E+01  0.35415070521E+02  0.50528862297E+02  0.30000007438E+02 0.  0.
        -12    1    1    2    0    0 -0.17964010953E+02  0.87311264572E+01 -0.35415070521E+02  0.40659137703E+02  0.00000000000E+00 0.  1.
         11    1    3    3    0    0  0.46568763314E+01  0.31421091914E+01  0.46343679899E+00  0.56368538445E+01  0.51100000000E-03 0. -1.
        -11    1    3    3    0    0  0.20991856302E+01  0.11587687368E+01 -0.26343301820E+01  0.35621652214E+01  0.51100000000E-03 0.  1.
         12    1    3    3    0    0  0.11207948991E+02 -0.13032004385E+02  0.37585963904E+02  0.41329843231E+02  0.00000000000E+00 0. -1.
</event>
<event>
 7    1  0.2945316E-011  0.5052895E+02  0.7816164E-02  0.1300438E+00
        -11   -1    0    0    0    0  0.00000000000E+00  0.00000000000E+00  0.45593999997E+02  0.45594000000E+02  0.51100000000E-03 0.  1.
         11   -1    0    0    0    0 -0.00000000000E+00 -0.00000000000E+00 -0.45593999997E+02  0.45594000000E+02  0.51100000000E-03 0. -1.
    9900012    2    1    2    0    0  0.16730637737E+02  0.35553316338E+02 -0.10450139570E+02  0.50528954773E+02  0.30000288527E+02 0.  0.
        -12    1    1    2    0    0 -0.16730637737E+02 -0.35553316338E+02  0.10450139570E+02  0.40659045227E+02  0.00000000000E+00 0.  1.
         11    1    3    3    0    0  0.20842188748E+00  0.13420486123E+02 -0.20774922679E+01  0.13581931447E+02  0.51100000000E-03 0. -1.
        -11    1    3    3    0    0  0.42288834004E-01  0.10846891064E+02  0.59470758006E+01  0.12370309007E+02  0.51100000000E-03 0.  1.
         12    1    3    3    0    0  0.16479927016E+02  0.11285939152E+02 -0.14319723102E+02  0.24576714319E+02  0.00000000000E+00 0. -1.
</event>
<event>
 7    1  0.2945316E-011  0.5052886E+02  0.7816164E-02  0.1300439E+00
        -11   -1    0    0    0    0  0.00000000000E+00  0.00000000000E+00  0.45593999997E+02  0.45594000000E+02  0.51100000000E-03 0. -1.
         11   -1    0    0    0    0 -0.00000000000E+00 -0.00000000000E+00 -0.45593999997E+02  0.45594000000E+02  0.51100000000E-03 0.  1.
    9900012    2    1    2    0    0  0.37913334921E+01 -0.26207761059E+02  0.30853597982E+02  0.50528862554E+02  0.30000008221E+02 0.  0.
        -12    1    1    2    0    0 -0.37913334921E+01  0.26207761059E+02 -0.30853597982E+02  0.40659137446E+02  0.00000000000E+00 0.  1.
         11    1    3    3    0    0  0.76196049295E+01 -0.85152324871E+01  0.99290079599E+01  0.15137792538E+02  0.51100000000E-03 0. -1.
        -11    1    3    3    0    0 -0.33565210986E+01 -0.20258094642E+02  0.77299265459E+01  0.21941020876E+02  0.51100000000E-03 0.  1.
        -12    1    3    3    0    0 -0.47175033873E+00  0.25655660699E+01  0.13194663476E+02  0.13450049141E+02  0.00000000000E+00 0.  1.
</event>
<event>
 7    1  0.2945316E-011  0.5052885E+02  0.7816164E-02  0.1300439E+00
        -11   -1    0    0    0    0  0.00000000000E+00  0.00000000000E+00  0.45593999997E+02  0.45594000000E+02  0.51100000000E-03 0. -1.
         11   -1    0    0    0    0 -0.00000000000E+00 -0.00000000000E+00 -0.45593999997E+02  0.45594000000E+02  0.51100000000E-03 0.  1.
    9900012    2    1    2    0    0 -0.19580116781E+02 -0.35502088752E+02  0.30638051769E+01  0.50528853660E+02  0.29999981186E+02 0.  0.
        -12    1    1    2    0    0  0.19580116781E+02  0.35502088752E+02 -0.30638051769E+01  0.40659146340E+02  0.00000000000E+00 0.  1.
         11    1    3    3    0    0 -0.17471221758E+02 -0.16612197579E+02 -0.28824221591E+01  0.24279972321E+02  0.51100000000E-03 0. -1.
        -11    1    3    3    0    0 -0.34404914685E+01 -0.16583874033E+01 -0.46181860939E+01  0.59929019167E+01  0.51100000000E-03 0.  1.
         12    1    3    3    0    0  0.13315964461E+01 -0.17231503770E+02  0.10564413430E+02  0.20255979423E+02  0.00000000000E+00 0. -1.
</event>
<event>
 7    1  0.2945316E-011  0.5052888E+02  0.7816164E-02  0.1300439E+00
        -11   -1    0    0    0    0  0.00000000000E+00  0.00000000000E+00  0.45593999997E+02  0.45594000000E+02  0.51100000000E-03 0. -1.
         11   -1    0    0    0    0 -0.00000000000E+00 -0.00000000000E+00 -0.45593999997E+02  0.45594000000E+02  0.51100000000E-03 0.  1.
    9900012    2    1    2    0    0 -0.77236335402E+01 -0.78748628345E+01  0.39134330709E+02  0.50528882698E+02  0.30000069448E+02 0.  0.
        -12    1    1    2    0    0  0.77236335402E+01  0.78748628345E+01 -0.39134330709E+02  0.40659117302E+02  0.00000000000E+00 0.  1.
         11    1    3    3    0    0 -0.46247964172E+00 -0.12355619891E+01  0.71213905209E+01  0.72425619818E+01  0.51100000000E-03 0. -1.
        -11    1    3    3    0    0  0.33616615004E+01  0.50981054144E+01  0.25410481748E+02  0.26133963147E+02  0.51100000000E-03 0.  1.
         12    1    3    3    0    0 -0.10622815399E+02 -0.11737406260E+02  0.66024584408E+01  0.17152357569E+02  0.00000000000E+00 0. -1.
</event>
<event>
 7    1  0.2945316E-011  0.5052886E+02  0.7816164E-02  0.1300439E+00
        -11   -1    0    0    0    0  0.00000000000E+00  0.00000000000E+00  0.45593999997E+02  0.45594000000E+02  0.51100000000E-03 0.  1.
         11   -1    0    0    0    0 -0.00000000000E+00 -0.00000000000E+00 -0.45593999997E+02  0.45594000000E+02  0.51100000000E-03 0. -1.
    9900012    2    1    2    0    0  0.98049019594E+01 -0.18814333393E+02 -0.34685014049E+02  0.50528862736E+02  0.30000008773E+02 0.  0.
        -12    1    1    2    0    0 -0.98049019594E+01  0.18814333393E+02  0.34685014049E+02  0.40659137264E+02  0.00000000000E+00 0.  1.
         11    1    3    3    0    0 -0.19490875235E+01 -0.58544033742E+00 -0.23084524951E+01  0.30774398038E+01  0.51100000000E-03 0. -1.
        -11    1    3    3    0    0 -0.82612587143E+00 -0.86872057047E+00  0.45757242725E+01  0.47301598561E+01  0.51100000000E-03 0.  1.
         12    1    3    3    0    0  0.12580115354E+02 -0.17360172485E+02 -0.36952285826E+02  0.42721263076E+02  0.00000000000E+00 0. -1.
</event>
<event>
 7    1  0.2945316E-011  0.5052886E+02  0.7816164E-02  0.1300439E+00
        -11   -1    0    0    0    0  0.00000000000E+00  0.00000000000E+00  0.45593999997E+02  0.45594000000E+02  0.51100000000E-03 0. -1.
         11   -1    0    0    0    0 -0.00000000000E+00 -0.00000000000E+00 -0.45593999997E+02  0.45594000000E+02  0.51100000000E-03 0.  1.
    9900012    2    1    2    0    0  0.72586360084E+01  0.35346144845E+02  0.18738397965E+02  0.50528864368E+02  0.30000013732E+02 0.  0.
        -12    1    1    2    0    0 -0.72586360084E+01 -0.35346144845E+02 -0.18738397965E+02  0.40659135632E+02  0.00000000000E+00 0.  1.
         11    1    3    3    0    0  0.86894548469E+01  0.22654288045E+02  0.10278756265E+02  0.26351019391E+02  0.51100000000E-03 0. -1.
        -11    1    3    3    0    0 -0.10038969517E+01  0.17632750821E+02  0.60929797558E+01  0.18682775842E+02  0.51100000000E-03 0.  1.
        -12    1    3    3    0    0 -0.42692188670E+00 -0.49408940212E+01  0.23666619451E+01  0.54950691341E+01  0.00000000000E+00 0.  1.
</event>
<event>
 7    1  0.2945316E-011  0.5052886E+02  0.7816164E-02  0.1300439E+00
        -11   -1    0    0    0    0  0.00000000000E+00  0.00000000000E+00  0.45593999997E+02  0.45594000000E+02  0.51100000000E-03 0.  1.
         11   -1    0    0    0    0 -0.00000000000E+00 -0.00000000000E+00 -0.45593999997E+02  0.45594000000E+02  0.51100000000E-03 0. -1.
    9900012    2    1    2    0    0 -0.93361913613E+01 -0.14563448664E+02 -0.36795479758E+02  0.50528857894E+02  0.29999994056E+02 0.  0.
        -12    1    1    2    0    0  0.93361913613E+01  0.14563448664E+02  0.36795479758E+02  0.40659142106E+02  0.00000000000E+00 0.  1.
         11    1    3    3    0    0  0.21653965112E+01 -0.38258205408E+01 -0.16707477562E+02  0.17276158474E+02  0.51100000000E-03 0. -1.
        -11    1    3    3    0    0 -0.29626719002E+01 -0.48616648273E+01 -0.21989360321E+02  0.22714426633E+02  0.51100000000E-03 0.  1.
        -12    1    3    3    0    0 -0.85389159723E+01 -0.58759632957E+01  0.19013581244E+01  0.10538272788E+02  0.00000000000E+00 0.  1.
</event>
<event>
 7    1  0.2945316E-011  0.5052885E+02  0.7816164E-02  0.1300439E+00
        -11   -1    0    0    0    0  0.00000000000E+00  0.00000000000E+00  0.45593999997E+02  0.45594000000E+02  0.51100000000E-03 0.  1.
         11   -1    0    0    0    0 -0.00000000000E+00 -0.00000000000E+00 -0.45593999997E+02  0.45594000000E+02  0.51100000000E-03 0. -1.
    9900012    2    1    2    0    0  0.13938714662E+02 -0.36950321535E+02 -0.96722308005E+01  0.50528854945E+02  0.29999985090E+02 0.  0.
        -12    1    1    2    0    0 -0.13938714662E+02  0.36950321535E+02  0.96722308005E+01  0.40659145055E+02  0.00000000000E+00 0.  1.
         11    1    3    3    0    0  0.16502181452E+02 -0.12414944856E+02 -0.94803127114E+01  0.22722877851E+02  0.51100000000E-03 0. -1.
        -11    1    3    3    0    0  0.29913765606E+01 -0.17344735262E+02 -0.38397059771E+01  0.18014758319E+02  0.51100000000E-03 0.  1.
        -12    1    3    3    0    0 -0.55548433502E+01 -0.71906414171E+01  0.36477878881E+01  0.97912187755E+01  0.00000000000E+00 0.  1.
</event>
<event>
 7    1  0.2945316E-011  0.5052886E+02  0.7816164E-02  0.1300439E+00
        -11   -1    0    0    0    0  0.00000000000E+00  0.00000000000E+00  0.45593999997E+02  0.45594000000E+02  0.51100000000E-03 0.  1.
         11   -1    0    0    0    0 -0.00000000000E+00 -0.00000000000E+00 -0.45593999997E+02  0.45594000000E+02  0.51100000000E-03 0. -1.
    9900012    2    1    2    0    0 -0.12904882082E+02  0.35895559436E+02 -0.14076174592E+02  0.50528857610E+02  0.29999993190E+02 0.  0.
        -12    1    1    2    0    0  0.12904882082E+02 -0.35895559436E+02  0.14076174592E+02  0.40659142390E+02  0.00000000000E+00 0.  1.
         11    1    3    3    0    0 -0.95283957527E+01  0.19969949617E+02  0.62326551750E+01  0.22987718550E+02  0.51100000000E-03 0. -1.
        -11    1    3    3    0    0 -0.58898258590E+01  0.78239500263E+01 -0.13422228619E+02  0.16615067379E+02  0.51100000000E-03 0.  1.
        -12    1    3    3    0    0  0.25133395301E+01  0.81016597923E+01 -0.68866011483E+01  0.10926071680E+02  0.00000000000E+00 0.  1.
</event>
<event>
 7    1  0.2945316E-011  0.5052886E+02  0.7816164E-02  0.1300439E+00
        -11   -1    0    0    0    0  0.00000000000E+00  0.00000000000E+00  0.45593999997E+02  0.45594000000E+02  0.51100000000E-03 0. -1.
         11   -1    0    0    0    0 -0.00000000000E+00 -0.00000000000E+00 -0.45593999997E+02  0.45594000000E+02  0.51100000000E-03 0.  1.
    9900012    2    1    2    0    0 -0.23132645226E+02 -0.29939600069E+02  0.14888482593E+02  0.50528857838E+02  0.29999993884E+02 0.  0.
        -12    1    1    2    0    0  0.23132645226E+02  0.29939600069E+02 -0.14888482593E+02  0.40659142162E+02  0.00000000000E+00 0.  1.
         11    1    3    3    0    0 -0.89951679180E+01 -0.46050945709E+01  0.16686864284E+02  0.19508238817E+02  0.51100000000E-03 0. -1.
        -11    1    3    3    0    0 -0.41520328445E+01 -0.74590275405E+01  0.44314819766E+01  0.96184458912E+01  0.51100000000E-03 0.  1.
        -12    1    3    3    0    0 -0.99854444633E+01 -0.17875477958E+02 -0.62298636674E+01  0.21402173129E+02  0.00000000000E+00 0.  1.
</event>
<event>
 7    1  0.2945316E-011  0.5052886E+02  0.7816164E-02  0.1300439E+00
        -11   -1    0    0    0    0  0.00000000000E+00  0.00000000000E+00  0.45593999997E+02  0.45594000000E+02  0.51100000000E-03 0.  1.
         11   -1    0    0    0    0 -0.00000000000E+00 -0.00000000000E+00 -0.45593999997E+02  0.45594000000E+02  0.51100000000E-03 0. -1.
    9900012    2    1    2    0    0  0.21101028408E+02  0.16884134945E+02 -0.30378250144E+02  0.50528862102E+02  0.30000006847E+02 0.  0.
        -12    1    1    2    0    0 -0.21101028408E+02 -0.16884134945E+02  0.30378250144E+02  0.40659137898E+02  0.00000000000E+00 0.  1.
         11    1    3    3    0    0 -0.11856188288E+01  0.82846312220E+01 -0.78408726610E+01  0.11468220910E+02  0.51100000000E-03 0. -1.
        -11    1    3    3    0    0 -0.31507445433E+01 -0.25890001923E+01 -0.35208855756E+01  0.53876477864E+01  0.51100000000E-03 0.  1.
        -12    1    3    3    0    0  0.25437391780E+02  0.11188503916E+02 -0.19016491908E+02  0.33672993406E+02  0.00000000000E+00 0.  1.
</event>
<event>
 7    1  0.2945316E-011  0.5052885E+02  0.7816164E-02  0.1300439E+00
        -11   -1    0    0    0    0  0.00000000000E+00  0.00000000000E+00  0.45593999997E+02  0.45594000000E+02  0.51100000000E-03 0. -1.
         11   -1    0    0    0    0 -0.00000000000E+00 -0.00000000000E+00 -0.45593999997E+02  0.45594000000E+02  0.51100000000E-03 0.  1.
    9900012    2    1    2    0    0 -0.30419231439E+02 -0.26003325683E+02 -0.71877613742E+01  0.50528849720E+02  0.29999969209E+02 0.  0.
        -12    1    1    2    0    0  0.30419231439E+02  0.26003325683E+02  0.71877613742E+01  0.40659150280E+02  0.00000000000E+00 0.  1.
         11    1    3    3    0    0  0.28885536634E+01 -0.76144482937E+01 -0.11266333440E+01  0.82214881887E+01  0.51100000000E-03 0. -1.
        -11    1    3    3    0    0  0.11968581785E+01 -0.11819392712E+01 -0.32357995926E+01  0.36468958314E+01  0.51100000000E-03 0.  1.
        -12    1    3    3    0    0 -0.34504643281E+02 -0.17206938118E+02 -0.28253284376E+01  0.38660465700E+02  0.00000000000E+00 0.  1.
</event>
<event>
 7    1  0.2945316E-011  0.5052884E+02  0.7816164E-02  0.1300439E+00
        -11   -1    0    0    0    0  0.00000000000E+00  0.00000000000E+00  0.45593999997E+02  0.45594000000E+02  0.51100000000E-03 0.  1.
         11   -1    0    0    0    0 -0.00000000000E+00 -0.00000000000E+00 -0.45593999997E+02  0.45594000000E+02  0.51100000000E-03 0. -1.
    9900012    2    1    2    0    0  0.31079976120E+02  0.23549245559E+02 -0.11516745185E+02  0.50528839880E+02  0.29999939299E+02 0.  0.
        -12    1    1    2    0    0 -0.31079976120E+02 -0.23549245559E+02  0.11516745185E+02  0.40659160120E+02  0.00000000000E+00 0.  1.
         11    1    3    3    0    0  0.13171378196E+02  0.19522337708E+02 -0.85538966768E+01  0.25055458922E+02  0.51100000000E-03 0. -1.
        -11    1    3    3    0    0 -0.14037049109E+01  0.22139373471E+01 -0.53226316029E+01  0.59331537562E+01  0.51100000000E-03 0.  1.
         12    1    3    3    0    0  0.19312302835E+02  0.18129705036E+01  0.23597830943E+01  0.19540227202E+02  0.00000000000E+00 0. -1.
</event>
<event>
 7    1  0.2945316E-011  0.5052888E+02  0.7816164E-02  0.1300439E+00
        -11   -1    0    0    0    0  0.00000000000E+00  0.00000000000E+00  0.45593999997E+02  0.45594000000E+02  0.51100000000E-03 0.  1.
         11   -1    0    0    0    0 -0.00000000000E+00 -0.00000000000E+00 -0.45593999997E+02  0.45594000000E+02  0.51100000000E-03 0. -1.
    9900012    2    1    2    0    0 -0.14759599019E+02  0.35317841654E+02  0.13710143380E+02  0.50528883755E+02  0.30000072663E+02 0.  0.
        -12    1    1    2    0    0  0.14759599019E+02 -0.35317841654E+02 -0.13710143380E+02  0.40659116245E+02  0.00000000000E+00 0.  1.
         11    1    3    3    0    0  0.35604926758E+00  0.12123222575E+02  0.67089931051E+01  0.13860371042E+02  0.51100000000E-03 0. -1.
        -11    1    3    3    0    0 -0.37896169141E+01  0.18441367924E+02  0.13118507964E+02  0.22946470289E+02  0.51100000000E-03 0.  1.
        -12    1    3    3    0    0 -0.11326031372E+02  0.47532511552E+01 -0.61173576892E+01  0.13722042424E+02  0.00000000000E+00 0.  1.
</event>
<event>
 7    1  0.2945316E-011  0.5052886E+02  0.7816164E-02  0.1300439E+00
        -11   -1    0    0    0    0  0.00000000000E+00  0.00000000000E+00  0.45593999997E+02  0.45594000000E+02  0.51100000000E-03 0.  1.
         11   -1    0    0    0    0 -0.00000000000E+00 -0.00000000000E+00 -0.45593999997E+02  0.45594000000E+02  0.51100000000E-03 0. -1.
    9900012    2    1    2    0    0  0.13419779417E+02  0.36324218208E+02 -0.12394614236E+02  0.50528858715E+02  0.29999996550E+02 0.  0.
        -12    1    1    2    0    0 -0.13419779417E+02 -0.36324218208E+02  0.12394614236E+02  0.40659141285E+02  0.00000000000E+00 0.  1.
         11    1    3    3    0    0  0.85121703119E+01  0.30820192407E+02 -0.11690133400E+02  0.34044096736E+02  0.51100000000E-03 0. -1.
        -11    1    3    3    0    0  0.38164652805E+01  0.96000352749E+01 -0.40381980385E+01  0.11092029939E+02  0.51100000000E-03 0.  1.
        -12    1    3    3    0    0  0.10911438241E+01 -0.40960094744E+01  0.33337172025E+01  0.53927320391E+01  0.00000000000E+00 0.  1.
</event>
<event>
 7    1  0.2945316E-011  0.5052885E+02  0.7816164E-02  0.1300439E+00
        -11   -1    0    0    0    0  0.00000000000E+00  0.00000000000E+00  0.45593999997E+02  0.45594000000E+02  0.51100000000E-03 0.  1.
         11   -1    0    0    0    0 -0.00000000000E+00 -0.00000000000E+00 -0.45593999997E+02  0.45594000000E+02  0.51100000000E-03 0. -1.
    9900012    2    1    2    0    0  0.33408959198E+02  0.12781625702E+02 -0.19329708582E+02  0.50528854115E+02  0.29999982567E+02 0.  0.
        -12    1    1    2    0    0 -0.33408959198E+02 -0.12781625702E+02  0.19329708582E+02  0.40659145885E+02  0.00000000000E+00 0.  1.
         11    1    3    3    0    0  0.27569521730E+02  0.17415200559E+02 -0.12505166534E+02  0.34924875508E+02  0.51100000000E-03 0.  1.
        -11    1    3    3    0    0 -0.51539838507E+00 -0.17872077322E+00 -0.77670469359E+01  0.77861797421E+01  0.51100000000E-03 0. -1.
        -12    1    3    3    0    0  0.63548358531E+01 -0.44548540841E+01  0.94250488792E+00  0.78177988650E+01  0.00000000000E+00 0.  1.
</event>
<event>
 7    1  0.2945316E-011  0.5052885E+02  0.7816164E-02  0.1300439E+00
        -11   -1    0    0    0    0  0.00000000000E+00  0.00000000000E+00  0.45593999997E+02  0.45594000000E+02  0.51100000000E-03 0. -1.
         11   -1    0    0    0    0 -0.00000000000E+00 -0.00000000000E+00 -0.45593999997E+02  0.45594000000E+02  0.51100000000E-03 0.  1.
    9900012    2    1    2    0    0 -0.28505740653E+02 -0.38869945114E+01  0.28731181462E+02  0.50528846483E+02  0.29999959370E+02 0.  0.
        -12    1    1    2    0    0  0.28505740653E+02  0.38869945114E+01 -0.28731181462E+02  0.40659153517E+02  0.00000000000E+00 0.  1.
         11    1    3    3    0    0 -0.17136743646E+02  0.39336846581E+00  0.73866805618E+01  0.18665095005E+02  0.51100000000E-03 0. -1.
        -11    1    3    3    0    0 -0.14537817014E+02 -0.51120664992E+01  0.66079408387E+01  0.16767415717E+02  0.51100000000E-03 0.  1.
        -12    1    3    3    0    0  0.31688200072E+01  0.83170352198E+00  0.14736560061E+02  0.15096335762E+02  0.00000000000E+00 0.  1.
</event>
<event>
 7    1  0.2945316E-011  0.5052886E+02  0.7816164E-02  0.1300439E+00
        -11   -1    0    0    0    0  0.00000000000E+00  0.00000000000E+00  0.45593999997E+02  0.45594000000E+02  0.51100000000E-03 0.  1.
         11   -1    0    0    0    0 -0.00000000000E+00 -0.00000000000E+00 -0.45593999997E+02  0.45594000000E+02  0.51100000000E-03 0. -1.
    9900012    2    1    2    0    0 -0.40487648942E+02  0.32377596709E+01  0.18529036793E+01  0.50528855191E+02  0.29999985838E+02 0.  0.
        -12    1    1    2    0    0  0.40487648942E+02 -0.32377596709E+01 -0.18529036793E+01  0.40659144809E+02  0.00000000000E+00 0.  1.
         11    1    3    3    0    0 -0.52307507984E+01 -0.70522639210E+01 -0.10860070431E+01  0.88472929128E+01  0.51100000000E-03 0. -1.
        -11    1    3    3    0    0 -0.23264452598E+01 -0.34139711710E+01 -0.35270702192E+01  0.54321056043E+01  0.51100000000E-03 0.  1.
         12    1    3    3    0    0 -0.32930452884E+02  0.13703994763E+02  0.64659809416E+01  0.36249456674E+02  0.00000000000E+00 0. -1.
</event>
<event>
 7    1  0.2945316E-011  0.5052886E+02  0.7816164E-02  0.1300439E+00
        -11   -1    0    0    0    0  0.00000000000E+00  0.00000000000E+00  0.45593999997E+02  0.45594000000E+02  0.51100000000E-03 0.  1.
         11   -1    0    0    0    0 -0.00000000000E+00 -0.00000000000E+00 -0.45593999997E+02  0.45594000000E+02  0.51100000000E-03 0. -1.
    9900012    2    1    2    0    0 -0.58702253214E+01  0.24160754545E+01 -0.40160536414E+02  0.50528860179E+02  0.30000001000E+02 0.  0.
        -12    1    1    2    0    0  0.58702253214E+01 -0.24160754545E+01  0.40160536414E+02  0.40659139821E+02  0.00000000000E+00 0.  1.
         11    1    3    3    0    0 -0.63785561774E+00 -0.20818813176E+01 -0.32443820823E+01  0.39073142907E+01  0.51100000000E-03 0. -1.
        -11    1    3    3    0    0 -0.96174238292E+00 -0.75118780508E+01 -0.32122916439E+02  0.33003560734E+02  0.51100000000E-03 0.  1.
        -12    1    3    3    0    0 -0.42706273207E+01  0.12009834823E+02 -0.47932378922E+01  0.13617985155E+02  0.00000000000E+00 0.  1.
</event>
<event>
 7    1  0.2945316E-011  0.5052886E+02  0.7816164E-02  0.1300439E+00
        -11   -1    0    0    0    0  0.00000000000E+00  0.00000000000E+00  0.45593999997E+02  0.45594000000E+02  0.51100000000E-03 0.  1.
         11   -1    0    0    0    0 -0.00000000000E+00 -0.00000000000E+00 -0.45593999997E+02  0.45594000000E+02  0.51100000000E-03 0. -1.
    9900012    2    1    2    0    0 -0.23231909204E+02  0.33305883259E+02 -0.20400936935E+01  0.50528862685E+02  0.30000008616E+02 0.  0.
        -12    1    1    2    0    0  0.23231909204E+02 -0.33305883259E+02  0.20400936935E+01  0.40659137315E+02  0.00000000000E+00 0.  1.
         11    1    3    3    0    0  0.10125765799E+01 -0.21109290471E+00  0.28962267709E+01  0.30753863682E+01  0.51100000000E-03 0. -1.
        -11    1    3    3    0    0  0.32800114343E+00  0.14911348717E+02  0.38500901057E+01  0.15403866378E+02  0.51100000000E-03 0.  1.
         12    1    3    3    0    0 -0.24572486928E+02  0.18605627447E+02 -0.87864105700E+01  0.32049609939E+02  0.00000000000E+00 0. -1.
</event>
<event>
 7    1  0.2945316E-011  0.5052885E+02  0.7816164E-02  0.1300439E+00
        -11   -1    0    0    0    0  0.00000000000E+00  0.00000000000E+00  0.45593999997E+02  0.45594000000E+02  0.51100000000E-03 0. -1.
         11   -1    0    0    0    0 -0.00000000000E+00 -0.00000000000E+00 -0.45593999997E+02  0.45594000000E+02  0.51100000000E-03 0.  1.
    9900012    2    1    2    0    0  0.93856805060E+00 -0.37031427837E+02  0.16761834403E+02  0.50528847891E+02  0.29999963651E+02 0.  0.
        -12    1    1    2    0    0 -0.93856805060E+00  0.37031427837E+02 -0.16761834403E+02  0.40659152109E+02  0.00000000000E+00 0.  1.
         11    1    3    3    0    0  0.20372844047E+01 -0.26299759080E+02  0.15029216426E+02  0.30359598186E+02  0.51100000000E-03 0. -1.
        -11    1    3    3    0    0  0.67539730554E+01 -0.34155844420E+01  0.48547345950E+01  0.89917082561E+01  0.51100000000E-03 0.  1.
         12    1    3    3    0    0 -0.78526894095E+01 -0.73160843150E+01 -0.31221166177E+01  0.11177541449E+02  0.00000000000E+00 0. -1.
</event>
<event>
 7    1  0.2945316E-011  0.5052883E+02  0.7816164E-02  0.1300439E+00
        -11   -1    0    0    0    0  0.00000000000E+00  0.00000000000E+00  0.45593999997E+02  0.45594000000E+02  0.51100000000E-03 0.  1.
         11   -1    0    0    0    0 -0.00000000000E+00 -0.00000000000E+00 -0.45593999997E+02  0.45594000000E+02  0.51100000000E-03 0. -1.
    9900012    2    1    2    0    0  0.10377498682E+01 -0.37217470309E+02 -0.16338632610E+02  0.50528832072E+02  0.29999915567E+02 0.  0.
        -12    1    1    2    0    0 -0.10377498682E+01  0.37217470309E+02  0.16338632610E+02  0.40659167928E+02  0.00000000000E+00 0.  1.
         11    1    3    3    0    0 -0.12067793441E+01 -0.14504313367E+02  0.11978708955E+01  0.14603640559E+02  0.51100000000E-03 0. -1.
        -11    1    3    3    0    0 -0.37137595800E+01  0.31152074106E+01 -0.27623044301E+01  0.55791445092E+01  0.51100000000E-03 0.  1.
         12    1    3    3    0    0  0.59582887923E+01 -0.25828364353E+02 -0.14774199075E+02  0.30346047005E+02  0.00000000000E+00 0. -1.
</event>
<event>
 7    1  0.2945316E-011  0.5052888E+02  0.7816164E-02  0.1300439E+00
        -11   -1    0    0    0    0  0.00000000000E+00  0.00000000000E+00  0.45593999997E+02  0.45594000000E+02  0.51100000000E-03 0.  1.
         11   -1    0    0    0    0 -0.00000000000E+00 -0.00000000000E+00 -0.45593999997E+02  0.45594000000E+02  0.51100000000E-03 0. -1.
    9900012    2    1    2    0    0 -0.21753447266E+02  0.19168415838E+02 -0.28504800344E+02  0.50528877083E+02  0.30000052382E+02 0.  0.
        -12    1    1    2    0    0  0.21753447266E+02 -0.19168415838E+02  0.28504800344E+02  0.40659122917E+02  0.00000000000E+00 0.  1.
         11    1    3    3    0    0 -0.14472903868E+02  0.13865013319E+02 -0.49801813455E+01  0.20652015573E+02  0.51100000000E-03 0. -1.
        -11    1    3    3    0    0 -0.72846187405E+01  0.17958681519E+01 -0.15974121548E+01  0.76708890272E+01  0.51100000000E-03 0.  1.
         12    1    3    3    0    0  0.40753430255E-02  0.35075343668E+01 -0.21927206844E+02  0.22205972483E+02  0.00000000000E+00 0. -1.
</event>
<event>
 7    1  0.2945316E-011  0.5052885E+02  0.7816164E-02  0.1300439E+00
        -11   -1    0    0    0    0  0.00000000000E+00  0.00000000000E+00  0.45593999997E+02  0.45594000000E+02  0.51100000000E-03 0.  1.
         11   -1    0    0    0    0 -0.00000000000E+00 -0.00000000000E+00 -0.45593999997E+02  0.45594000000E+02  0.51100000000E-03 0. -1.
    9900012    2    1    2    0    0  0.13948421747E+02 -0.10746184974E+02 -0.36648699094E+02  0.50528854583E+02  0.29999983991E+02 0.  0.
        -12    1    1    2    0    0 -0.13948421747E+02  0.10746184974E+02  0.36648699094E+02  0.40659145417E+02  0.00000000000E+00 0.  1.
         11    1    3    3    0    0  0.57687489246E+01 -0.26339611545E+00 -0.11083362714E+01  0.58801574146E+01  0.51100000000E-03 0.  1.
        -11    1    3    3    0    0  0.15025959593E+02 -0.77810568224E+01 -0.14250181227E+02  0.22122205411E+02  0.51100000000E-03 0. -1.
         12    1    3    3    0    0 -0.68462867710E+01 -0.27017320365E+01 -0.21290181596E+02  0.22526491758E+02  0.00000000000E+00 0. -1.
</event>
<event>
 7    1  0.2945316E-011  0.5052886E+02  0.7816164E-02  0.1300439E+00
        -11   -1    0    0    0    0  0.00000000000E+00  0.00000000000E+00  0.45593999997E+02  0.45594000000E+02  0.51100000000E-03 0.  1.
         11   -1    0    0    0    0 -0.00000000000E+00 -0.00000000000E+00 -0.45593999997E+02  0.45594000000E+02  0.51100000000E-03 0. -1.
    9900012    2    1    2    0    0 -0.34421506953E+02  0.21566844045E+02  0.17879603674E+01  0.50528859512E+02  0.29999998972E+02 0.  0.
        -12    1    1    2    0    0  0.34421506953E+02 -0.21566844045E+02 -0.17879603674E+01  0.40659140488E+02  0.00000000000E+00 0.  1.
         11    1    3    3    0    0 -0.70522060536E+01  0.14567656747E+02 -0.76566214835E+01  0.17904582824E+02  0.51100000000E-03 0. -1.
        -11    1    3    3    0    0 -0.65529498924E+01 -0.11262295231E+01  0.77540467279E+01  0.10214440080E+02  0.51100000000E-03 0.  1.
         12    1    3    3    0    0 -0.20816351007E+02  0.81254168215E+01  0.16905351230E+01  0.22409836607E+02  0.00000000000E+00 0. -1.
</event>
<event>
 7    1  0.2945316E-011  0.5052881E+02  0.7816164E-02  0.1300439E+00
        -11   -1    0    0    0    0  0.00000000000E+00  0.00000000000E+00  0.45593999997E+02  0.45594000000E+02  0.51100000000E-03 0.  1.
         11   -1    0    0    0    0 -0.00000000000E+00 -0.00000000000E+00 -0.45593999997E+02  0.45594000000E+02  0.51100000000E-03 0. -1.
    9900012    2    1    2    0    0 -0.21936920079E+02  0.30827247935E+02  0.14886988622E+02  0.50528805369E+02  0.29999834401E+02 0.  0.
        -12    1    1    2    0    0  0.21936920079E+02 -0.30827247935E+02 -0.14886988622E+02  0.40659194631E+02  0.00000000000E+00 0.  1.
         11    1    3    3    0    0 -0.53164269033E+01  0.10953754152E+01  0.40180600987E+01  0.67534472336E+01  0.51100000000E-03 0. -1.
        -11    1    3    3    0    0 -0.39831597455E+01  0.12008792119E+01  0.11846295845E+02  0.12555572387E+02  0.51100000000E-03 0.  1.
         12    1    3    3    0    0 -0.12637333430E+02  0.28530993307E+02 -0.97736732248E+00  0.31219785749E+02  0.00000000000E+00 0. -1.
</event>
<event>
 7    1  0.2945316E-011  0.5052886E+02  0.7816164E-02  0.1300439E+00
        -11   -1    0    0    0    0  0.00000000000E+00  0.00000000000E+00  0.45593999997E+02  0.45594000000E+02  0.51100000000E-03 0.  1.
         11   -1    0    0    0    0 -0.00000000000E+00 -0.00000000000E+00 -0.45593999997E+02  0.45594000000E+02  0.51100000000E-03 0. -1.
    9900012    2    1    2    0    0 -0.34542264194E+02  0.15005500297E+02 -0.15324249795E+02  0.50528859741E+02  0.29999999669E+02 0.  0.
        -12    1    1    2    0    0  0.34542264194E+02 -0.15005500297E+02  0.15324249795E+02  0.40659140259E+02  0.00000000000E+00 0.  1.
         11    1    3    3    0    0  0.53039112603E+00 -0.10648455061E+01 -0.10103474760E+00  0.11939091171E+01  0.51100000000E-03 0. -1.
        -11    1    3    3    0    0  0.37256728277E+01  0.62071737207E+00 -0.51314836888E+01  0.63716601593E+01  0.51100000000E-03 0.  1.
         12    1    3    3    0    0 -0.38798328148E+02  0.15449628431E+02 -0.10091731358E+02  0.42963290465E+02  0.00000000000E+00 0. -1.
</event>
<event>
 7    1  0.2945316E-011  0.5052886E+02  0.7816164E-02  0.1300439E+00
        -11   -1    0    0    0    0  0.00000000000E+00  0.00000000000E+00  0.45593999997E+02  0.45594000000E+02  0.51100000000E-03 0.  1.
         11   -1    0    0    0    0 -0.00000000000E+00 -0.00000000000E+00 -0.45593999997E+02  0.45594000000E+02  0.51100000000E-03 0. -1.
    9900012    2    1    2    0    0  0.12457138376E+02  0.24210453995E+02 -0.30196681057E+02  0.50528856797E+02  0.29999990719E+02 0.  0.
        -12    1    1    2    0    0 -0.12457138376E+02 -0.24210453995E+02  0.30196681057E+02  0.40659143203E+02  0.00000000000E+00 0.  1.
         11    1    3    3    0    0 -0.17314838164E+00  0.74957650981E+01 -0.13841537932E+01  0.76244578005E+01  0.51100000000E-03 0. -1.
        -11    1    3    3    0    0 -0.68254801652E+01  0.76948329907E+01 -0.81291788265E+01  0.13110346406E+02  0.51100000000E-03 0.  1.
         12    1    3    3    0    0  0.19455766923E+02  0.90198559059E+01 -0.20683348438E+02  0.29794052590E+02  0.00000000000E+00 0. -1.
</event>
<event>
 7    1  0.2945316E-011  0.5052887E+02  0.7816164E-02  0.1300439E+00
        -11   -1    0    0    0    0  0.00000000000E+00  0.00000000000E+00  0.45593999997E+02  0.45594000000E+02  0.51100000000E-03 0.  1.
         11   -1    0    0    0    0 -0.00000000000E+00 -0.00000000000E+00 -0.45593999997E+02  0.45594000000E+02  0.51100000000E-03 0. -1.
    9900012    2    1    2    0    0  0.25075313716E+02 -0.31762472863E+02 -0.39418886629E+01  0.50528874006E+02  0.30000043030E+02 0.  0.
        -12    1    1    2    0    0 -0.25075313716E+02  0.31762472863E+02  0.39418886629E+01  0.40659125994E+02  0.00000000000E+00 0.  1.
         11    1    3    3    0    0  0.98600517481E+01 -0.20436316925E+02 -0.14258613395E+02  0.26798726204E+02  0.51100000000E-03 0. -1.
        -11    1    3    3    0    0  0.77286768818E+01 -0.11488814591E+02  0.60392822775E+01  0.15106231752E+02  0.51100000000E-03 0.  1.
        -12    1    3    3    0    0  0.74865850862E+01  0.16265865336E+00  0.42774424547E+01  0.86239160504E+01  0.00000000000E+00 0.  1.
</event>
<event>
 7    1  0.2945316E-011  0.5052875E+02  0.7816164E-02  0.1300439E+00
        -11   -1    0    0    0    0  0.00000000000E+00  0.00000000000E+00  0.45593999997E+02  0.45594000000E+02  0.51100000000E-03 0.  1.
         11   -1    0    0    0    0 -0.00000000000E+00 -0.00000000000E+00 -0.45593999997E+02  0.45594000000E+02  0.51100000000E-03 0. -1.
    9900012    2    1    2    0    0 -0.40305070548E+02 -0.27740496955E+01 -0.45804317418E+01  0.50528752362E+02  0.29999673277E+02 0.  0.
        -12    1    1    2    0    0  0.40305070548E+02  0.27740496955E+01  0.45804317418E+01  0.40659247638E+02  0.00000000000E+00 0.  1.
         11    1    3    3    0    0 -0.14951395665E+02 -0.19151209353E+01 -0.11234975836E+02  0.18799909649E+02  0.51100000000E-03 0.  1.
        -11    1    3    3    0    0 -0.11944380835E+02  0.41779382189E+01 -0.46500082516E+01  0.13481319605E+02  0.51100000000E-03 0. -1.
        -12    1    3    3    0    0 -0.13409294049E+02 -0.50368669791E+01  0.11304552346E+02  0.18247523108E+02  0.00000000000E+00 0.  1.
</event>
<event>
 7    1  0.2945316E-011  0.5052888E+02  0.7816164E-02  0.1300439E+00
        -11   -1    0    0    0    0  0.00000000000E+00  0.00000000000E+00  0.45593999997E+02  0.45594000000E+02  0.51100000000E-03 0. -1.
         11   -1    0    0    0    0 -0.00000000000E+00 -0.00000000000E+00 -0.45593999997E+02  0.45594000000E+02  0.51100000000E-03 0.  1.
    9900012    2    1    2    0    0  0.32097329794E+02 -0.19882300721E+02 -0.15087078139E+02  0.50528875702E+02  0.30000048185E+02 0.  0.
        -12    1    1    2    0    0 -0.32097329794E+02  0.19882300721E+02  0.15087078139E+02  0.40659124298E+02  0.00000000000E+00 0.  1.
         11    1    3    3    0    0  0.61186546070E+00 -0.12526742001E+01  0.21617872085E+01  0.25723328302E+01  0.51100000000E-03 0. -1.
        -11    1    3    3    0    0  0.10974590865E+01  0.46730123274E+01 -0.66889108584E+01  0.82330425355E+01  0.51100000000E-03 0.  1.
        -12    1    3    3    0    0  0.30388005247E+02 -0.23302638848E+02 -0.10559954489E+02  0.39723500337E+02  0.00000000000E+00 0.  1.
</event>
<event>
 7    1  0.2945316E-011  0.5052886E+02  0.7816164E-02  0.1300439E+00
        -11   -1    0    0    0    0  0.00000000000E+00  0.00000000000E+00  0.45593999997E+02  0.45594000000E+02  0.51100000000E-03 0. -1.
         11   -1    0    0    0    0 -0.00000000000E+00 -0.00000000000E+00 -0.45593999997E+02  0.45594000000E+02  0.51100000000E-03 0.  1.
    9900012    2    1    2    0    0  0.12722599797E+02  0.32227030349E+02  0.21277205909E+02  0.50528861765E+02  0.30000005822E+02 0.  0.
        -12    1    1    2    0    0 -0.12722599797E+02 -0.32227030349E+02 -0.21277205909E+02  0.40659138235E+02  0.00000000000E+00 0.  1.
         11    1    3    3    0    0  0.93862263536E+01  0.12986995142E+02  0.16879798460E+02  0.23274253679E+02  0.51100000000E-03 0. -1.
        -11    1    3    3    0    0 -0.43389834138E+01 -0.16054045059E+01  0.90464718627E-01  0.46273410096E+01  0.51100000000E-03 0.  1.
         12    1    3    3    0    0  0.76753568575E+01  0.20845439712E+02  0.43069427303E+01  0.22627267077E+02  0.00000000000E+00 0. -1.
</event>
<event>
 7    1  0.2945316E-011  0.5052886E+02  0.7816164E-02  0.1300439E+00
        -11   -1    0    0    0    0  0.00000000000E+00  0.00000000000E+00  0.45593999997E+02  0.45594000000E+02  0.51100000000E-03 0.  1.
         11   -1    0    0    0    0 -0.00000000000E+00 -0.00000000000E+00 -0.45593999997E+02  0.45594000000E+02  0.51100000000E-03 0. -1.
    9900012    2    1    2    0    0 -0.16419632503E+02 -0.99352183381E+01 -0.35844847662E+02  0.50528855901E+02  0.29999987997E+02 0.  0.
        -12    1    1    2    0    0  0.16419632503E+02  0.99352183381E+01  0.35844847662E+02  0.40659144099E+02  0.00000000000E+00 0.  1.
         11    1    3    3    0    0 -0.53579544183E+01  0.96338414948E+00  0.18631291693E+00  0.54470631842E+01  0.51100000000E-03 0. -1.
        -11    1    3    3    0    0 -0.11913103114E+02 -0.53908246208E+00 -0.60954247930E+01  0.13392790575E+02  0.51100000000E-03 0.  1.
         12    1    3    3    0    0  0.85142502991E+00 -0.10359520025E+02 -0.29935735786E+02  0.31689002142E+02  0.00000000000E+00 0. -1.
</event>
<event>
 7    1  0.2945316E-011  0.5052887E+02  0.7816164E-02  0.1300439E+00
        -11   -1    0    0    0    0  0.00000000000E+00  0.00000000000E+00  0.45593999997E+02  0.45594000000E+02  0.51100000000E-03 0.  1.
         11   -1    0    0    0    0 -0.00000000000E+00 -0.00000000000E+00 -0.45593999997E+02  0.45594000000E+02  0.51100000000E-03 0. -1.
    9900012    2    1    2    0    0 -0.34698904736E+01  0.39766290928E+02 -0.77309114526E+01  0.50528867866E+02  0.30000024364E+02 0.  0.
        -12    1    1    2    0    0  0.34698904736E+01 -0.39766290928E+02  0.77309114526E+01  0.40659132134E+02  0.00000000000E+00 0.  1.
         11    1    3    3    0    0 -0.86256920938E+01  0.77376402693E+01 -0.11075104862E+02  0.16029085719E+02  0.51100000000E-03 0. -1.
        -11    1    3    3    0    0  0.13316572412E+01  0.13918108698E+02  0.69941487046E+01  0.15633463376E+02  0.51100000000E-03 0.  1.
        -12    1    3    3    0    0  0.38241443790E+01  0.18110541960E+02 -0.36499552955E+01  0.18866318771E+02  0.00000000000E+00 0.  1.
</event>
<event>
 7    1  0.2945316E-011  0.5052885E+02  0.7816164E-02  0.1300439E+00
        -11   -1    0    0    0    0  0.00000000000E+00  0.00000000000E+00  0.45593999997E+02  0.45594000000E+02  0.51100000000E-03 0.  1.
         11   -1    0    0    0    0 -0.00000000000E+00 -0.00000000000E+00 -0.45593999997E+02  0.45594000000E+02  0.51100000000E-03 0. -1.
    9900012    2    1    2    0    0  0.26183051458E+02 -0.29224613459E+02 -0.10655328397E+02  0.50528852951E+02  0.29999979030E+02 0.  0.
        -12    1    1    2    0    0 -0.26183051458E+02  0.29224613459E+02  0.10655328397E+02  0.40659147049E+02  0.00000000000E+00 0.  1.
         11    1    3    3    0    0  0.56480061225E+01 -0.22132335022E+01 -0.90521895135E+01  0.10896811962E+02  0.51100000000E-03 0. -1.
        -11    1    3    3    0    0  0.91604693932E+01 -0.89198444481E+01  0.91367473871E+01  0.15714896677E+02  0.51100000000E-03 0.  1.
         12    1    3    3    0    0  0.11374575942E+02 -0.18091535509E+02 -0.10739886271E+02  0.23917144312E+02  0.00000000000E+00 0. -1.
</event>
<event>
 7    1  0.2945316E-011  0.5052886E+02  0.7816164E-02  0.1300439E+00
        -11   -1    0    0    0    0  0.00000000000E+00  0.00000000000E+00  0.45593999997E+02  0.45594000000E+02  0.51100000000E-03 0.  1.
         11   -1    0    0    0    0 -0.00000000000E+00 -0.00000000000E+00 -0.45593999997E+02  0.45594000000E+02  0.51100000000E-03 0. -1.
    9900012    2    1    2    0    0  0.22111572058E+02 -0.23510012575E+02 -0.24729003283E+02  0.50528856951E+02  0.29999991187E+02 0.  0.
        -12    1    1    2    0    0 -0.22111572058E+02  0.23510012575E+02  0.24729003283E+02  0.40659143049E+02  0.00000000000E+00 0.  1.
         11    1    3    3    0    0  0.16016962139E+02 -0.15268703738E+02 -0.28487770354E+02  0.36072558129E+02  0.51100000000E-03 0. -1.
        -11    1    3    3    0    0  0.26047666046E+01 -0.63686701890E+01 -0.22677919243E+01  0.72448360585E+01  0.51100000000E-03 0.  1.
         12    1    3    3    0    0  0.34898433141E+01 -0.18726386478E+01  0.60265589950E+01  0.72114627631E+01  0.00000000000E+00 0. -1.
</event>
<event>
 7    1  0.2945316E-011  0.5052886E+02  0.7816164E-02  0.1300439E+00
        -11   -1    0    0    0    0  0.00000000000E+00  0.00000000000E+00  0.45593999997E+02  0.45594000000E+02  0.51100000000E-03 0.  1.
         11   -1    0    0    0    0 -0.00000000000E+00 -0.00000000000E+00 -0.45593999997E+02  0.45594000000E+02  0.51100000000E-03 0. -1.
    9900012    2    1    2    0    0  0.21454976529E+02 -0.13633562137E+02 -0.31732880799E+02  0.50528858861E+02  0.29999996993E+02 0.  0.
        -12    1    1    2    0    0 -0.21454976529E+02  0.13633562137E+02  0.31732880799E+02  0.40659141139E+02  0.00000000000E+00 0.  1.
         11    1    3    3    0    0 -0.27004052913E+01 -0.32395750308E+01  0.65168475931E+00  0.42675201704E+01  0.51100000000E-03 0. -1.
        -11    1    3    3    0    0  0.26993225692E+02 -0.10779061295E+02 -0.24990617303E+02  0.38332145115E+02  0.51100000000E-03 0.  1.
         12    1    3    3    0    0 -0.28378438712E+01  0.38507418879E+00 -0.73939482549E+01  0.79291935759E+01  0.00000000000E+00 0. -1.
</event>
<event>
 7    1  0.2945316E-011  0.5052890E+02  0.7816164E-02  0.1300439E+00
        -11   -1    0    0    0    0  0.00000000000E+00  0.00000000000E+00  0.45593999997E+02  0.45594000000E+02  0.51100000000E-03 0.  1.
         11   -1    0    0    0    0 -0.00000000000E+00 -0.00000000000E+00 -0.45593999997E+02  0.45594000000E+02  0.51100000000E-03 0. -1.
    9900012    2    1    2    0    0  0.67323210536E+01 -0.39535290502E+02 -0.66932056613E+01  0.50528900848E+02  0.30000124617E+02 0.  0.
        -12    1    1    2    0    0 -0.67323210536E+01  0.39535290502E+02  0.66932056613E+01  0.40659099152E+02  0.00000000000E+00 0.  1.
         11    1    3    3    0    0  0.23316712843E+01 -0.94304007785E+01  0.68393942345E+01  0.11880507715E+02  0.51100000000E-03 0.  1.
        -11    1    3    3    0    0  0.23730032150E+01 -0.13879353922E+02  0.40359022426E+01  0.14647734184E+02  0.51100000000E-03 0. -1.
         12    1    3    3    0    0  0.20276465542E+01 -0.16225535802E+02 -0.17568502138E+02  0.24000658949E+02  0.00000000000E+00 0. -1.
</event>
<event>
 7    1  0.2945316E-011  0.5052886E+02  0.7816164E-02  0.1300439E+00
        -11   -1    0    0    0    0  0.00000000000E+00  0.00000000000E+00  0.45593999997E+02  0.45594000000E+02  0.51100000000E-03 0.  1.
         11   -1    0    0    0    0 -0.00000000000E+00 -0.00000000000E+00 -0.45593999997E+02  0.45594000000E+02  0.51100000000E-03 0. -1.
    9900012    2    1    2    0    0 -0.18407741458E+02 -0.65517371322E+01 -0.35656638032E+02  0.50528855385E+02  0.29999986429E+02 0.  0.
        -12    1    1    2    0    0  0.18407741458E+02  0.65517371322E+01  0.35656638032E+02  0.40659144615E+02  0.00000000000E+00 0.  1.
         11    1    3    3    0    0 -0.49255820415E+01 -0.28695400050E+01 -0.14490497148E+02  0.15571452282E+02  0.51100000000E-03 0. -1.
        -11    1    3    3    0    0 -0.18503407512E+02 -0.85893277471E+01 -0.18189795192E+02  0.27331690217E+02  0.51100000000E-03 0.  1.
        -12    1    3    3    0    0  0.50212480954E+01  0.49071306199E+01 -0.29763456920E+01  0.76257128870E+01  0.00000000000E+00 0.  1.
</event>
<event>
 7    1  0.2945316E-011  0.5052886E+02  0.7816164E-02  0.1300439E+00
        -11   -1    0    0    0    0  0.00000000000E+00  0.00000000000E+00  0.45593999997E+02  0.45594000000E+02  0.51100000000E-03 0.  1.
         11   -1    0    0    0    0 -0.00000000000E+00 -0.00000000000E+00 -0.45593999997E+02  0.45594000000E+02  0.51100000000E-03 0. -1.
    9900012    2    1    2    0    0  0.23040674741E+02  0.30326048098E+02 -0.14234598115E+02  0.50528859954E+02  0.30000000316E+02 0.  0.
        -12    1    1    2    0    0 -0.23040674741E+02 -0.30326048098E+02  0.14234598115E+02  0.40659140046E+02  0.00000000000E+00 0.  1.
         11    1    3    3    0    0  0.29684853611E+01  0.10797464348E+02 -0.11596873110E+01  0.11257975689E+02  0.51100000000E-03 0. -1.
        -11    1    3    3    0    0 -0.27741982227E+00  0.10310362951E+02  0.40925343896E+01  0.11096368052E+02  0.51100000000E-03 0.  1.
         12    1    3    3    0    0  0.20349609203E+02  0.92182207986E+01 -0.17167445194E+02  0.28174516214E+02  0.00000000000E+00 0. -1.
</event>
<event>
 7    1  0.2945316E-011  0.5052886E+02  0.7816164E-02  0.1300439E+00
        -11   -1    0    0    0    0  0.00000000000E+00  0.00000000000E+00  0.45593999997E+02  0.45594000000E+02  0.51100000000E-03 0. -1.
         11   -1    0    0    0    0 -0.00000000000E+00 -0.00000000000E+00 -0.45593999997E+02  0.45594000000E+02  0.51100000000E-03 0.  1.
    9900012    2    1    2    0    0  0.38009552024E+02 -0.12565538612E+02 -0.71096200155E+01  0.50528862006E+02  0.30000006553E+02 0.  0.
        -12    1    1    2    0    0 -0.38009552024E+02  0.12565538612E+02  0.71096200155E+01  0.40659137994E+02  0.00000000000E+00 0.  1.
         11    1    3    3    0    0  0.85229561794E+01 -0.50668183477E+01  0.52277130304E+01  0.11209032697E+02  0.51100000000E-03 0. -1.
        -11    1    3    3    0    0  0.86041941646E+00 -0.63757557458E+01  0.26856220622E+01  0.69715958736E+01  0.51100000000E-03 0.  1.
        -12    1    3    3    0    0  0.28626176428E+02 -0.11229645179E+01 -0.15022955108E+02  0.32348233435E+02  0.00000000000E+00 0.  1.
</event>
<event>
 7    1  0.2945316E-011  0.5052887E+02  0.7816164E-02  0.1300439E+00
        -11   -1    0    0    0    0  0.00000000000E+00  0.00000000000E+00  0.45593999997E+02  0.45594000000E+02  0.51100000000E-03 0.  1.
         11   -1    0    0    0    0 -0.00000000000E+00 -0.00000000000E+00 -0.45593999997E+02  0.45594000000E+02  0.51100000000E-03 0. -1.
    9900012    2    1    2    0    0  0.20109807830E+02  0.24138284776E+02 -0.25808986330E+02  0.50528868944E+02  0.30000027641E+02 0.  0.
        -12    1    1    2    0    0 -0.20109807830E+02 -0.24138284776E+02  0.25808986330E+02  0.40659131056E+02  0.00000000000E+00 0.  1.
         11    1    3    3    0    0  0.14377090505E+02  0.31582378520E+01 -0.93313868929E+01  0.17428424465E+02  0.51100000000E-03 0. -1.
        -11    1    3    3    0    0  0.85804279891E+01  0.11841340028E+02 -0.18228828496E+02  0.23369451571E+02  0.51100000000E-03 0.  1.
        -12    1    3    3    0    0 -0.28477106639E+01  0.91387068959E+01  0.17512290590E+01  0.97309929078E+01  0.00000000000E+00 0.  1.
</event>
<event>
 7    1  0.2945316E-011  0.5052886E+02  0.7816164E-02  0.1300439E+00
        -11   -1    0    0    0    0  0.00000000000E+00  0.00000000000E+00  0.45593999997E+02  0.45594000000E+02  0.51100000000E-03 0.  1.
         11   -1    0    0    0    0 -0.00000000000E+00 -0.00000000000E+00 -0.45593999997E+02  0.45594000000E+02  0.51100000000E-03 0. -1.
    9900012    2    1    2    0    0 -0.17622317332E+01 -0.26155817456E+02 -0.31079463916E+02  0.50528864191E+02  0.30000013194E+02 0.  0.
        -12    1    1    2    0    0  0.17622317332E+01  0.26155817456E+02  0.31079463916E+02  0.40659135809E+02  0.00000000000E+00 0.  1.
         11    1    3    3    0    0  0.44342811932E+01 -0.14715600232E+02 -0.51028321389E+01  0.16194154377E+02  0.51100000000E-03 0.  1.
        -11    1    3    3    0    0 -0.72050101210E+01 -0.15884681253E+02 -0.17484993562E+02  0.24697373737E+02  0.51100000000E-03 0. -1.
        -12    1    3    3    0    0  0.10084971946E+01  0.44444640289E+01 -0.84916382147E+01  0.96373360772E+01  0.00000000000E+00 0.  1.
</event>
<event>
 7    1  0.2945316E-011  0.5052884E+02  0.7816164E-02  0.1300439E+00
        -11   -1    0    0    0    0  0.00000000000E+00  0.00000000000E+00  0.45593999997E+02  0.45594000000E+02  0.51100000000E-03 0.  1.
         11   -1    0    0    0    0 -0.00000000000E+00 -0.00000000000E+00 -0.45593999997E+02  0.45594000000E+02  0.51100000000E-03 0. -1.
    9900012    2    1    2    0    0 -0.31348207501E+02 -0.16779493545E+02 -0.19720689861E+02  0.50528842043E+02  0.29999945875E+02 0.  0.
        -12    1    1    2    0    0  0.31348207501E+02  0.16779493545E+02  0.19720689861E+02  0.40659157957E+02  0.00000000000E+00 0.  1.
         11    1    3    3    0    0 -0.24680074226E+02 -0.17955141279E+02 -0.13719289313E+02  0.33462098883E+02  0.51100000000E-03 0. -1.
        -11    1    3    3    0    0 -0.18781634982E+00 -0.24965882894E+01 -0.87699950322E+01  0.91203640933E+01  0.51100000000E-03 0.  1.
        -12    1    3    3    0    0 -0.64803169250E+01  0.36722360234E+01  0.27685944842E+01  0.79463790671E+01  0.00000000000E+00 0.  1.
</event>
<event>
 7    1  0.2945316E-011  0.5052886E+02  0.7816164E-02  0.1300439E+00
        -11   -1    0    0    0    0  0.00000000000E+00  0.00000000000E+00  0.45593999997E+02  0.45594000000E+02  0.51100000000E-03 0.  1.
         11   -1    0    0    0    0 -0.00000000000E+00 -0.00000000000E+00 -0.45593999997E+02  0.45594000000E+02  0.51100000000E-03 0. -1.
    9900012    2    1    2    0    0 -0.77467320563E+01  0.33990502083E+02 -0.20923662829E+02  0.50528858893E+02  0.29999997092E+02 0.  0.
        -12    1    1    2    0    0  0.77467320563E+01 -0.33990502083E+02  0.20923662829E+02  0.40659141107E+02  0.00000000000E+00 0.  1.
         11    1    3    3    0    0 -0.10876972371E+01  0.13987054621E+02 -0.49946124074E+00  0.14038170965E+02  0.51100000000E-03 0. -1.
        -11    1    3    3    0    0 -0.78343744990E+01 -0.15139309878E+01 -0.22229750726E+01  0.82831774858E+01  0.51100000000E-03 0.  1.
        -12    1    3    3    0    0  0.11753396799E+01  0.21517378449E+02 -0.18201226515E+02  0.28207510442E+02  0.00000000000E+00 0.  1.
</event>
<event>
 7    1  0.2945316E-011  0.5052886E+02  0.7816164E-02  0.1300439E+00
        -11   -1    0    0    0    0  0.00000000000E+00  0.00000000000E+00  0.45593999997E+02  0.45594000000E+02  0.51100000000E-03 0. -1.
         11   -1    0    0    0    0 -0.00000000000E+00 -0.00000000000E+00 -0.45593999997E+02  0.45594000000E+02  0.51100000000E-03 0.  1.
    9900012    2    1    2    0    0  0.26503164712E+01 -0.32892612887E+02  0.23753268112E+02  0.50528857044E+02  0.29999991470E+02 0.  0.
        -12    1    1    2    0    0 -0.26503164712E+01  0.32892612887E+02 -0.23753268112E+02  0.40659142956E+02  0.00000000000E+00 0.  1.
         11    1    3    3    0    0 -0.64535372608E+01 -0.24919621228E+02  0.14601987686E+02  0.29594825730E+02  0.51100000000E-03 0. -1.
        -11    1    3    3    0    0 -0.25948510200E+01 -0.57620873422E+01  0.57702038046E+01  0.85574619230E+01  0.51100000000E-03 0.  1.
        -12    1    3    3    0    0  0.11698704752E+02 -0.22109043167E+01  0.33810766215E+01  0.12376569391E+02  0.00000000000E+00 0.  1.
</event>
<event>
 7    1  0.2945316E-011  0.5052886E+02  0.7816164E-02  0.1300439E+00
        -11   -1    0    0    0    0  0.00000000000E+00  0.00000000000E+00  0.45593999997E+02  0.45594000000E+02  0.51100000000E-03 0.  1.
         11   -1    0    0    0    0 -0.00000000000E+00 -0.00000000000E+00 -0.45593999997E+02  0.45594000000E+02  0.51100000000E-03 0. -1.
    9900012    2    1    2    0    0 -0.35021924534E+02 -0.58368827494E+01 -0.19813149590E+02  0.50528864556E+02  0.30000014306E+02 0.  0.
        -12    1    1    2    0    0  0.35021924534E+02  0.58368827494E+01  0.19813149590E+02  0.40659135444E+02  0.00000000000E+00 0.  1.
         11    1    3    3    0    0 -0.96271957225E+01 -0.41961381204E+01  0.27070743651E+01  0.10845216664E+02  0.51100000000E-03 0.  1.
        -11    1    3    3    0    0 -0.20988858025E+02  0.14489719459E+01 -0.53761337124E+01  0.21714845034E+02  0.51100000000E-03 0. -1.
        -12    1    3    3    0    0 -0.44058707868E+01 -0.30897165750E+01 -0.17144090243E+02  0.17968802859E+02  0.00000000000E+00 0.  1.
</event>
<event>
 7    1  0.2945316E-011  0.5052886E+02  0.7816164E-02  0.1300439E+00
        -11   -1    0    0    0    0  0.00000000000E+00  0.00000000000E+00  0.45593999997E+02  0.45594000000E+02  0.51100000000E-03 0. -1.
         11   -1    0    0    0    0 -0.00000000000E+00 -0.00000000000E+00 -0.45593999997E+02  0.45594000000E+02  0.51100000000E-03 0.  1.
    9900012    2    1    2    0    0  0.16406414599E+02 -0.10963708035E+02  0.35549857745E+02  0.50528859336E+02  0.29999998438E+02 0.  0.
        -12    1    1    2    0    0 -0.16406414599E+02  0.10963708035E+02 -0.35549857745E+02  0.40659140664E+02  0.00000000000E+00 0.  1.
         11    1    3    3    0    0  0.46107931767E+01 -0.58565125421E+01  0.18497180039E+02  0.19942512945E+02  0.51100000000E-03 0.  1.
        -11    1    3    3    0    0 -0.25050468342E+01  0.55185417564E+01  0.94264754005E+01  0.11206605262E+02  0.51100000000E-03 0. -1.
        -12    1    3    3    0    0  0.14300668256E+02 -0.10625737249E+02  0.76262023047E+01  0.19379741130E+02  0.00000000000E+00 0.  1.
</event>
<event>
 7    1  0.2945316E-011  0.5052886E+02  0.7816164E-02  0.1300439E+00
        -11   -1    0    0    0    0  0.00000000000E+00  0.00000000000E+00  0.45593999997E+02  0.45594000000E+02  0.51100000000E-03 0.  1.
         11   -1    0    0    0    0 -0.00000000000E+00 -0.00000000000E+00 -0.45593999997E+02  0.45594000000E+02  0.51100000000E-03 0. -1.
    9900012    2    1    2    0    0 -0.36131746769E+02 -0.40684736309E-01 -0.18645656584E+02  0.50528864627E+02  0.30000014521E+02 0.  0.
        -12    1    1    2    0    0  0.36131746769E+02  0.40684736309E-01  0.18645656584E+02  0.40659135373E+02  0.00000000000E+00 0.  1.
         11    1    3    3    0    0 -0.56449633835E+01 -0.43827381087E+01 -0.68748534711E+01  0.99165324303E+01  0.51100000000E-03 0. -1.
        -11    1    3    3    0    0 -0.86587684764E+01  0.38735665210E+01 -0.15782537709E+02  0.18413779783E+02  0.51100000000E-03 0.  1.
         12    1    3    3    0    0 -0.21828014909E+02  0.46848685143E+00  0.40117345960E+01  0.22198552414E+02  0.00000000000E+00 0. -1.
</event>
<event>
 7    1  0.2945316E-011  0.5052886E+02  0.7816164E-02  0.1300439E+00
        -11   -1    0    0    0    0  0.00000000000E+00  0.00000000000E+00  0.45593999997E+02  0.45594000000E+02  0.51100000000E-03 0.  1.
         11   -1    0    0    0    0 -0.00000000000E+00 -0.00000000000E+00 -0.45593999997E+02  0.45594000000E+02  0.51100000000E-03 0. -1.
    9900012    2    1    2    0    0 -0.24694561761E+02 -0.19301435127E+02 -0.25899780649E+02  0.50528863066E+02  0.30000009777E+02 0.  0.
        -12    1    1    2    0    0  0.24694561761E+02  0.19301435127E+02  0.25899780649E+02  0.40659136934E+02  0.00000000000E+00 0.  1.
         11    1    3    3    0    0 -0.37709286890E+01 -0.23971100803E+01 -0.50858644930E+01  0.67699378001E+01  0.51100000000E-03 0. -1.
        -11    1    3    3    0    0 -0.24552566509E+02 -0.58202385811E+01 -0.80893098259E+01  0.26497936392E+02  0.51100000000E-03 0.  1.
         12    1    3    3    0    0  0.36289334370E+01 -0.11084086466E+02 -0.12724606330E+02  0.17260988875E+02  0.00000000000E+00 0. -1.
</event>
<event>
 7    1  0.2945316E-011  0.5052887E+02  0.7816164E-02  0.1300439E+00
        -11   -1    0    0    0    0  0.00000000000E+00  0.00000000000E+00  0.45593999997E+02  0.45594000000E+02  0.51100000000E-03 0.  1.
         11   -1    0    0    0    0 -0.00000000000E+00 -0.00000000000E+00 -0.45593999997E+02  0.45594000000E+02  0.51100000000E-03 0. -1.
    9900012    2    1    2    0    0  0.22302889671E+02  0.33044698648E+02 -0.79871168502E+01  0.50528867791E+02  0.30000024138E+02 0.  0.
        -12    1    1    2    0    0 -0.22302889671E+02 -0.33044698648E+02  0.79871168502E+01  0.40659132209E+02  0.00000000000E+00 0.  1.
         11    1    3    3    0    0  0.10857851393E+01  0.11823706436E+02  0.95270535119E+00  0.11911616641E+02  0.51100000000E-03 0. -1.
        -11    1    3    3    0    0  0.40599340128E+01  0.14506060689E+02  0.46028768438E+01  0.15751042391E+02  0.51100000000E-03 0.  1.
         12    1    3    3    0    0  0.17157170519E+02  0.67149315225E+01 -0.13542699045E+02  0.22866208759E+02  0.00000000000E+00 0. -1.
</event>
<event>
 7    1  0.2945316E-011  0.5052887E+02  0.7816164E-02  0.1300439E+00
        -11   -1    0    0    0    0  0.00000000000E+00  0.00000000000E+00  0.45593999997E+02  0.45594000000E+02  0.51100000000E-03 0.  1.
         11   -1    0    0    0    0 -0.00000000000E+00 -0.00000000000E+00 -0.45593999997E+02  0.45594000000E+02  0.51100000000E-03 0. -1.
    9900012    2    1    2    0    0  0.18755155347E+01 -0.88086779505E+01 -0.39649145170E+02  0.50528867220E+02  0.30000022401E+02 0.  0.
        -12    1    1    2    0    0 -0.18755155347E+01  0.88086779505E+01  0.39649145170E+02  0.40659132780E+02  0.00000000000E+00 0.  1.
         11    1    3    3    0    0  0.95607736295E+01 -0.99045541449E+00 -0.18972275158E+02  0.21268206771E+02  0.51100000000E-03 0. -1.
        -11    1    3    3    0    0  0.18727461455E+01 -0.45472258877E-01  0.24339210088E+01  0.30713543576E+01  0.51100000000E-03 0.  1.
         12    1    3    3    0    0 -0.95580042403E+01 -0.77727502771E+01 -0.23110791021E+02  0.26189306091E+02  0.00000000000E+00 0. -1.
</event>
<event>
 7    1  0.2945316E-011  0.5052886E+02  0.7816164E-02  0.1300439E+00
        -11   -1    0    0    0    0  0.00000000000E+00  0.00000000000E+00  0.45593999997E+02  0.45594000000E+02  0.51100000000E-03 0.  1.
         11   -1    0    0    0    0 -0.00000000000E+00 -0.00000000000E+00 -0.45593999997E+02  0.45594000000E+02  0.51100000000E-03 0. -1.
    9900012    2    1    2    0    0  0.33052638217E+01 -0.10298842675E+02 -0.39194061793E+02  0.50528863152E+02  0.30000010037E+02 0.  0.
        -12    1    1    2    0    0 -0.33052638217E+01  0.10298842675E+02  0.39194061793E+02  0.40659136848E+02  0.00000000000E+00 0.  1.
         11    1    3    3    0    0  0.12108577629E+02 -0.99978209720E+01 -0.17670922456E+02  0.23639703406E+02  0.51100000000E-03 0. -1.
        -11    1    3    3    0    0  0.34307839563E+01 -0.94381792171E+00 -0.28640756411E+01  0.45677128153E+01  0.51100000000E-03 0.  1.
        -12    1    3    3    0    0 -0.12234097764E+02  0.64279621829E+00 -0.18659063696E+02  0.22321446931E+02  0.00000000000E+00 0.  1.
</event>
<event>
 7    1  0.2945316E-011  0.5052887E+02  0.7816164E-02  0.1300439E+00
        -11   -1    0    0    0    0  0.00000000000E+00  0.00000000000E+00  0.45593999997E+02  0.45594000000E+02  0.51100000000E-03 0.  1.
         11   -1    0    0    0    0 -0.00000000000E+00 -0.00000000000E+00 -0.45593999997E+02  0.45594000000E+02  0.51100000000E-03 0. -1.
    9900012    2    1    2    0    0 -0.19256196519E+02 -0.24282174355E+02  0.26319953613E+02  0.50528867521E+02  0.30000023316E+02 0.  0.
        -12    1    1    2    0    0  0.19256196519E+02  0.24282174355E+02 -0.26319953613E+02  0.40659132479E+02  0.00000000000E+00 0.  1.
         11    1    3    3    0    0 -0.18420876730E-01 -0.10849866604E+02  0.87220485445E+00  0.10884883381E+02  0.51100000000E-03 0. -1.
        -11    1    3    3    0    0 -0.18813078343E+00 -0.40251830194E+01  0.15808141270E+02  0.16313639147E+02  0.51100000000E-03 0.  1.
         12    1    3    3    0    0 -0.19049644859E+02 -0.94071247318E+01  0.96396074878E+01  0.23330344993E+02  0.00000000000E+00 0. -1.
</event>
<event>
 7    1  0.2945316E-011  0.5052886E+02  0.7816164E-02  0.1300439E+00
        -11   -1    0    0    0    0  0.00000000000E+00  0.00000000000E+00  0.45593999997E+02  0.45594000000E+02  0.51100000000E-03 0. -1.
         11   -1    0    0    0    0 -0.00000000000E+00 -0.00000000000E+00 -0.45593999997E+02  0.45594000000E+02  0.51100000000E-03 0.  1.
    9900012    2    1    2    0    0  0.11986612297E+02 -0.37873402984E+02  0.86655794337E+01  0.50528858410E+02  0.29999995622E+02 0.  0.
        -12    1    1    2    0    0 -0.11986612297E+02  0.37873402984E+02 -0.86655794337E+01  0.40659141590E+02  0.00000000000E+00 0.  1.
         11    1    3    3    0    0  0.12820280149E+02 -0.11717458817E+02  0.62802818587E+01  0.18468902640E+02  0.51100000000E-03 0. -1.
        -11    1    3    3    0    0  0.65654056927E+01 -0.49018855070E+01 -0.33237695779E+01  0.88419725119E+01  0.51100000000E-03 0.  1.
        -12    1    3    3    0    0 -0.73990735441E+01 -0.21254058659E+02  0.57090671530E+01  0.23217983258E+02  0.00000000000E+00 0.  1.
</event>
<event>
 7    1  0.2945316E-011  0.5052886E+02  0.7816164E-02  0.1300439E+00
        -11   -1    0    0    0    0  0.00000000000E+00  0.00000000000E+00  0.45593999997E+02  0.45594000000E+02  0.51100000000E-03 0.  1.
         11   -1    0    0    0    0 -0.00000000000E+00 -0.00000000000E+00 -0.45593999997E+02  0.45594000000E+02  0.51100000000E-03 0. -1.
    9900012    2    1    2    0    0  0.12795438058E+02 -0.30695027015E+02 -0.23393536611E+02  0.50528862359E+02  0.30000007627E+02 0.  0.
        -12    1    1    2    0    0 -0.12795438058E+02  0.30695027015E+02  0.23393536611E+02  0.40659137641E+02  0.00000000000E+00 0.  1.
         11    1    3    3    0    0 -0.81203276582E+01 -0.85040134036E+01 -0.83361197214E+01  0.14413495673E+02  0.51100000000E-03 0. -1.
        -11    1    3    3    0    0  0.92365850359E+00 -0.35726296450E+01 -0.65228060334E+01  0.74942528928E+01  0.51100000000E-03 0.  1.
         12    1    3    3    0    0  0.19992107213E+02 -0.18618383966E+02 -0.85346108558E+01  0.28621113794E+02  0.00000000000E+00 0. -1.
</event>
<event>
 7    1  0.2945316E-011  0.5052885E+02  0.7816164E-02  0.1300439E+00
        -11   -1    0    0    0    0  0.00000000000E+00  0.00000000000E+00  0.45593999997E+02  0.45594000000E+02  0.51100000000E-03 0.  1.
         11   -1    0    0    0    0 -0.00000000000E+00 -0.00000000000E+00 -0.45593999997E+02  0.45594000000E+02  0.51100000000E-03 0. -1.
    9900012    2    1    2    0    0  0.12320400284E+02 -0.77981264951E+00 -0.38739719102E+02  0.50528853341E+02  0.29999980217E+02 0.  0.
        -12    1    1    2    0    0 -0.12320400284E+02  0.77981264951E+00  0.38739719102E+02  0.40659146659E+02  0.00000000000E+00 0.  1.
         11    1    3    3    0    0  0.11936217020E+02 -0.33328492009E+01 -0.91963737934E+01  0.15432253619E+02  0.51100000000E-03 0. -1.
        -11    1    3    3    0    0  0.56904825919E+01 -0.39187624903E+01 -0.24200530023E+02  0.25167517661E+02  0.51100000000E-03 0.  1.
        -12    1    3    3    0    0 -0.53062993287E+01  0.64717990417E+01 -0.53428152855E+01  0.99290820611E+01  0.00000000000E+00 0.  1.
</event>
<event>
 7    1  0.2945316E-011  0.5052886E+02  0.7816164E-02  0.1300439E+00
        -11   -1    0    0    0    0  0.00000000000E+00  0.00000000000E+00  0.45593999997E+02  0.45594000000E+02  0.51100000000E-03 0.  1.
         11   -1    0    0    0    0 -0.00000000000E+00 -0.00000000000E+00 -0.45593999997E+02  0.45594000000E+02  0.51100000000E-03 0. -1.
    9900012    2    1    2    0    0  0.87411335554E+01 -0.92608122963E+01 -0.38613412416E+02  0.50528859839E+02  0.29999999966E+02 0.  0.
        -12    1    1    2    0    0 -0.87411335554E+01  0.92608122963E+01  0.38613412416E+02  0.40659140161E+02  0.00000000000E+00 0.  1.
         11    1    3    3    0    0  0.17975563048E+01  0.37573653782E+01 -0.98445684086E+00  0.42799718208E+01  0.51100000000E-03 0. -1.
        -11    1    3    3    0    0  0.17904068238E+01  0.76748614700E+00  0.26937575619E+01  0.33242926532E+01  0.51100000000E-03 0.  1.
         12    1    3    3    0    0  0.51531704268E+01 -0.13785663822E+02 -0.40322713137E+02  0.42924595365E+02  0.00000000000E+00 0. -1.
</event>
<event>
 7    1  0.2945316E-011  0.5052886E+02  0.7816164E-02  0.1300439E+00
        -11   -1    0    0    0    0  0.00000000000E+00  0.00000000000E+00  0.45593999997E+02  0.45594000000E+02  0.51100000000E-03 0.  1.
         11   -1    0    0    0    0 -0.00000000000E+00 -0.00000000000E+00 -0.45593999997E+02  0.45594000000E+02  0.51100000000E-03 0. -1.
    9900012    2    1    2    0    0 -0.18304245787E+02  0.28491819421E+01 -0.36193949881E+02  0.50528864992E+02  0.30000015631E+02 0.  0.
        -12    1    1    2    0    0  0.18304245787E+02 -0.28491819421E+01  0.36193949881E+02  0.40659135008E+02  0.00000000000E+00 0.  1.
         11    1    3    3    0    0 -0.19121577141E+01  0.72354967305E+01 -0.19460601627E+01  0.77327815487E+01  0.51100000000E-03 0. -1.
        -11    1    3    3    0    0  0.25500139987E+01 -0.12161706482E+01 -0.16189033758E+02  0.16433698814E+02  0.51100000000E-03 0.  1.
         12    1    3    3    0    0 -0.18942102071E+02 -0.31701441403E+01 -0.18058855961E+02  0.26362384630E+02  0.00000000000E+00 0. -1.
</event>
<event>
 7    1  0.2945316E-011  0.5052881E+02  0.7816164E-02  0.1300439E+00
        -11   -1    0    0    0    0  0.00000000000E+00  0.00000000000E+00  0.45593999997E+02  0.45594000000E+02  0.51100000000E-03 0. -1.
         11   -1    0    0    0    0 -0.00000000000E+00 -0.00000000000E+00 -0.45593999997E+02  0.45594000000E+02  0.51100000000E-03 0.  1.
    9900012    2    1    2    0    0  0.26386847522E+01  0.34302767832E+01  0.40428212885E+02  0.50528808504E+02  0.29999843930E+02 0.  0.
        -12    1    1    2    0    0 -0.26386847522E+01 -0.34302767832E+01 -0.40428212885E+02  0.40659191496E+02  0.00000000000E+00 0.  1.
         11    1    3    3    0    0  0.11178430430E+02 -0.23613951685E+01  0.21366515460E+02  0.24229351563E+02  0.51100000000E-03 0. -1.
        -11    1    3    3    0    0  0.35949309846E+01  0.16803989320E+01  0.89283021483E+00  0.40674826869E+01  0.51100000000E-03 0.  1.
         12    1    3    3    0    0 -0.12134676663E+02  0.41112730197E+01  0.18168867210E+02  0.22231974254E+02  0.00000000000E+00 0. -1.
</event>
<event>
 7    1  0.2945316E-011  0.5052877E+02  0.7816164E-02  0.1300439E+00
        -11   -1    0    0    0    0  0.00000000000E+00  0.00000000000E+00  0.45593999997E+02  0.45594000000E+02  0.51100000000E-03 0.  1.
         11   -1    0    0    0    0 -0.00000000000E+00 -0.00000000000E+00 -0.45593999997E+02  0.45594000000E+02  0.51100000000E-03 0. -1.
    9900012    2    1    2    0    0  0.25183732669E+02  0.90220933038E+01 -0.30619512348E+02  0.50528768635E+02  0.29999722742E+02 0.  0.
        -12    1    1    2    0    0 -0.25183732669E+02 -0.90220933038E+01  0.30619512348E+02  0.40659231365E+02  0.00000000000E+00 0.  1.
         11    1    3    3    0    0 -0.10646910153E+01 -0.61158861693E+00  0.97901186039E-01  0.12317436819E+01  0.51100000000E-03 0. -1.
        -11    1    3    3    0    0  0.36552554046E+00 -0.70816728619E+01 -0.25047975506E+01  0.75204860530E+01  0.51100000000E-03 0.  1.
         12    1    3    3    0    0  0.25882898144E+02  0.16715354783E+02 -0.28212615984E+02  0.41776538900E+02  0.00000000000E+00 0. -1.
</event>
<event>
 7    1  0.2945316E-011  0.5052885E+02  0.7816164E-02  0.1300439E+00
        -11   -1    0    0    0    0  0.00000000000E+00  0.00000000000E+00  0.45593999997E+02  0.45594000000E+02  0.51100000000E-03 0.  1.
         11   -1    0    0    0    0 -0.00000000000E+00 -0.00000000000E+00 -0.45593999997E+02  0.45594000000E+02  0.51100000000E-03 0. -1.
    9900012    2    1    2    0    0 -0.18368250202E+02  0.17169725920E+02 -0.31952689945E+02  0.50528849759E+02  0.29999969326E+02 0.  0.
        -12    1    1    2    0    0  0.18368250202E+02 -0.17169725920E+02  0.31952689945E+02  0.40659150241E+02  0.00000000000E+00 0.  1.
         11    1    3    3    0    0 -0.19057161541E+02  0.21793455310E+02 -0.22428325211E+02  0.36621849658E+02  0.51100000000E-03 0. -1.
        -11    1    3    3    0    0 -0.23877464799E+01  0.14793857812E+01 -0.10014598855E+01  0.29820861331E+01  0.51100000000E-03 0.  1.
        -12    1    3    3    0    0  0.30766578194E+01 -0.61031151715E+01 -0.85229048487E+01  0.10924913967E+02  0.00000000000E+00 0.  1.
</event>
<event>
 7    1  0.2945316E-011  0.5052886E+02  0.7816164E-02  0.1300439E+00
        -11   -1    0    0    0    0  0.00000000000E+00  0.00000000000E+00  0.45593999997E+02  0.45594000000E+02  0.51100000000E-03 0. -1.
         11   -1    0    0    0    0 -0.00000000000E+00 -0.00000000000E+00 -0.45593999997E+02  0.45594000000E+02  0.51100000000E-03 0.  1.
    9900012    2    1    2    0    0 -0.23334154964E+02  0.10699701346E+02  0.31530923128E+02  0.50528861911E+02  0.30000006266E+02 0.  0.
        -12    1    1    2    0    0  0.23334154964E+02 -0.10699701346E+02 -0.31530923128E+02  0.40659138089E+02  0.00000000000E+00 0.  1.
         11    1    3    3    0    0  0.19472303327E+01 -0.10015673205E+01  0.19842169055E+01  0.29549890110E+01  0.51100000000E-03 0. -1.
        -11    1    3    3    0    0  0.17800073201E+01 -0.49861751873E+01  0.26037579839E+01  0.58999936405E+01  0.51100000000E-03 0.  1.
         12    1    3    3    0    0 -0.27061392617E+02  0.16687443854E+02  0.26942948239E+02  0.41673879260E+02  0.00000000000E+00 0. -1.
</event>
<event>
 7    1  0.2945316E-011  0.5052886E+02  0.7816164E-02  0.1300439E+00
        -11   -1    0    0    0    0  0.00000000000E+00  0.00000000000E+00  0.45593999997E+02  0.45594000000E+02  0.51100000000E-03 0. -1.
         11   -1    0    0    0    0 -0.00000000000E+00 -0.00000000000E+00 -0.45593999997E+02  0.45594000000E+02  0.51100000000E-03 0.  1.
    9900012    2    1    2    0    0  0.13706130018E+02  0.29786231268E+02  0.24043460398E+02  0.50528861284E+02  0.30000004359E+02 0.  0.
        -12    1    1    2    0    0 -0.13706130018E+02 -0.29786231268E+02 -0.24043460398E+02  0.40659138716E+02  0.00000000000E+00 0.  1.
         11    1    3    3    0    0 -0.12846063717E+01  0.53888976284E+00 -0.33051640858E+01  0.35867430354E+01  0.51100000000E-03 0.  1.
        -11    1    3    3    0    0 -0.19639045552E+01  0.13703355091E+02  0.45905323672E+01  0.14584644306E+02  0.51100000000E-03 0. -1.
        -12    1    3    3    0    0  0.16954640945E+02  0.15543986415E+02  0.22758092116E+02  0.32357473943E+02  0.00000000000E+00 0.  1.
</event>
<event>
 7    1  0.2945316E-011  0.5052883E+02  0.7816164E-02  0.1300439E+00
        -11   -1    0    0    0    0  0.00000000000E+00  0.00000000000E+00  0.45593999997E+02  0.45594000000E+02  0.51100000000E-03 0. -1.
         11   -1    0    0    0    0 -0.00000000000E+00 -0.00000000000E+00 -0.45593999997E+02  0.45594000000E+02  0.51100000000E-03 0.  1.
    9900012    2    1    2    0    0  0.31921648618E+02  0.19662547936E+02 -0.15734048708E+02  0.50528834605E+02  0.29999923266E+02 0.  0.
        -12    1    1    2    0    0 -0.31921648618E+02 -0.19662547936E+02  0.15734048708E+02  0.40659165395E+02  0.00000000000E+00 0.  1.
         11    1    3    3    0    0  0.10429854327E+02  0.58085489371E+00  0.41645649285E+01  0.11245570461E+02  0.51100000000E-03 0. -1.
        -11    1    3    3    0    0 -0.16321326838E+01  0.28186958467E+00  0.17794678157E+01  0.24310108039E+01  0.51100000000E-03 0.  1.
        -12    1    3    3    0    0  0.23123926975E+02  0.18799823458E+02 -0.21678081452E+02  0.36852253340E+02  0.00000000000E+00 0.  1.
</event>
<event>
 7    1  0.2945316E-011  0.5052886E+02  0.7816164E-02  0.1300439E+00
        -11   -1    0    0    0    0  0.00000000000E+00  0.00000000000E+00  0.45593999997E+02  0.45594000000E+02  0.51100000000E-03 0.  1.
         11   -1    0    0    0    0 -0.00000000000E+00 -0.00000000000E+00 -0.45593999997E+02  0.45594000000E+02  0.51100000000E-03 0. -1.
    9900012    2    1    2    0    0  0.44764396924E+01  0.40082299415E+02 -0.51513126453E+01  0.50528864979E+02  0.30000015589E+02 0.  0.
        -12    1    1    2    0    0 -0.44764396924E+01 -0.40082299415E+02  0.51513126453E+01  0.40659135021E+02  0.00000000000E+00 0.  1.
         11    1    3    3    0    0  0.66753688926E+01  0.16923611964E+02 -0.15989091744E+01  0.18262686072E+02  0.51100000000E-03 0. -1.
        -11    1    3    3    0    0 -0.68616329388E+00 -0.15342664942E+01  0.56317419751E+01  0.58771856935E+01  0.51100000000E-03 0.  1.
         12    1    3    3    0    0 -0.15127659064E+01  0.24692953945E+02 -0.91841454460E+01  0.26388993213E+02  0.00000000000E+00 0. -1.
</event>
<event>
 7    1  0.2945316E-011  0.5052886E+02  0.7816164E-02  0.1300439E+00
        -11   -1    0    0    0    0  0.00000000000E+00  0.00000000000E+00  0.45593999997E+02  0.45594000000E+02  0.51100000000E-03 0.  1.
         11   -1    0    0    0    0 -0.00000000000E+00 -0.00000000000E+00 -0.45593999997E+02  0.45594000000E+02  0.51100000000E-03 0. -1.
    9900012    2    1    2    0    0 -0.24337540850E+02 -0.26963573687E+02 -0.18270621092E+02  0.50528858399E+02  0.29999995590E+02 0.  0.
        -12    1    1    2    0    0  0.24337540850E+02  0.26963573687E+02  0.18270621092E+02  0.40659141601E+02  0.00000000000E+00 0.  1.
         11    1    3    3    0    0 -0.10685570766E+01  0.33335512809E+01 -0.13025196182E+01  0.37350951776E+01  0.51100000000E-03 0.  1.
        -11    1    3    3    0    0 -0.20896298548E+02 -0.25076208404E+02 -0.21835686756E+02  0.39271729492E+02  0.51100000000E-03 0. -1.
         12    1    3    3    0    0 -0.23726852256E+01 -0.52209165646E+01  0.48675852821E+01  0.75220337299E+01  0.00000000000E+00 0. -1.
</event>
<event>
 7    1  0.2945316E-011  0.5052886E+02  0.7816164E-02  0.1300439E+00
        -11   -1    0    0    0    0  0.00000000000E+00  0.00000000000E+00  0.45593999997E+02  0.45594000000E+02  0.51100000000E-03 0.  1.
         11   -1    0    0    0    0 -0.00000000000E+00 -0.00000000000E+00 -0.45593999997E+02  0.45594000000E+02  0.51100000000E-03 0. -1.
    9900012    2    1    2    0    0  0.37992280422E+02 -0.14077035582E+02 -0.34042985697E+01  0.50528861406E+02  0.30000004729E+02 0.  0.
        -12    1    1    2    0    0 -0.37992280422E+02  0.14077035582E+02  0.34042985697E+01  0.40659138594E+02  0.00000000000E+00 0.  1.
         11    1    3    3    0    0  0.11398376102E+02 -0.72883389267E+01  0.51579501239E+01  0.14479202734E+02  0.51100000000E-03 0. -1.
        -11    1    3    3    0    0  0.24024571769E+02 -0.23504934191E+01  0.20876235935E+01  0.24229383825E+02  0.51100000000E-03 0.  1.
        -12    1    3    3    0    0  0.25693325511E+01 -0.44382032363E+01 -0.10649872287E+02  0.11820274847E+02  0.00000000000E+00 0.  1.
</event>
<event>
 7    1  0.2945316E-011  0.5052894E+02  0.7816164E-02  0.1300439E+00
        -11   -1    0    0    0    0  0.00000000000E+00  0.00000000000E+00  0.45593999997E+02  0.45594000000E+02  0.51100000000E-03 0.  1.
         11   -1    0    0    0    0 -0.00000000000E+00 -0.00000000000E+00 -0.45593999997E+02  0.45594000000E+02  0.51100000000E-03 0. -1.
    9900012    2    1    2    0    0 -0.82858797731E+01  0.38573610206E+02 -0.98275293184E+01  0.50528935322E+02  0.30000229405E+02 0.  0.
        -12    1    1    2    0    0  0.82858797731E+01 -0.38573610206E+02  0.98275293184E+01  0.40659064678E+02  0.00000000000E+00 0.  1.
         11    1    3    3    0    0 -0.47466425471E+01  0.21948016835E+01  0.26661644086E+01  0.58699406143E+01  0.51100000000E-03 0. -1.
        -11    1    3    3    0    0  0.82563927209E+01  0.25407608172E+02 -0.67330586699E+01  0.27550837612E+02  0.51100000000E-03 0.  1.
         12    1    3    3    0    0 -0.11795629947E+02  0.10971200351E+02 -0.57606350570E+01  0.17108157096E+02  0.00000000000E+00 0. -1.
</event>
<event>
 7    1  0.2945316E-011  0.5052888E+02  0.7816164E-02  0.1300439E+00
        -11   -1    0    0    0    0  0.00000000000E+00  0.00000000000E+00  0.45593999997E+02  0.45594000000E+02  0.51100000000E-03 0.  1.
         11   -1    0    0    0    0 -0.00000000000E+00 -0.00000000000E+00 -0.45593999997E+02  0.45594000000E+02  0.51100000000E-03 0. -1.
    9900012    2    1    2    0    0  0.64861924242E+01  0.39509535976E+02 -0.70774204787E+01  0.50528880410E+02  0.30000062495E+02 0.  0.
        -12    1    1    2    0    0 -0.64861924242E+01 -0.39509535976E+02  0.70774204787E+01  0.40659119590E+02  0.00000000000E+00 0.  1.
         11    1    3    3    0    0  0.16114597793E+01  0.15288517465E+02 -0.62899455077E+01  0.16610207213E+02  0.51100000000E-03 0. -1.
        -11    1    3    3    0    0 -0.70409713241E+01  0.13356518129E+02 -0.69944454759E+01  0.16640135861E+02  0.51100000000E-03 0.  1.
         12    1    3    3    0    0  0.11915703969E+02  0.10864500382E+02  0.62069705048E+01  0.17278537336E+02  0.00000000000E+00 0. -1.
</event>
<event>
 7    1  0.2945316E-011  0.5052886E+02  0.7816164E-02  0.1300439E+00
        -11   -1    0    0    0    0  0.00000000000E+00  0.00000000000E+00  0.45593999997E+02  0.45594000000E+02  0.51100000000E-03 0.  1.
         11   -1    0    0    0    0 -0.00000000000E+00 -0.00000000000E+00 -0.45593999997E+02  0.45594000000E+02  0.51100000000E-03 0. -1.
    9900012    2    1    2    0    0 -0.67080524157E+01  0.10837509782E+02 -0.38609796628E+02  0.50528856119E+02  0.29999988660E+02 0.  0.
        -12    1    1    2    0    0  0.67080524157E+01 -0.10837509782E+02  0.38609796628E+02  0.40659143881E+02  0.00000000000E+00 0.  1.
         11    1    3    3    0    0  0.28977074349E+01 -0.12732493849E+01  0.29751034785E+01  0.43438592684E+01  0.51100000000E-03 0.  1.
        -11    1    3    3    0    0  0.13783238945E+01  0.55036337979E+01 -0.22433411574E+02  0.23139743232E+02  0.51100000000E-03 0. -1.
        -12    1    3    3    0    0 -0.10984083745E+02  0.66071253685E+01 -0.19151488532E+02  0.23045253619E+02  0.00000000000E+00 0.  1.
</event>
<event>
 7    1  0.2945316E-011  0.5052887E+02  0.7816164E-02  0.1300439E+00
        -11   -1    0    0    0    0  0.00000000000E+00  0.00000000000E+00  0.45593999997E+02  0.45594000000E+02  0.51100000000E-03 0. -1.
         11   -1    0    0    0    0 -0.00000000000E+00 -0.00000000000E+00 -0.45593999997E+02  0.45594000000E+02  0.51100000000E-03 0.  1.
    9900012    2    1    2    0    0  0.32186369941E+02 -0.81380173829E+01 -0.23472864447E+02  0.50528866926E+02  0.30000021509E+02 0.  0.
        -12    1    1    2    0    0 -0.32186369941E+02  0.81380173829E+01  0.23472864447E+02  0.40659133074E+02  0.00000000000E+00 0.  1.
         11    1    3    3    0    0  0.10716059208E+02 -0.67340176954E+01 -0.62804397756E+01  0.14128865606E+02  0.51100000000E-03 0. -1.
        -11    1    3    3    0    0 -0.75461027448E+00 -0.47869946383E+01 -0.12538488592E+02  0.13442412386E+02  0.51100000000E-03 0.  1.
         12    1    3    3    0    0  0.22224921008E+02  0.33829949508E+01 -0.46539360802E+01  0.22957588935E+02  0.00000000000E+00 0. -1.
</event>
<event>
 7    1  0.2945316E-011  0.5052886E+02  0.7816164E-02  0.1300439E+00
        -11   -1    0    0    0    0  0.00000000000E+00  0.00000000000E+00  0.45593999997E+02  0.45594000000E+02  0.51100000000E-03 0.  1.
         11   -1    0    0    0    0 -0.00000000000E+00 -0.00000000000E+00 -0.45593999997E+02  0.45594000000E+02  0.51100000000E-03 0. -1.
    9900012    2    1    2    0    0  0.90069513033E+01 -0.12133809423E+02 -0.37746666160E+02  0.50528864383E+02  0.30000013780E+02 0.  0.
        -12    1    1    2    0    0 -0.90069513033E+01  0.12133809423E+02  0.37746666160E+02  0.40659135617E+02  0.00000000000E+00 0.  1.
         11    1    3    3    0    0 -0.12471249244E+01  0.38483394966E+00 -0.23891244456E+01  0.27223764661E+01  0.51100000000E-03 0. -1.
        -11    1    3    3    0    0  0.57175785562E+01  0.55642536973E+01 -0.16396848663E+00  0.79798815580E+01  0.51100000000E-03 0.  1.
         12    1    3    3    0    0  0.45364976714E+01 -0.18082897070E+02 -0.35193573228E+02  0.39826606359E+02  0.00000000000E+00 0. -1.
</event>
<event>
 7    1  0.2945316E-011  0.5052886E+02  0.7816164E-02  0.1300439E+00
        -11   -1    0    0    0    0  0.00000000000E+00  0.00000000000E+00  0.45593999997E+02  0.45594000000E+02  0.51100000000E-03 0. -1.
         11   -1    0    0    0    0 -0.00000000000E+00 -0.00000000000E+00 -0.45593999997E+02  0.45594000000E+02  0.51100000000E-03 0.  1.
    9900012    2    1    2    0    0 -0.38965725501E+02  0.11596542337E+02  0.59829270159E+00  0.50528861887E+02  0.30000006191E+02 0.  0.
        -12    1    1    2    0    0  0.38965725501E+02 -0.11596542337E+02 -0.59829270159E+00  0.40659138113E+02  0.00000000000E+00 0.  1.
         11    1    3    3    0    0 -0.59006239807E+01 -0.36018019643E+01 -0.60726911691E+01  0.92015172145E+01  0.51100000000E-03 0. -1.
        -11    1    3    3    0    0 -0.25102757626E+02  0.18314466117E+01  0.30570689655E+01  0.25354453416E+02  0.51100000000E-03 0.  1.
         12    1    3    3    0    0 -0.79623438943E+01  0.13366897690E+02  0.36139149052E+01  0.15972891256E+02  0.00000000000E+00 0. -1.
</event>
<event>
 7    1  0.2945316E-011  0.5052887E+02  0.7816164E-02  0.1300439E+00
        -11   -1    0    0    0    0  0.00000000000E+00  0.00000000000E+00  0.45593999997E+02  0.45594000000E+02  0.51100000000E-03 0.  1.
         11   -1    0    0    0    0 -0.00000000000E+00 -0.00000000000E+00 -0.45593999997E+02  0.45594000000E+02  0.51100000000E-03 0. -1.
    9900012    2    1    2    0    0 -0.45979823820E+01  0.31337849413E+02 -0.25494368818E+02  0.50528867087E+02  0.30000021998E+02 0.  0.
        -12    1    1    2    0    0  0.45979823820E+01 -0.31337849413E+02  0.25494368818E+02  0.40659132913E+02  0.00000000000E+00 0.  1.
         11    1    3    3    0    0 -0.82624964158E+01  0.14531848247E+02 -0.14458336259E+02  0.22101740839E+02  0.51100000000E-03 0. -1.
        -11    1    3    3    0    0 -0.75169018282E+01  0.10200513884E+02 -0.25828915254E+01  0.12931574749E+02  0.51100000000E-03 0.  1.
        -12    1    3    3    0    0  0.11181415862E+02  0.66054872814E+01 -0.84531410344E+01  0.15495551499E+02  0.00000000000E+00 0.  1.
</event>
<event>
 7    1  0.2945316E-011  0.5052886E+02  0.7816164E-02  0.1300439E+00
        -11   -1    0    0    0    0  0.00000000000E+00  0.00000000000E+00  0.45593999997E+02  0.45594000000E+02  0.51100000000E-03 0.  1.
         11   -1    0    0    0    0 -0.00000000000E+00 -0.00000000000E+00 -0.45593999997E+02  0.45594000000E+02  0.51100000000E-03 0. -1.
    9900012    2    1    2    0    0  0.37600710575E+02  0.79052230949E+01 -0.13298870962E+02  0.50528856418E+02  0.29999989568E+02 0.  0.
        -12    1    1    2    0    0 -0.37600710575E+02 -0.79052230949E+01  0.13298870962E+02  0.40659143582E+02  0.00000000000E+00 0.  1.
         11    1    3    3    0    0 -0.34894463746E+01  0.26583068619E+01  0.13008989509E+01  0.45754966632E+01  0.51100000000E-03 0. -1.
        -11    1    3    3    0    0  0.73353954729E+01  0.31676350452E+01  0.20635042574E+01  0.82522717239E+01  0.51100000000E-03 0.  1.
         12    1    3    3    0    0  0.33754761477E+02  0.20792811878E+01 -0.16663274171E+02  0.37701088031E+02  0.00000000000E+00 0. -1.
</event>
<event>
 7    1  0.2945316E-011  0.5052886E+02  0.7816164E-02  0.1300439E+00
        -11   -1    0    0    0    0  0.00000000000E+00  0.00000000000E+00  0.45593999997E+02  0.45594000000E+02  0.51100000000E-03 0. -1.
         11   -1    0    0    0    0 -0.00000000000E+00 -0.00000000000E+00 -0.45593999997E+02  0.45594000000E+02  0.51100000000E-03 0.  1.
    9900012    2    1    2    0    0  0.35485231700E+02 -0.18656964095E+02 -0.67735933038E+01  0.50528861491E+02  0.30000004987E+02 0.  0.
        -12    1    1    2    0    0 -0.35485231700E+02  0.18656964095E+02  0.67735933038E+01  0.40659138509E+02  0.00000000000E+00 0.  1.
         11    1    3    3    0    0 -0.10665816486E+01  0.16886546973E+01  0.18849442497E+01  0.27463004543E+01  0.51100000000E-03 0. -1.
        -11    1    3    3    0    0  0.25154093538E+01  0.35832500436E+01  0.20295687710E+01  0.48255688524E+01  0.51100000000E-03 0.  1.
        -12    1    3    3    0    0  0.34036403995E+02 -0.23928868836E+02 -0.10688106324E+02  0.42956992184E+02  0.00000000000E+00 0.  1.
</event>
<event>
 7    1  0.2945316E-011  0.5052887E+02  0.7816164E-02  0.1300439E+00
        -11   -1    0    0    0    0  0.00000000000E+00  0.00000000000E+00  0.45593999997E+02  0.45594000000E+02  0.51100000000E-03 0.  1.
         11   -1    0    0    0    0 -0.00000000000E+00 -0.00000000000E+00 -0.45593999997E+02  0.45594000000E+02  0.51100000000E-03 0. -1.
    9900012    2    1    2    0    0 -0.41213809692E+01 -0.33662681584E+02 -0.22427728065E+02  0.50528869430E+02  0.30000029120E+02 0.  0.
        -12    1    1    2    0    0  0.41213809692E+01  0.33662681584E+02  0.22427728065E+02  0.40659130570E+02  0.00000000000E+00 0.  1.
         11    1    3    3    0    0  0.46596202065E+01 -0.11125958054E+02 -0.39723977771E+00  0.12068836017E+02  0.51100000000E-03 0. -1.
        -11    1    3    3    0    0 -0.14466114403E+00 -0.14898535488E+02 -0.15791464582E+01  0.14982689690E+02  0.51100000000E-03 0.  1.
         12    1    3    3    0    0 -0.86363400317E+01 -0.76381880415E+01 -0.20451341829E+02  0.23477343723E+02  0.00000000000E+00 0. -1.
</event>
<event>
 7    1  0.2945316E-011  0.5052886E+02  0.7816164E-02  0.1300439E+00
        -11   -1    0    0    0    0  0.00000000000E+00  0.00000000000E+00  0.45593999997E+02  0.45594000000E+02  0.51100000000E-03 0.  1.
         11   -1    0    0    0    0 -0.00000000000E+00 -0.00000000000E+00 -0.45593999997E+02  0.45594000000E+02  0.51100000000E-03 0. -1.
    9900012    2    1    2    0    0 -0.39952910137E+02  0.72123098287E+01  0.22165915084E+01  0.50528859338E+02  0.29999998442E+02 0.  0.
        -12    1    1    2    0    0  0.39952910137E+02 -0.72123098287E+01 -0.22165915084E+01  0.40659140662E+02  0.00000000000E+00 0.  1.
         11    1    3    3    0    0 -0.54071986271E+01  0.79340628418E+00  0.41067758273E+01  0.68361464643E+01  0.51100000000E-03 0. -1.
        -11    1    3    3    0    0 -0.80949055818E+01 -0.18041973703E+01  0.10473185397E+02  0.13359275323E+02  0.51100000000E-03 0.  1.
         12    1    3    3    0    0 -0.26450805928E+02  0.82231009149E+01 -0.12363369716E+02  0.30333437551E+02  0.00000000000E+00 0. -1.
</event>
<event>
 7    1  0.2945316E-011  0.5052887E+02  0.7816164E-02  0.1300439E+00
        -11   -1    0    0    0    0  0.00000000000E+00  0.00000000000E+00  0.45593999997E+02  0.45594000000E+02  0.51100000000E-03 0. -1.
         11   -1    0    0    0    0 -0.00000000000E+00 -0.00000000000E+00 -0.45593999997E+02  0.45594000000E+02  0.51100000000E-03 0.  1.
    9900012    2    1    2    0    0  0.30223147325E+01 -0.28461492991E+02  0.28878610711E+02  0.50528866633E+02  0.30000020617E+02 0.  0.
        -12    1    1    2    0    0 -0.30223147325E+01  0.28461492991E+02 -0.28878610711E+02  0.40659133367E+02  0.00000000000E+00 0.  1.
         11    1    3    3    0    0  0.13035716063E+01  0.59078843998E+00 -0.51042181869E+01  0.53010728607E+01  0.51100000000E-03 0.  1.
        -11    1    3    3    0    0  0.20258217955E+01 -0.13283338210E+02  0.20320068433E+02  0.24360956659E+02  0.51100000000E-03 0. -1.
        -12    1    3    3    0    0 -0.30707866929E+00 -0.15768943221E+02  0.13662760465E+02  0.20866837114E+02  0.00000000000E+00 0.  1.
</event>
<event>
 7    1  0.2945316E-011  0.5052887E+02  0.7816164E-02  0.1300439E+00
        -11   -1    0    0    0    0  0.00000000000E+00  0.00000000000E+00  0.45593999997E+02  0.45594000000E+02  0.51100000000E-03 0.  1.
         11   -1    0    0    0    0 -0.00000000000E+00 -0.00000000000E+00 -0.45593999997E+02  0.45594000000E+02  0.51100000000E-03 0. -1.
    9900012    2    1    2    0    0 -0.12808591125E+02  0.25319975149E+02 -0.29120504943E+02  0.50528868722E+02  0.30000026967E+02 0.  0.
        -12    1    1    2    0    0  0.12808591125E+02 -0.25319975149E+02  0.29120504943E+02  0.40659131278E+02  0.00000000000E+00 0.  1.
         11    1    3    3    0    0 -0.10071925219E+02  0.11653627413E+02 -0.11122513613E+02  0.18998974153E+02  0.51100000000E-03 0. -1.
        -11    1    3    3    0    0 -0.58452379837E+01  0.13885735138E+02 -0.19610337878E+01  0.15192962226E+02  0.51100000000E-03 0.  1.
         12    1    3    3    0    0  0.31085720782E+01 -0.21938740263E+00 -0.16036957542E+02  0.16336932344E+02  0.00000000000E+00 0. -1.
</event>
<event>
 7    1  0.2945316E-011  0.5052883E+02  0.7816164E-02  0.1300439E+00
        -11   -1    0    0    0    0  0.00000000000E+00  0.00000000000E+00  0.45593999997E+02  0.45594000000E+02  0.51100000000E-03 0. -1.
         11   -1    0    0    0    0 -0.00000000000E+00 -0.00000000000E+00 -0.45593999997E+02  0.45594000000E+02  0.51100000000E-03 0.  1.
    9900012    2    1    2    0    0  0.17054566989E+02 -0.27653817056E+02 -0.24445370993E+02  0.50528831097E+02  0.29999912601E+02 0.  0.
        -12    1    1    2    0    0 -0.17054566989E+02  0.27653817056E+02  0.24445370993E+02  0.40659168903E+02  0.00000000000E+00 0.  1.
         11    1    3    3    0    0  0.91538868147E-01  0.10165634292E+01  0.45401064681E+00  0.11170973541E+01  0.51100000000E-03 0. -1.
        -11    1    3    3    0    0 -0.75720570174E+00  0.38898432358E+01 -0.74542075103E+01  0.84421235919E+01  0.51100000000E-03 0.  1.
         12    1    3    3    0    0  0.17720233823E+02 -0.32560223721E+02 -0.17445174129E+02  0.40969610151E+02  0.00000000000E+00 0. -1.
</event>
<event>
 7    1  0.2945316E-011  0.5052885E+02  0.7816164E-02  0.1300439E+00
        -11   -1    0    0    0    0  0.00000000000E+00  0.00000000000E+00  0.45593999997E+02  0.45594000000E+02  0.51100000000E-03 0.  1.
         11   -1    0    0    0    0 -0.00000000000E+00 -0.00000000000E+00 -0.45593999997E+02  0.45594000000E+02  0.51100000000E-03 0. -1.
    9900012    2    1    2    0    0 -0.50082901513E+01  0.11191320126E+02 -0.38766448019E+02  0.50528854554E+02  0.29999983902E+02 0.  0.
        -12    1    1    2    0    0  0.50082901513E+01 -0.11191320126E+02  0.38766448019E+02  0.40659145446E+02  0.00000000000E+00 0.  1.
         11    1    3    3    0    0  0.60306148255E+01  0.10266577678E+02 -0.18720626691E+02  0.22186320027E+02  0.51100000000E-03 0. -1.
        -11    1    3    3    0    0 -0.78783217477E+00 -0.65850591499E+01 -0.35586256654E+01  0.75264533767E+01  0.51100000000E-03 0.  1.
         12    1    3    3    0    0 -0.10251072802E+02  0.75098015983E+01 -0.16487195663E+02  0.20816081150E+02  0.00000000000E+00 0. -1.
</event>
<event>
 7    1  0.2945316E-011  0.5052886E+02  0.7816164E-02  0.1300439E+00
        -11   -1    0    0    0    0  0.00000000000E+00  0.00000000000E+00  0.45593999997E+02  0.45594000000E+02  0.51100000000E-03 0. -1.
         11   -1    0    0    0    0 -0.00000000000E+00 -0.00000000000E+00 -0.45593999997E+02  0.45594000000E+02  0.51100000000E-03 0.  1.
    9900012    2    1    2    0    0  0.35423415770E+01 -0.10238793603E+02  0.39189084055E+02  0.50528863421E+02  0.30000010855E+02 0.  0.
        -12    1    1    2    0    0 -0.35423415770E+01  0.10238793603E+02 -0.39189084055E+02  0.40659136579E+02  0.00000000000E+00 0.  1.
         11    1    3    3    0    0  0.81552923987E+01 -0.31324527958E+01  0.24979496155E+02  0.26463111741E+02  0.51100000000E-03 0. -1.
        -11    1    3    3    0    0 -0.12046306490E+01 -0.12177092829E+02  0.54729421756E+01  0.13404693994E+02  0.51100000000E-03 0.  1.
         12    1    3    3    0    0 -0.34083201726E+01  0.50707520218E+01  0.87366457243E+01  0.10661057686E+02  0.00000000000E+00 0. -1.
</event>
<event>
 7    1  0.2945316E-011  0.5052884E+02  0.7816164E-02  0.1300439E+00
        -11   -1    0    0    0    0  0.00000000000E+00  0.00000000000E+00  0.45593999997E+02  0.45594000000E+02  0.51100000000E-03 0.  1.
         11   -1    0    0    0    0 -0.00000000000E+00 -0.00000000000E+00 -0.45593999997E+02  0.45594000000E+02  0.51100000000E-03 0. -1.
    9900012    2    1    2    0    0 -0.34067021748E+02 -0.19387947871E+02 -0.10803353966E+02  0.50528844201E+02  0.29999952432E+02 0.  0.
        -12    1    1    2    0    0  0.34067021748E+02  0.19387947871E+02  0.10803353966E+02  0.40659155799E+02  0.00000000000E+00 0.  1.
         11    1    3    3    0    0 -0.14299285473E+02 -0.15767998048E+01 -0.95211514058E+01  0.17251324210E+02  0.51100000000E-03 0. -1.
        -11    1    3    3    0    0 -0.69528748237E+00  0.29388527619E+01 -0.39450913639E+01  0.49683021617E+01  0.51100000000E-03 0.  1.
         12    1    3    3    0    0 -0.19072448793E+02 -0.20750000828E+02  0.26628888034E+01  0.28309217829E+02  0.00000000000E+00 0. -1.
</event>
<event>
 7    1  0.2945316E-011  0.5052881E+02  0.7816164E-02  0.1300439E+00
        -11   -1    0    0    0    0  0.00000000000E+00  0.00000000000E+00  0.45593999997E+02  0.45594000000E+02  0.51100000000E-03 0. -1.
         11   -1    0    0    0    0 -0.00000000000E+00 -0.00000000000E+00 -0.45593999997E+02  0.45594000000E+02  0.51100000000E-03 0.  1.
    9900012    2    1    2    0    0 -0.18267830870E+02 -0.30996385097E+01  0.36191830227E+02  0.50528806959E+02  0.29999839233E+02 0.  0.
        -12    1    1    2    0    0  0.18267830870E+02  0.30996385097E+01 -0.36191830227E+02  0.40659193041E+02  0.00000000000E+00 0.  1.
         11    1    3    3    0    0 -0.45772898148E+01  0.64584231311E+01  0.53177257159E+01  0.95363000393E+01  0.51100000000E-03 0. -1.
        -11    1    3    3    0    0 -0.38232558164E+01 -0.81544035231E+00 -0.28140199108E+01  0.48167350275E+01  0.51100000000E-03 0.  1.
        -12    1    3    3    0    0 -0.98672852384E+01 -0.87426212884E+01  0.33688124422E+02  0.36175771892E+02  0.00000000000E+00 0.  1.
</event>
<event>
 7    1  0.2945316E-011  0.5052882E+02  0.7816164E-02  0.1300439E+00
        -11   -1    0    0    0    0  0.00000000000E+00  0.00000000000E+00  0.45593999997E+02  0.45594000000E+02  0.51100000000E-03 0. -1.
         11   -1    0    0    0    0 -0.00000000000E+00 -0.00000000000E+00 -0.45593999997E+02  0.45594000000E+02  0.51100000000E-03 0.  1.
    9900012    2    1    2    0    0 -0.36186156483E+01  0.66460796085E+01  0.39948766663E+02  0.50528822545E+02  0.29999886609E+02 0.  0.
        -12    1    1    2    0    0  0.36186156483E+01 -0.66460796085E+01 -0.39948766663E+02  0.40659177455E+02  0.00000000000E+00 0.  1.
         11    1    3    3    0    0 -0.28367673049E+01 -0.13894812103E+01  0.40284829810E+01  0.51192364826E+01  0.51100000000E-03 0. -1.
        -11    1    3    3    0    0 -0.11540774545E+02  0.11678476754E+02  0.21554956727E+02  0.27095985979E+02  0.51100000000E-03 0.  1.
         12    1    3    3    0    0  0.10758926201E+02 -0.36429159354E+01  0.14365326955E+02  0.18313600084E+02  0.00000000000E+00 0. -1.
</event>
<event>
 7    1  0.2945316E-011  0.5052887E+02  0.7816164E-02  0.1300439E+00
        -11   -1    0    0    0    0  0.00000000000E+00  0.00000000000E+00  0.45593999997E+02  0.45594000000E+02  0.51100000000E-03 0. -1.
         11   -1    0    0    0    0 -0.00000000000E+00 -0.00000000000E+00 -0.45593999997E+02  0.45594000000E+02  0.51100000000E-03 0.  1.
    9900012    2    1    2    0    0 -0.34410730822E+02  0.16112897542E+02  0.14472084289E+02  0.50528867120E+02  0.30000022097E+02 0.  0.
        -12    1    1    2    0    0  0.34410730822E+02 -0.16112897542E+02 -0.14472084289E+02  0.40659132880E+02  0.00000000000E+00 0.  1.
         11    1    3    3    0    0 -0.30109402291E+01  0.34314500713E+01  0.10261948831E+02  0.11231571783E+02  0.51100000000E-03 0.  1.
        -11    1    3    3    0    0 -0.15258626275E+02  0.16797854852E+01  0.10701753281E+02  0.18712960178E+02  0.51100000000E-03 0. -1.
         12    1    3    3    0    0 -0.16141164318E+02  0.11001661985E+02 -0.64916178221E+01  0.20584335159E+02  0.00000000000E+00 0. -1.
</event>
