<event>
 7    1  0.3565621E-013  0.7246175E+02  0.7816164E-02  0.1226708E+00
        -11   -1    0    0    0    0  0.00000000000E+00  0.00000000000E+00  0.45593999997E+02  0.45594000000E+02  0.51100000000E-03 0.  1.
         11   -1    0    0    0    0 -0.00000000000E+00 -0.00000000000E+00 -0.45593999997E+02  0.45594000000E+02  0.51100000000E-03 0. -1.
    9900012    2    1    2    0    0 -0.18719027919E+02 -0.48838824365E+00  0.17829517357E+00  0.72461753220E+02  0.70000238294E+02 0.  0.
        -12    1    1    2    0    0  0.18719027919E+02  0.48838824365E+00 -0.17829517357E+00  0.18726246780E+02  0.00000000000E+00 0.  1.
         11    1    3    3    0    0 -0.19526983971E+01 -0.13835911750E+02 -0.18615238378E+02  0.23276008788E+02  0.51100000000E-03 0. -1.
        -11    1    3    3    0    0 -0.75073261025E+01  0.94897553224E+01 -0.11853661641E+02  0.16938851669E+02  0.51100000000E-03 0.  1.
        -12    1    3    3    0    0 -0.92590034193E+01  0.38577681843E+01  0.30647195193E+02  0.32246892763E+02  0.00000000000E+00 0.  1.
</event>
<event>
 7    1  0.2655561E-013  0.7246156E+02  0.7816164E-02  0.1226708E+00
        -11   -1    0    0    0    0  0.00000000000E+00  0.00000000000E+00  0.45593999997E+02  0.45594000000E+02  0.51100000000E-03 0. -1.
         11   -1    0    0    0    0 -0.00000000000E+00 -0.00000000000E+00 -0.45593999997E+02  0.45594000000E+02  0.51100000000E-03 0.  1.
    9900012    2    1    2    0    0 -0.13776573043E+01 -0.59480812220E+01  0.17703166612E+02  0.72461555651E+02  0.69999980924E+02 0.  0.
        -12    1    1    2    0    0  0.13776573043E+01  0.59480812220E+01 -0.17703166612E+02  0.18726444349E+02  0.00000000000E+00 0.  1.
         11    1    3    3    0    0 -0.30615458253E+02 -0.10551579012E+02  0.23473431880E+02  0.39995551105E+02  0.51100000000E-03 0. -1.
        -11    1    3    3    0    0  0.45319041731E+00 -0.73367106500E+00  0.19992612145E+01  0.21773149636E+01  0.51100000000E-03 0.  1.
        -12    1    3    3    0    0  0.28784610532E+02  0.53371688553E+01 -0.77695264824E+01  0.30288689582E+02  0.00000000000E+00 0.  1.
</event>
<event>
 7    1  0.2655561E-013  0.7246163E+02  0.7816164E-02  0.1226708E+00
        -11   -1    0    0    0    0  0.00000000000E+00  0.00000000000E+00  0.45593999997E+02  0.45594000000E+02  0.51100000000E-03 0.  1.
         11   -1    0    0    0    0 -0.00000000000E+00 -0.00000000000E+00 -0.45593999997E+02  0.45594000000E+02  0.51100000000E-03 0. -1.
    9900012    2    1    2    0    0  0.16553669754E+02 -0.72214830581E+01 -0.49500778469E+01  0.72461626337E+02  0.70000073006E+02 0.  0.
        -12    1    1    2    0    0 -0.16553669754E+02  0.72214830581E+01  0.49500778469E+01  0.18726373663E+02  0.00000000000E+00 0.  1.
         11    1    3    3    0    0  0.38863780821E+01 -0.24755765499E+02  0.11546173900E+01  0.25085553643E+02  0.51100000000E-03 0. -1.
        -11    1    3    3    0    0  0.15550981366E+01 -0.51513585691E+00  0.16388203295E+02  0.16469878647E+02  0.51100000000E-03 0.  1.
         12    1    3    3    0    0  0.11112193535E+02  0.18049418297E+02 -0.22492898532E+02  0.30906194046E+02  0.00000000000E+00 0. -1.
</event>
<event>
 7    1  0.2655561E-013  0.7246158E+02  0.7816164E-02  0.1226708E+00
        -11   -1    0    0    0    0  0.00000000000E+00  0.00000000000E+00  0.45593999997E+02  0.45594000000E+02  0.51100000000E-03 0.  1.
         11   -1    0    0    0    0 -0.00000000000E+00 -0.00000000000E+00 -0.45593999997E+02  0.45594000000E+02  0.51100000000E-03 0. -1.
    9900012    2    1    2    0    0 -0.45949226729E+01  0.40486344335E+00 -0.18149424657E+02  0.72461578982E+02  0.70000011317E+02 0.  0.
        -12    1    1    2    0    0  0.45949226729E+01 -0.40486344335E+00  0.18149424657E+02  0.18726421018E+02  0.00000000000E+00 0.  1.
         11    1    3    3    0    0  0.15119352184E+02  0.68898487460E+01 -0.61231041413E+01  0.17707547284E+02  0.51100000000E-03 0. -1.
        -11    1    3    3    0    0  0.14923669002E+02  0.66324196217E+01 -0.26222047283E+01  0.16540279454E+02  0.51100000000E-03 0.  1.
        -12    1    3    3    0    0 -0.34637943860E+02 -0.13117404924E+02 -0.94041157874E+01  0.38213752244E+02  0.00000000000E+00 0.  1.
</event>
<event>
 7    1  0.2655561E-013  0.7246155E+02  0.7816164E-02  0.1226708E+00
        -11   -1    0    0    0    0  0.00000000000E+00  0.00000000000E+00  0.45593999997E+02  0.45594000000E+02  0.51100000000E-03 0. -1.
         11   -1    0    0    0    0 -0.00000000000E+00 -0.00000000000E+00 -0.45593999997E+02  0.45594000000E+02  0.51100000000E-03 0.  1.
    9900012    2    1    2    0    0  0.65672290648E+01  0.12770739975E+02  0.12019132062E+02  0.72461552589E+02  0.69999976936E+02 0.  0.
        -12    1    1    2    0    0 -0.65672290648E+01 -0.12770739975E+02 -0.12019132062E+02  0.18726447411E+02  0.00000000000E+00 0.  1.
         11    1    3    3    0    0  0.12121851778E+00  0.94231169647E+01  0.41588383378E+01  0.10300765207E+02  0.51100000000E-03 0. -1.
        -11    1    3    3    0    0 -0.67574273624E+01 -0.20298838461E+02  0.22770952977E+02  0.31244551000E+02  0.51100000000E-03 0.  1.
         12    1    3    3    0    0  0.13203437909E+02  0.23646461471E+02 -0.14910659253E+02  0.30916236383E+02  0.00000000000E+00 0. -1.
</event>
<event>
 7    1  0.2655561E-013  0.7246166E+02  0.7816164E-02  0.1226708E+00
        -11   -1    0    0    0    0  0.00000000000E+00  0.00000000000E+00  0.45593999997E+02  0.45594000000E+02  0.51100000000E-03 0.  1.
         11   -1    0    0    0    0 -0.00000000000E+00 -0.00000000000E+00 -0.45593999997E+02  0.45594000000E+02  0.51100000000E-03 0. -1.
    9900012    2    1    2    0    0 -0.15074425763E+02 -0.30412968481E+01 -0.10685879504E+02  0.72461659745E+02  0.70000116525E+02 0.  0.
        -12    1    1    2    0    0  0.15074425763E+02  0.30412968481E+01  0.10685879504E+02  0.18726340255E+02  0.00000000000E+00 0.  1.
         11    1    3    3    0    0 -0.99579454477E+01  0.16461462575E+02  0.99481075738E+01  0.21658838201E+02  0.51100000000E-03 0. -1.
        -11    1    3    3    0    0 -0.23625885403E+01 -0.18615587030E+02  0.91512200715E+01  0.20877421636E+02  0.51100000000E-03 0.  1.
        -12    1    3    3    0    0 -0.27538917748E+01 -0.88717239241E+00 -0.29785207149E+02  0.29925399908E+02  0.00000000000E+00 0.  1.
</event>
<event>
 7    1  0.2808877E-013  0.7246152E+02  0.7816164E-02  0.1226708E+00
        -11   -1    0    0    0    0  0.00000000000E+00  0.00000000000E+00  0.45593999997E+02  0.45594000000E+02  0.51100000000E-03 0. -1.
         11   -1    0    0    0    0 -0.00000000000E+00 -0.00000000000E+00 -0.45593999997E+02  0.45594000000E+02  0.51100000000E-03 0.  1.
    9900012    2    1    2    0    0 -0.23463957601E+01  0.12879230893E+02  0.13390322694E+02  0.72461524002E+02  0.69999939696E+02 0.  0.
        -12    1    1    2    0    0  0.23463957601E+01 -0.12879230893E+02 -0.13390322694E+02  0.18726475998E+02  0.00000000000E+00 0.  1.
         11    1    3    3    0    0 -0.13588318762E+02  0.79950339452E+01  0.20929427527E+02  0.26203127894E+02  0.51100000000E-03 0. -1.
        -11    1    3    3    0    0  0.13143073942E+02  0.21990364812E+02  0.34320979533E+01  0.25847549862E+02  0.51100000000E-03 0.  1.
        -12    1    3    3    0    0 -0.19011509396E+01 -0.17106167865E+02 -0.10971202786E+02  0.20410846247E+02  0.00000000000E+00 0.  1.
</event>
<event>
 7    1  0.2655561E-013  0.7246156E+02  0.7816164E-02  0.1226708E+00
        -11   -1    0    0    0    0  0.00000000000E+00  0.00000000000E+00  0.45593999997E+02  0.45594000000E+02  0.51100000000E-03 0. -1.
         11   -1    0    0    0    0 -0.00000000000E+00 -0.00000000000E+00 -0.45593999997E+02  0.45594000000E+02  0.51100000000E-03 0.  1.
    9900012    2    1    2    0    0  0.57822422325E+01 -0.91140514489E+01  0.15302922080E+02  0.72461556578E+02  0.69999982132E+02 0.  0.
        -12    1    1    2    0    0 -0.57822422325E+01  0.91140514489E+01 -0.15302922080E+02  0.18726443422E+02  0.00000000000E+00 0.  1.
         11    1    3    3    0    0  0.85714727127E+01 -0.10125246526E+02  0.29526786767E+02  0.32370077212E+02  0.51100000000E-03 0. -1.
        -11    1    3    3    0    0  0.12388196818E+01  0.13248307958E+02  0.71723799340E+01  0.15116063381E+02  0.51100000000E-03 0.  1.
         12    1    3    3    0    0 -0.40280501620E+01 -0.12237112881E+02 -0.21396244621E+02  0.24975415986E+02  0.00000000000E+00 0. -1.
</event>
<event>
 7    1  0.2655561E-013  0.7246158E+02  0.7816164E-02  0.1226708E+00
        -11   -1    0    0    0    0  0.00000000000E+00  0.00000000000E+00  0.45593999997E+02  0.45594000000E+02  0.51100000000E-03 0. -1.
         11   -1    0    0    0    0 -0.00000000000E+00 -0.00000000000E+00 -0.45593999997E+02  0.45594000000E+02  0.51100000000E-03 0.  1.
    9900012    2    1    2    0    0 -0.58330852319E+01  0.16066449277E+02  0.76500416452E+01  0.72461579817E+02  0.70000012406E+02 0.  0.
        -12    1    1    2    0    0  0.58330852319E+01 -0.16066449277E+02 -0.76500416452E+01  0.18726420183E+02  0.00000000000E+00 0.  1.
         11    1    3    3    0    0  0.40113716139E+01  0.17210964194E+02  0.28097463501E+02  0.33193008995E+02  0.51100000000E-03 0. -1.
        -11    1    3    3    0    0  0.29659110035E+01  0.91552984109E+01  0.34846804471E+01  0.10235190040E+02  0.51100000000E-03 0.  1.
        -12    1    3    3    0    0 -0.12810367849E+02 -0.10299813328E+02 -0.23932102303E+02  0.29033380782E+02  0.00000000000E+00 0.  1.
</event>
<event>
 7    1  0.2655561E-013  0.7246157E+02  0.7816164E-02  0.1226708E+00
        -11   -1    0    0    0    0  0.00000000000E+00  0.00000000000E+00  0.45593999997E+02  0.45594000000E+02  0.51100000000E-03 0. -1.
         11   -1    0    0    0    0 -0.00000000000E+00 -0.00000000000E+00 -0.45593999997E+02  0.45594000000E+02  0.51100000000E-03 0.  1.
    9900012    2    1    2    0    0 -0.12340427427E+01  0.81533920529E+00  0.18667924222E+02  0.72461573906E+02  0.70000004705E+02 0.  0.
        -12    1    1    2    0    0  0.12340427427E+01 -0.81533920529E+00 -0.18667924222E+02  0.18726426094E+02  0.00000000000E+00 0.  1.
         11    1    3    3    0    0 -0.37076518461E+01  0.45051395471E+01  0.70115072237E+01  0.91216335357E+01  0.51100000000E-03 0. -1.
        -11    1    3    3    0    0 -0.22512096017E+02  0.10693482025E+02 -0.10435070977E+02  0.27019173405E+02  0.51100000000E-03 0.  1.
         12    1    3    3    0    0  0.24985705121E+02 -0.14383282367E+02  0.22091487975E+02  0.36320766966E+02  0.00000000000E+00 0. -1.
</event>
<event>
 7    1  0.2655561E-013  0.7246163E+02  0.7816164E-02  0.1226708E+00
        -11   -1    0    0    0    0  0.00000000000E+00  0.00000000000E+00  0.45593999997E+02  0.45594000000E+02  0.51100000000E-03 0.  1.
         11   -1    0    0    0    0 -0.00000000000E+00 -0.00000000000E+00 -0.45593999997E+02  0.45594000000E+02  0.51100000000E-03 0. -1.
    9900012    2    1    2    0    0  0.12367166484E+02 -0.89293551836E+00  0.14033271253E+02  0.72461632420E+02  0.70000080930E+02 0.  0.
        -12    1    1    2    0    0 -0.12367166484E+02  0.89293551836E+00 -0.14033271253E+02  0.18726367580E+02  0.00000000000E+00 0.  1.
         11    1    3    3    0    0  0.28599565091E+01 -0.99876498453E+01  0.47640968634E+01  0.11429309684E+02  0.51100000000E-03 0. -1.
        -11    1    3    3    0    0  0.95255188379E+01  0.85610808344E+01  0.33981167806E+02  0.36314561540E+02  0.51100000000E-03 0.  1.
         12    1    3    3    0    0 -0.18308862689E-01  0.53363349250E+00 -0.24711993416E+02  0.24717761195E+02  0.00000000000E+00 0. -1.
</event>
<event>
 7    1  0.2655561E-013  0.7246150E+02  0.7816164E-02  0.1226708E+00
        -11   -1    0    0    0    0  0.00000000000E+00  0.00000000000E+00  0.45593999997E+02  0.45594000000E+02  0.51100000000E-03 0. -1.
         11   -1    0    0    0    0 -0.00000000000E+00 -0.00000000000E+00 -0.45593999997E+02  0.45594000000E+02  0.51100000000E-03 0.  1.
    9900012    2    1    2    0    0  0.38532764016E+00 -0.93746963150E+01  0.16206425352E+02  0.72461504570E+02  0.69999914382E+02 0.  0.
        -12    1    1    2    0    0 -0.38532764016E+00  0.93746963150E+01 -0.16206425352E+02  0.18726495430E+02  0.00000000000E+00 0.  1.
         11    1    3    3    0    0 -0.21824574035E+02 -0.74916334215E+01  0.77090958696E+01  0.24328311953E+02  0.51100000000E-03 0. -1.
        -11    1    3    3    0    0 -0.46924185304E+01 -0.16214995155E+02  0.36115484125E+01  0.17262333033E+02  0.51100000000E-03 0.  1.
         12    1    3    3    0    0  0.26902320205E+02  0.14331932261E+02  0.48857810703E+01  0.30870859584E+02  0.00000000000E+00 0. -1.
</event>
<event>
 7    1  0.2655561E-013  0.7246154E+02  0.7816164E-02  0.1226708E+00
        -11   -1    0    0    0    0  0.00000000000E+00  0.00000000000E+00  0.45593999997E+02  0.45594000000E+02  0.51100000000E-03 0. -1.
         11   -1    0    0    0    0 -0.00000000000E+00 -0.00000000000E+00 -0.45593999997E+02  0.45594000000E+02  0.51100000000E-03 0.  1.
    9900012    2    1    2    0    0  0.16853870244E+02  0.51171583564E+01 -0.63593936879E+01  0.72461544384E+02  0.69999966247E+02 0.  0.
        -12    1    1    2    0    0 -0.16853870244E+02 -0.51171583564E+01  0.63593936879E+01  0.18726455616E+02  0.00000000000E+00 0.  1.
         11    1    3    3    0    0  0.11659671214E+02  0.96222355284E+01  0.16443072362E+02  0.22336292852E+02  0.51100000000E-03 0. -1.
        -11    1    3    3    0    0  0.85346648544E+01  0.60160233300E+01  0.10640151574E+02  0.14907912887E+02  0.51100000000E-03 0.  1.
        -12    1    3    3    0    0 -0.33404658245E+01 -0.10521100502E+02 -0.33442617624E+02  0.35217338645E+02  0.00000000000E+00 0.  1.
</event>
<event>
 7    1  0.2655561E-013  0.7246157E+02  0.7816164E-02  0.1226708E+00
        -11   -1    0    0    0    0  0.00000000000E+00  0.00000000000E+00  0.45593999997E+02  0.45594000000E+02  0.51100000000E-03 0.  1.
         11   -1    0    0    0    0 -0.00000000000E+00 -0.00000000000E+00 -0.45593999997E+02  0.45594000000E+02  0.51100000000E-03 0. -1.
    9900012    2    1    2    0    0  0.16653774341E+02 -0.46381426435E+01 -0.71985210133E+01  0.72461567565E+02  0.69999996444E+02 0.  0.
        -12    1    1    2    0    0 -0.16653774341E+02  0.46381426435E+01  0.71985210133E+01  0.18726432435E+02  0.00000000000E+00 0.  1.
         11    1    3    3    0    0  0.29631554691E+01  0.72939457843E+01 -0.13895613080E+01  0.79945491636E+01  0.51100000000E-03 0. -1.
        -11    1    3    3    0    0  0.10093799938E+02  0.15558877429E+02  0.19511466679E+02  0.26919524444E+02  0.51100000000E-03 0.  1.
         12    1    3    3    0    0  0.35968189334E+01 -0.27490965856E+02 -0.25320426385E+02  0.37547493957E+02  0.00000000000E+00 0. -1.
</event>
<event>
 7    1  0.2655561E-013  0.7246151E+02  0.7816164E-02  0.1226708E+00
        -11   -1    0    0    0    0  0.00000000000E+00  0.00000000000E+00  0.45593999997E+02  0.45594000000E+02  0.51100000000E-03 0.  1.
         11   -1    0    0    0    0 -0.00000000000E+00 -0.00000000000E+00 -0.45593999997E+02  0.45594000000E+02  0.51100000000E-03 0. -1.
    9900012    2    1    2    0    0  0.52433842964E+01  0.59749256753E+01 -0.16955485600E+02  0.72461513206E+02  0.69999925632E+02 0.  0.
        -12    1    1    2    0    0 -0.52433842964E+01 -0.59749256753E+01  0.16955485600E+02  0.18726486794E+02  0.00000000000E+00 0.  1.
         11    1    3    3    0    0  0.10200835280E+02  0.41959330480E+01 -0.28487633980E+02  0.30548456337E+02  0.51100000000E-03 0. -1.
        -11    1    3    3    0    0 -0.72857435717E+01 -0.94033995180E+00 -0.14170927124E+02  0.15961875655E+02  0.51100000000E-03 0.  1.
        -12    1    3    3    0    0  0.23282925880E+01  0.27193325791E+01  0.25703075504E+02  0.25951181214E+02  0.00000000000E+00 0.  1.
</event>
<event>
 7    1  0.2655561E-013  0.7246137E+02  0.7816164E-02  0.1226709E+00
        -11   -1    0    0    0    0  0.00000000000E+00  0.00000000000E+00  0.45593999997E+02  0.45594000000E+02  0.51100000000E-03 0. -1.
         11   -1    0    0    0    0 -0.00000000000E+00 -0.00000000000E+00 -0.45593999997E+02  0.45594000000E+02  0.51100000000E-03 0.  1.
    9900012    2    1    2    0    0 -0.18114039825E+02 -0.45931409571E+01  0.12129926253E+01  0.72461368329E+02  0.69999736902E+02 0.  0.
        -12    1    1    2    0    0  0.18114039825E+02  0.45931409571E+01 -0.12129926253E+01  0.18726631671E+02  0.00000000000E+00 0.  1.
         11    1    3    3    0    0  0.57782355873E+01 -0.15627957625E+02  0.24924940574E+01  0.16847361601E+02  0.51100000000E-03 0. -1.
        -11    1    3    3    0    0  0.34691251143E+01 -0.15693449619E+02  0.50436210951E+01  0.16845097329E+02  0.51100000000E-03 0.  1.
        -12    1    3    3    0    0 -0.27361400527E+02  0.26728266287E+02 -0.63231225272E+01  0.38768909399E+02  0.00000000000E+00 0.  1.
</event>
<event>
 7    1  0.2655561E-013  0.7246160E+02  0.7816164E-02  0.1226708E+00
        -11   -1    0    0    0    0  0.00000000000E+00  0.00000000000E+00  0.45593999997E+02  0.45594000000E+02  0.51100000000E-03 0. -1.
         11   -1    0    0    0    0 -0.00000000000E+00 -0.00000000000E+00 -0.45593999997E+02  0.45594000000E+02  0.51100000000E-03 0.  1.
    9900012    2    1    2    0    0 -0.13305091553E+02  0.60655645700E+01  0.11698783842E+02  0.72461599434E+02  0.70000037960E+02 0.  0.
        -12    1    1    2    0    0  0.13305091553E+02 -0.60655645700E+01 -0.11698783842E+02  0.18726400566E+02  0.00000000000E+00 0.  1.
         11    1    3    3    0    0 -0.78275706910E+01  0.36692125424E+01 -0.19379688310E+02  0.21220421835E+02  0.51100000000E-03 0. -1.
        -11    1    3    3    0    0 -0.16631201871E+01  0.11428412521E+01 -0.98812200377E+01  0.10085165570E+02  0.51100000000E-03 0.  1.
         12    1    3    3    0    0 -0.38144006748E+01  0.12535107755E+01  0.40959692190E+02  0.41156012028E+02  0.00000000000E+00 0. -1.
</event>
<event>
 7    1  0.2655561E-013  0.7246158E+02  0.7816164E-02  0.1226708E+00
        -11   -1    0    0    0    0  0.00000000000E+00  0.00000000000E+00  0.45593999997E+02  0.45594000000E+02  0.51100000000E-03 0.  1.
         11   -1    0    0    0    0 -0.00000000000E+00 -0.00000000000E+00 -0.45593999997E+02  0.45594000000E+02  0.51100000000E-03 0. -1.
    9900012    2    1    2    0    0 -0.16495081648E+02  0.81100785196E+01 -0.35801589775E+01  0.72461584687E+02  0.70000018749E+02 0.  0.
        -12    1    1    2    0    0  0.16495081648E+02 -0.81100785196E+01  0.35801589775E+01  0.18726415313E+02  0.00000000000E+00 0.  1.
         11    1    3    3    0    0  0.10071241549E+01  0.22689392593E+02  0.22698808230E+02  0.32110103248E+02  0.51100000000E-03 0. -1.
        -11    1    3    3    0    0 -0.26733584793E+01 -0.30075838924E+01  0.33636874359E+01  0.52446925416E+01  0.51100000000E-03 0.  1.
        -12    1    3    3    0    0 -0.14828847324E+02 -0.11571730181E+02 -0.29642654643E+02  0.35106788897E+02  0.00000000000E+00 0.  1.
</event>
<event>
 7    1  0.2655561E-013  0.7246159E+02  0.7816164E-02  0.1226708E+00
        -11   -1    0    0    0    0  0.00000000000E+00  0.00000000000E+00  0.45593999997E+02  0.45594000000E+02  0.51100000000E-03 0. -1.
         11   -1    0    0    0    0 -0.00000000000E+00 -0.00000000000E+00 -0.45593999997E+02  0.45594000000E+02  0.51100000000E-03 0.  1.
    9900012    2    1    2    0    0  0.83904169818E+00  0.93502409743E+01  0.16203309903E+02  0.72461594871E+02  0.70000032016E+02 0.  0.
        -12    1    1    2    0    0 -0.83904169818E+00 -0.93502409743E+01 -0.16203309903E+02  0.18726405129E+02  0.00000000000E+00 0.  1.
         11    1    3    3    0    0  0.14099969537E+02  0.88479985263E+01  0.17424139689E+02  0.24097652646E+02  0.51100000000E-03 0. -1.
        -11    1    3    3    0    0  0.17538285666E+02  0.17602455314E+00 -0.89998527317E-02  0.17539171303E+02  0.51100000000E-03 0.  1.
         12    1    3    3    0    0 -0.30799213505E+02  0.32621789486E+00 -0.12118299338E+01  0.30824770922E+02  0.00000000000E+00 0. -1.
</event>
<event>
 7    1  0.2655561E-013  0.7246160E+02  0.7816164E-02  0.1226708E+00
        -11   -1    0    0    0    0  0.00000000000E+00  0.00000000000E+00  0.45593999997E+02  0.45594000000E+02  0.51100000000E-03 0. -1.
         11   -1    0    0    0    0 -0.00000000000E+00 -0.00000000000E+00 -0.45593999997E+02  0.45594000000E+02  0.51100000000E-03 0.  1.
    9900012    2    1    2    0    0 -0.82657103887E+01  0.26485176881E+01  0.16593410807E+02  0.72461604288E+02  0.70000044283E+02 0.  0.
        -12    1    1    2    0    0  0.82657103887E+01 -0.26485176881E+01 -0.16593410807E+02  0.18726395712E+02  0.00000000000E+00 0.  1.
         11    1    3    3    0    0 -0.27885686123E+01 -0.13754830195E+02  0.18741328378E+02  0.23413860387E+02  0.51100000000E-03 0. -1.
        -11    1    3    3    0    0  0.14307858611E+02  0.10335927731E+02  0.14217260320E+02  0.22664437151E+02  0.51100000000E-03 0.  1.
         12    1    3    3    0    0 -0.19785000388E+02  0.60674201523E+01 -0.16365177891E+02  0.26383306750E+02  0.00000000000E+00 0. -1.
</event>
<event>
 7    1  0.2655561E-013  0.7246150E+02  0.7816164E-02  0.1226708E+00
        -11   -1    0    0    0    0  0.00000000000E+00  0.00000000000E+00  0.45593999997E+02  0.45594000000E+02  0.51100000000E-03 0. -1.
         11   -1    0    0    0    0 -0.00000000000E+00 -0.00000000000E+00 -0.45593999997E+02  0.45594000000E+02  0.51100000000E-03 0.  1.
    9900012    2    1    2    0    0  0.66484212029E+01  0.11188695102E+02  0.13464523538E+02  0.72461500148E+02  0.69999908622E+02 0.  0.
        -12    1    1    2    0    0 -0.66484212029E+01 -0.11188695102E+02 -0.13464523538E+02  0.18726499852E+02  0.00000000000E+00 0.  1.
         11    1    3    3    0    0 -0.57466528442E+01 -0.19839636017E+02  0.28285280432E+02  0.35024166879E+02  0.51100000000E-03 0. -1.
        -11    1    3    3    0    0  0.41635356537E+01  0.33138601183E+01 -0.36022930290E+01  0.64259795636E+01  0.51100000000E-03 0.  1.
        -12    1    3    3    0    0  0.82315383934E+01  0.27714471001E+02 -0.11218463865E+02  0.31011353706E+02  0.00000000000E+00 0.  1.
</event>
<event>
 7    1  0.2655561E-013  0.7246146E+02  0.7816164E-02  0.1226708E+00
        -11   -1    0    0    0    0  0.00000000000E+00  0.00000000000E+00  0.45593999997E+02  0.45594000000E+02  0.51100000000E-03 0.  1.
         11   -1    0    0    0    0 -0.00000000000E+00 -0.00000000000E+00 -0.45593999997E+02  0.45594000000E+02  0.51100000000E-03 0. -1.
    9900012    2    1    2    0    0  0.14332741546E+02 -0.78154194297E+01 -0.91747054361E+01  0.72461455179E+02  0.69999850041E+02 0.  0.
        -12    1    1    2    0    0 -0.14332741546E+02  0.78154194297E+01  0.91747054361E+01  0.18726544821E+02  0.00000000000E+00 0.  1.
         11    1    3    3    0    0 -0.73149936809E+01  0.18130518258E+02 -0.39912438937E+01  0.19953818004E+02  0.51100000000E-03 0. -1.
        -11    1    3    3    0    0  0.72143520481E+01  0.89099140945E+01  0.62885739277E+01  0.13075917060E+02  0.51100000000E-03 0.  1.
        -12    1    3    3    0    0  0.14433383179E+02 -0.34855851782E+02 -0.11472035470E+02  0.39431720116E+02  0.00000000000E+00 0.  1.
</event>
<event>
 7    1  0.2655561E-013  0.7246158E+02  0.7816164E-02  0.1226708E+00
        -11   -1    0    0    0    0  0.00000000000E+00  0.00000000000E+00  0.45593999997E+02  0.45594000000E+02  0.51100000000E-03 0.  1.
         11   -1    0    0    0    0 -0.00000000000E+00 -0.00000000000E+00 -0.45593999997E+02  0.45594000000E+02  0.51100000000E-03 0. -1.
    9900012    2    1    2    0    0 -0.13967690440E+02 -0.80317247075E+01 -0.95432531725E+01  0.72461583922E+02  0.70000017753E+02 0.  0.
        -12    1    1    2    0    0  0.13967690440E+02  0.80317247075E+01  0.95432531725E+01  0.18726416078E+02  0.00000000000E+00 0.  1.
         11    1    3    3    0    0 -0.18517994081E+01  0.44521699201E+01  0.33483952583E+01  0.58704964963E+01  0.51100000000E-03 0. -1.
        -11    1    3    3    0    0 -0.36128158541E+01  0.25399431188E+02  0.81278794856E-01  0.25655216810E+02  0.51100000000E-03 0.  1.
         12    1    3    3    0    0 -0.85030751777E+01 -0.37883325815E+02 -0.12972927226E+02  0.40935870616E+02  0.00000000000E+00 0. -1.
</event>
<event>
 7    1  0.2655561E-013  0.7246154E+02  0.7816164E-02  0.1226708E+00
        -11   -1    0    0    0    0  0.00000000000E+00  0.00000000000E+00  0.45593999997E+02  0.45594000000E+02  0.51100000000E-03 0.  1.
         11   -1    0    0    0    0 -0.00000000000E+00 -0.00000000000E+00 -0.45593999997E+02  0.45594000000E+02  0.51100000000E-03 0. -1.
    9900012    2    1    2    0    0 -0.77697698963E+01 -0.92847105507E+01 -0.14286542787E+02  0.72461535329E+02  0.69999954451E+02 0.  0.
        -12    1    1    2    0    0  0.77697698963E+01  0.92847105507E+01  0.14286542787E+02  0.18726464671E+02  0.00000000000E+00 0.  1.
         11    1    3    3    0    0 -0.33394187845E+01 -0.23958622029E+02 -0.20465151674E+02  0.31685796828E+02  0.51100000000E-03 0. -1.
        -11    1    3    3    0    0 -0.19668585984E+02  0.79377310763E+01 -0.35164996208E+01  0.21499456251E+02  0.51100000000E-03 0.  1.
        -12    1    3    3    0    0  0.15238234872E+02  0.67361804017E+01  0.96951085071E+01  0.19276282250E+02  0.00000000000E+00 0.  1.
</event>
<event>
 7    1  0.2655561E-013  0.7246155E+02  0.7816164E-02  0.1226708E+00
        -11   -1    0    0    0    0  0.00000000000E+00  0.00000000000E+00  0.45593999997E+02  0.45594000000E+02  0.51100000000E-03 0. -1.
         11   -1    0    0    0    0 -0.00000000000E+00 -0.00000000000E+00 -0.45593999997E+02  0.45594000000E+02  0.51100000000E-03 0.  1.
    9900012    2    1    2    0    0  0.62261914346E+01 -0.93425970485E+01  0.14987677760E+02  0.72461546411E+02  0.69999968887E+02 0.  0.
        -12    1    1    2    0    0 -0.62261914346E+01  0.93425970485E+01 -0.14987677760E+02  0.18726453589E+02  0.00000000000E+00 0.  1.
         11    1    3    3    0    0  0.55134704072E+01  0.19831885933E+01  0.14385212748E+02  0.15532731215E+02  0.51100000000E-03 0. -1.
        -11    1    3    3    0    0  0.91267263844E+01  0.21301063715E+02  0.15010263815E+01  0.23222522050E+02  0.51100000000E-03 0.  1.
         12    1    3    3    0    0 -0.84140053570E+01 -0.32626849357E+02 -0.89856136932E+00  0.33706293146E+02  0.00000000000E+00 0. -1.
</event>
<event>
 7    1  0.2655561E-013  0.7246157E+02  0.7816164E-02  0.1226708E+00
        -11   -1    0    0    0    0  0.00000000000E+00  0.00000000000E+00  0.45593999997E+02  0.45594000000E+02  0.51100000000E-03 0. -1.
         11   -1    0    0    0    0 -0.00000000000E+00 -0.00000000000E+00 -0.45593999997E+02  0.45594000000E+02  0.51100000000E-03 0.  1.
    9900012    2    1    2    0    0  0.72075660575E+01 -0.89909473944E+01 -0.14761203011E+02  0.72461567936E+02  0.69999996928E+02 0.  0.
        -12    1    1    2    0    0 -0.72075660575E+01  0.89909473944E+01  0.14761203011E+02  0.18726432064E+02  0.00000000000E+00 0.  1.
         11    1    3    3    0    0 -0.30329019900E+01  0.16280387552E+01  0.87757014585E+01  0.94266611809E+01  0.51100000000E-03 0. -1.
        -11    1    3    3    0    0 -0.17640947075E+02  0.86670616551E+01 -0.21413974776E+02  0.29066807314E+02  0.51100000000E-03 0.  1.
         12    1    3    3    0    0  0.27881415122E+02 -0.19286047805E+02 -0.21229296933E+01  0.33968099441E+02  0.00000000000E+00 0. -1.
</event>
<event>
 7    1  0.2655561E-013  0.7246162E+02  0.7816164E-02  0.1226708E+00
        -11   -1    0    0    0    0  0.00000000000E+00  0.00000000000E+00  0.45593999997E+02  0.45594000000E+02  0.51100000000E-03 0. -1.
         11   -1    0    0    0    0 -0.00000000000E+00 -0.00000000000E+00 -0.45593999997E+02  0.45594000000E+02  0.51100000000E-03 0.  1.
    9900012    2    1    2    0    0 -0.10917526680E+01 -0.17391241704E+02  0.68578584675E+01  0.72461616616E+02  0.70000060342E+02 0.  0.
        -12    1    1    2    0    0  0.10917526680E+01  0.17391241704E+02 -0.68578584675E+01  0.18726383384E+02  0.00000000000E+00 0.  1.
         11    1    3    3    0    0 -0.72471416862E+01 -0.36480002626E+01  0.98140599208E+01  0.12733606752E+02  0.51100000000E-03 0. -1.
        -11    1    3    3    0    0  0.21095989232E+02 -0.24173222723E+02  0.13844444286E+02  0.34943584481E+02  0.51100000000E-03 0.  1.
        -12    1    3    3    0    0 -0.14940600214E+02  0.10429981282E+02 -0.16800645739E+02  0.24784425383E+02  0.00000000000E+00 0.  1.
</event>
<event>
 7    1  0.2655561E-013  0.7246156E+02  0.7816164E-02  0.1226708E+00
        -11   -1    0    0    0    0  0.00000000000E+00  0.00000000000E+00  0.45593999997E+02  0.45594000000E+02  0.51100000000E-03 0.  1.
         11   -1    0    0    0    0 -0.00000000000E+00 -0.00000000000E+00 -0.45593999997E+02  0.45594000000E+02  0.51100000000E-03 0. -1.
    9900012    2    1    2    0    0 -0.14068134635E+02  0.39133109574E+00 -0.12353699704E+02  0.72461562846E+02  0.69999990297E+02 0.  0.
        -12    1    1    2    0    0  0.14068134635E+02 -0.39133109574E+00  0.12353699704E+02  0.18726437154E+02  0.00000000000E+00 0.  1.
         11    1    3    3    0    0 -0.15555898782E+02  0.10822784418E+01  0.50551136420E+01  0.16392421655E+02  0.51100000000E-03 0. -1.
        -11    1    3    3    0    0 -0.14702296858E+02 -0.25516274924E+01  0.14141552352E+02  0.20558497974E+02  0.51100000000E-03 0.  1.
         12    1    3    3    0    0  0.16190061005E+02  0.18606801464E+01 -0.31550365698E+02  0.35510643216E+02  0.00000000000E+00 0. -1.
</event>
<event>
 7    1  0.2655561E-013  0.7246157E+02  0.7816164E-02  0.1226708E+00
        -11   -1    0    0    0    0  0.00000000000E+00  0.00000000000E+00  0.45593999997E+02  0.45594000000E+02  0.51100000000E-03 0. -1.
         11   -1    0    0    0    0 -0.00000000000E+00 -0.00000000000E+00 -0.45593999997E+02  0.45594000000E+02  0.51100000000E-03 0.  1.
    9900012    2    1    2    0    0 -0.70772631046E+01 -0.10330983058E+02  0.13923443432E+02  0.72461571056E+02  0.70000000992E+02 0.  0.
        -12    1    1    2    0    0  0.70772631046E+01  0.10330983058E+02 -0.13923443432E+02  0.18726428944E+02  0.00000000000E+00 0.  1.
         11    1    3    3    0    0 -0.44331825011E+01 -0.11699085913E+00 -0.13286611735E+02  0.14007171220E+02  0.51100000000E-03 0. -1.
        -11    1    3    3    0    0 -0.15233494730E+02 -0.14935714968E+02 -0.63847254138E+01  0.22268804687E+02  0.51100000000E-03 0.  1.
         12    1    3    3    0    0  0.12589414127E+02  0.47217227696E+01  0.33594780581E+02  0.36185595148E+02  0.00000000000E+00 0. -1.
</event>
<event>
 7    1  0.2655561E-013  0.7246157E+02  0.7816164E-02  0.1226708E+00
        -11   -1    0    0    0    0  0.00000000000E+00  0.00000000000E+00  0.45593999997E+02  0.45594000000E+02  0.51100000000E-03 0. -1.
         11   -1    0    0    0    0 -0.00000000000E+00 -0.00000000000E+00 -0.45593999997E+02  0.45594000000E+02  0.51100000000E-03 0.  1.
    9900012    2    1    2    0    0  0.11778907255E+02 -0.21859156310E+01  0.14392998906E+02  0.72461566790E+02  0.69999995434E+02 0.  0.
        -12    1    1    2    0    0 -0.11778907255E+02  0.21859156310E+01 -0.14392998906E+02  0.18726433210E+02  0.00000000000E+00 0.  1.
         11    1    3    3    0    0  0.98853305260E+00 -0.21379310584E+01 -0.17400204301E+01  0.29284156407E+01  0.51100000000E-03 0. -1.
        -11    1    3    3    0    0 -0.19378491330E+02 -0.22196703434E+02  0.12233755661E+02  0.31904299826E+02  0.51100000000E-03 0.  1.
         12    1    3    3    0    0  0.30168865532E+02  0.22148718861E+02  0.38992636753E+01  0.37628851323E+02  0.00000000000E+00 0. -1.
</event>
<event>
 7    1  0.2655561E-013  0.7246143E+02  0.7816164E-02  0.1226708E+00
        -11   -1    0    0    0    0  0.00000000000E+00  0.00000000000E+00  0.45593999997E+02  0.45594000000E+02  0.51100000000E-03 0.  1.
         11   -1    0    0    0    0 -0.00000000000E+00 -0.00000000000E+00 -0.45593999997E+02  0.45594000000E+02  0.51100000000E-03 0. -1.
    9900012    2    1    2    0    0  0.13672048835E+01  0.52565436111E+01 -0.17921600128E+02  0.72461434616E+02  0.69999823253E+02 0.  0.
        -12    1    1    2    0    0 -0.13672048835E+01 -0.52565436111E+01  0.17921600128E+02  0.18726565384E+02  0.00000000000E+00 0.  1.
         11    1    3    3    0    0  0.53243116307E+01 -0.44123005686E+01 -0.83761606061E+01  0.10861710612E+02  0.51100000000E-03 0. -1.
        -11    1    3    3    0    0 -0.18706134607E+02 -0.15488487760E+02 -0.19116541329E+02  0.30907197830E+02  0.51100000000E-03 0.  1.
        -12    1    3    3    0    0  0.14749027860E+02  0.25157331940E+02  0.95711018071E+01  0.30692526174E+02  0.00000000000E+00 0.  1.
</event>
<event>
 7    1  0.2655561E-013  0.7246159E+02  0.7816164E-02  0.1226708E+00
        -11   -1    0    0    0    0  0.00000000000E+00  0.00000000000E+00  0.45593999997E+02  0.45594000000E+02  0.51100000000E-03 0.  1.
         11   -1    0    0    0    0 -0.00000000000E+00 -0.00000000000E+00 -0.45593999997E+02  0.45594000000E+02  0.51100000000E-03 0. -1.
    9900012    2    1    2    0    0 -0.38747224609E+01  0.35997777459E+01 -0.17964033922E+02  0.72461591142E+02  0.70000027158E+02 0.  0.
        -12    1    1    2    0    0  0.38747224609E+01 -0.35997777459E+01  0.17964033922E+02  0.18726408858E+02  0.00000000000E+00 0.  1.
         11    1    3    3    0    0  0.60845191142E+01  0.24393469703E+02 -0.12686133097E+02  0.28160268291E+02  0.51100000000E-03 0. -1.
        -11    1    3    3    0    0  0.82665841424E+01  0.52787337161E+01  0.48163788936E+01  0.10926982609E+02  0.51100000000E-03 0.  1.
         12    1    3    3    0    0 -0.18225825717E+02 -0.26072425673E+02 -0.10094279718E+02  0.33374340242E+02  0.00000000000E+00 0. -1.
</event>
<event>
 7    1  0.2655561E-013  0.7246150E+02  0.7816164E-02  0.1226708E+00
        -11   -1    0    0    0    0  0.00000000000E+00  0.00000000000E+00  0.45593999997E+02  0.45594000000E+02  0.51100000000E-03 0.  1.
         11   -1    0    0    0    0 -0.00000000000E+00 -0.00000000000E+00 -0.45593999997E+02  0.45594000000E+02  0.51100000000E-03 0. -1.
    9900012    2    1    2    0    0  0.12505149439E+02  0.13056368288E+02  0.48820428499E+01  0.72461498518E+02  0.69999906498E+02 0.  0.
        -12    1    1    2    0    0 -0.12505149439E+02 -0.13056368288E+02 -0.48820428499E+01  0.18726501482E+02  0.00000000000E+00 0.  1.
         11    1    3    3    0    0 -0.31685657211E+01 -0.40553072355E+01 -0.56376457285E+01  0.76333724608E+01  0.51100000000E-03 0. -1.
        -11    1    3    3    0    0  0.10291478224E+02 -0.35311969593E+01  0.32454751514E+02  0.34230027346E+02  0.51100000000E-03 0.  1.
         12    1    3    3    0    0  0.53822369367E+01  0.20642872483E+02 -0.21935062935E+02  0.30598098712E+02  0.00000000000E+00 0. -1.
</event>
<event>
 7    1  0.2655561E-013  0.7246155E+02  0.7816164E-02  0.1226708E+00
        -11   -1    0    0    0    0  0.00000000000E+00  0.00000000000E+00  0.45593999997E+02  0.45594000000E+02  0.51100000000E-03 0.  1.
         11   -1    0    0    0    0 -0.00000000000E+00 -0.00000000000E+00 -0.45593999997E+02  0.45594000000E+02  0.51100000000E-03 0. -1.
    9900012    2    1    2    0    0  0.14353731952E+02  0.84453456265E+01 -0.85630938655E+01  0.72461546512E+02  0.69999969019E+02 0.  0.
        -12    1    1    2    0    0 -0.14353731952E+02 -0.84453456265E+01  0.85630938655E+01  0.18726453488E+02  0.00000000000E+00 0.  1.
         11    1    3    3    0    0 -0.83897986449E+01  0.84011372373E+00  0.99462171399E+01  0.13039238782E+02  0.51100000000E-03 0. -1.
        -11    1    3    3    0    0  0.35524079347E+02 -0.77539026103E+01 -0.10046365238E+02  0.37722840215E+02  0.51100000000E-03 0.  1.
         12    1    3    3    0    0 -0.12780548750E+02  0.15359134513E+02 -0.84629457671E+01  0.21699467514E+02  0.00000000000E+00 0. -1.
</event>
<event>
 7    1  0.2655561E-013  0.7246161E+02  0.7816164E-02  0.1226708E+00
        -11   -1    0    0    0    0  0.00000000000E+00  0.00000000000E+00  0.45593999997E+02  0.45594000000E+02  0.51100000000E-03 0.  1.
         11   -1    0    0    0    0 -0.00000000000E+00 -0.00000000000E+00 -0.45593999997E+02  0.45594000000E+02  0.51100000000E-03 0. -1.
    9900012    2    1    2    0    0 -0.74445994025E+01 -0.76111172992E+01 -0.15405410675E+02  0.72461605663E+02  0.70000046075E+02 0.  0.
        -12    1    1    2    0    0  0.74445994025E+01  0.76111172992E+01  0.15405410675E+02  0.18726394337E+02  0.00000000000E+00 0.  1.
         11    1    3    3    0    0  0.56788945764E+01 -0.26698758679E+02  0.80421428266E+01  0.28456099876E+02  0.51100000000E-03 0. -1.
        -11    1    3    3    0    0 -0.11196726677E+02  0.97600364223E+00  0.32382922755E+01  0.11696401519E+02  0.51100000000E-03 0.  1.
        -12    1    3    3    0    0 -0.19267673023E+01  0.18111637738E+02 -0.26685845777E+02  0.32309104268E+02  0.00000000000E+00 0.  1.
</event>
<event>
 7    1  0.2655561E-013  0.7246158E+02  0.7816164E-02  0.1226708E+00
        -11   -1    0    0    0    0  0.00000000000E+00  0.00000000000E+00  0.45593999997E+02  0.45594000000E+02  0.51100000000E-03 0.  1.
         11   -1    0    0    0    0 -0.00000000000E+00 -0.00000000000E+00 -0.45593999997E+02  0.45594000000E+02  0.51100000000E-03 0. -1.
    9900012    2    1    2    0    0  0.11540618542E+02  0.32991139500E+01 -0.14373887981E+02  0.72461583234E+02  0.70000016857E+02 0.  0.
        -12    1    1    2    0    0 -0.11540618542E+02 -0.32991139500E+01  0.14373887981E+02  0.18726416766E+02  0.00000000000E+00 0.  1.
         11    1    3    3    0    0  0.79640472594E+01  0.13616797154E+02 -0.21971166128E+02  0.27047649709E+02  0.51100000000E-03 0. -1.
        -11    1    3    3    0    0  0.48193334601E+01  0.13810496277E+02  0.14180846614E+02  0.20372829783E+02  0.51100000000E-03 0.  1.
        -12    1    3    3    0    0 -0.12427621779E+01 -0.24128179481E+02 -0.65835684667E+01  0.25041103743E+02  0.00000000000E+00 0.  1.
</event>
<event>
 7    1  0.2655561E-013  0.7246152E+02  0.7816164E-02  0.1226708E+00
        -11   -1    0    0    0    0  0.00000000000E+00  0.00000000000E+00  0.45593999997E+02  0.45594000000E+02  0.51100000000E-03 0.  1.
         11   -1    0    0    0    0 -0.00000000000E+00 -0.00000000000E+00 -0.45593999997E+02  0.45594000000E+02  0.51100000000E-03 0. -1.
    9900012    2    1    2    0    0  0.96701076787E+01 -0.13781551065E+02 -0.81999415630E+01  0.72461516777E+02  0.69999930283E+02 0.  0.
        -12    1    1    2    0    0 -0.96701076787E+01  0.13781551065E+02  0.81999415630E+01  0.18726483223E+02  0.00000000000E+00 0.  1.
         11    1    3    3    0    0 -0.72201833199E+01 -0.86017155737E+01 -0.14333990405E+02  0.18209443681E+02  0.51100000000E-03 0. -1.
        -11    1    3    3    0    0 -0.64040764729E+01 -0.23330305339E+02  0.49690750418E+01  0.24698320787E+02  0.51100000000E-03 0.  1.
         12    1    3    3    0    0  0.23294367472E+02  0.18150469847E+02  0.11649738000E+01  0.29553752309E+02  0.00000000000E+00 0. -1.
</event>
<event>
 7    1  0.3426384E-013  0.7246157E+02  0.7816164E-02  0.1226708E+00
        -11   -1    0    0    0    0  0.00000000000E+00  0.00000000000E+00  0.45593999997E+02  0.45594000000E+02  0.51100000000E-03 0.  1.
         11   -1    0    0    0    0 -0.00000000000E+00 -0.00000000000E+00 -0.45593999997E+02  0.45594000000E+02  0.51100000000E-03 0. -1.
    9900012    2    1    2    0    0  0.17313268838E+02  0.25100615002E+01 -0.66805348208E+01  0.72461568623E+02  0.69999997823E+02 0.  0.
        -12    1    1    2    0    0 -0.17313268838E+02 -0.25100615002E+01  0.66805348208E+01  0.18726431377E+02  0.00000000000E+00 0.  1.
         11    1    3    3    0    0  0.13953479008E+02  0.16214955821E+02 -0.30289810729E+02  0.37082300400E+02  0.51100000000E-03 0. -1.
        -11    1    3    3    0    0 -0.31988083733E+01 -0.10964476077E+02  0.75653153729E+00  0.11446591235E+02  0.51100000000E-03 0.  1.
        -12    1    3    3    0    0  0.65585982038E+01 -0.27404182436E+01  0.22852744371E+02  0.23932676989E+02  0.00000000000E+00 0.  1.
</event>
<event>
 7    1  0.2655561E-013  0.7246154E+02  0.7816164E-02  0.1226708E+00
        -11   -1    0    0    0    0  0.00000000000E+00  0.00000000000E+00  0.45593999997E+02  0.45594000000E+02  0.51100000000E-03 0.  1.
         11   -1    0    0    0    0 -0.00000000000E+00 -0.00000000000E+00 -0.45593999997E+02  0.45594000000E+02  0.51100000000E-03 0. -1.
    9900012    2    1    2    0    0 -0.72464576081E+01 -0.16656719777E+02 -0.45522326619E+01  0.72461540542E+02  0.69999961243E+02 0.  0.
        -12    1    1    2    0    0  0.72464576081E+01  0.16656719777E+02  0.45522326619E+01  0.18726459458E+02  0.00000000000E+00 0.  1.
         11    1    3    3    0    0  0.21374842611E+02 -0.24753804641E+01  0.82331870464E+01  0.23039027200E+02  0.51100000000E-03 0.  1.
        -11    1    3    3    0    0  0.14364750314E+01 -0.16245954140E+02  0.89408137653E+00  0.16333825890E+02  0.51100000000E-03 0. -1.
         12    1    3    3    0    0 -0.30057775251E+02  0.20646148265E+01 -0.13679501085E+02  0.33088687453E+02  0.00000000000E+00 0. -1.
</event>
<event>
 7    1  0.2655561E-013  0.7246178E+02  0.7816164E-02  0.1226707E+00
        -11   -1    0    0    0    0  0.00000000000E+00  0.00000000000E+00  0.45593999997E+02  0.45594000000E+02  0.51100000000E-03 0. -1.
         11   -1    0    0    0    0 -0.00000000000E+00 -0.00000000000E+00 -0.45593999997E+02  0.45594000000E+02  0.51100000000E-03 0.  1.
    9900012    2    1    2    0    0 -0.65145035315E+01 -0.16915308429E+02  0.47015650926E+01  0.72461784957E+02  0.70000279638E+02 0.  0.
        -12    1    1    2    0    0  0.65145035315E+01  0.16915308429E+02 -0.47015650926E+01  0.18726215043E+02  0.00000000000E+00 0.  1.
         11    1    3    3    0    0 -0.34536986071E+02 -0.78408985291E+01 -0.10367089122E+02  0.36902027502E+02  0.51100000000E-03 0. -1.
        -11    1    3    3    0    0 -0.12980704257E+01  0.36945375170E+00  0.10790762165E+01  0.17279724092E+01  0.51100000000E-03 0.  1.
        -12    1    3    3    0    0  0.29320552965E+02 -0.94438636514E+01  0.13989577998E+02  0.33831785046E+02  0.00000000000E+00 0.  1.
</event>
<event>
 7    1  0.2655561E-013  0.7246160E+02  0.7816164E-02  0.1226708E+00
        -11   -1    0    0    0    0  0.00000000000E+00  0.00000000000E+00  0.45593999997E+02  0.45594000000E+02  0.51100000000E-03 0.  1.
         11   -1    0    0    0    0 -0.00000000000E+00 -0.00000000000E+00 -0.45593999997E+02  0.45594000000E+02  0.51100000000E-03 0. -1.
    9900012    2    1    2    0    0 -0.17531092790E+02  0.26163254082E+01 -0.60409991270E+01  0.72461600359E+02  0.70000039165E+02 0.  0.
        -12    1    1    2    0    0  0.17531092790E+02 -0.26163254082E+01  0.60409991270E+01  0.18726399641E+02  0.00000000000E+00 0.  1.
         11    1    3    3    0    0  0.26248293700E+00 -0.22862330395E+02 -0.63145051750E+01  0.23719781286E+02  0.51100000000E-03 0. -1.
        -11    1    3    3    0    0 -0.70513621447E+01  0.86562079984E-01  0.15655419603E+02  0.17170362963E+02  0.51100000000E-03 0.  1.
         12    1    3    3    0    0 -0.10742213582E+02  0.25392093723E+02 -0.15381913555E+02  0.31571456110E+02  0.00000000000E+00 0. -1.
</event>
<event>
 7    1  0.2655561E-013  0.7246156E+02  0.7816164E-02  0.1226708E+00
        -11   -1    0    0    0    0  0.00000000000E+00  0.00000000000E+00  0.45593999997E+02  0.45594000000E+02  0.51100000000E-03 0. -1.
         11   -1    0    0    0    0 -0.00000000000E+00 -0.00000000000E+00 -0.45593999997E+02  0.45594000000E+02  0.51100000000E-03 0.  1.
    9900012    2    1    2    0    0 -0.62592818575E+01 -0.14863295938E+02  0.95175252248E+01  0.72461562487E+02  0.69999989830E+02 0.  0.
        -12    1    1    2    0    0  0.62592818575E+01  0.14863295938E+02 -0.95175252248E+01  0.18726437513E+02  0.00000000000E+00 0.  1.
         11    1    3    3    0    0  0.12115133879E+02 -0.21503301100E+02 -0.54058197601E+01  0.25266406841E+02  0.51100000000E-03 0. -1.
        -11    1    3    3    0    0 -0.15642276281E+02 -0.85990201404E+01  0.23488809884E+02  0.29501663422E+02  0.51100000000E-03 0.  1.
        -12    1    3    3    0    0 -0.27321394549E+01  0.15239025303E+02 -0.85654648987E+01  0.17693492225E+02  0.00000000000E+00 0.  1.
</event>
<event>
 7    1  0.2655561E-013  0.7246188E+02  0.7816164E-02  0.1226707E+00
        -11   -1    0    0    0    0  0.00000000000E+00  0.00000000000E+00  0.45593999997E+02  0.45594000000E+02  0.51100000000E-03 0.  1.
         11   -1    0    0    0    0 -0.00000000000E+00 -0.00000000000E+00 -0.45593999997E+02  0.45594000000E+02  0.51100000000E-03 0. -1.
    9900012    2    1    2    0    0 -0.17049800136E+01  0.60445714389E+01 -0.17641536544E+02  0.72461878876E+02  0.70000401984E+02 0.  0.
        -12    1    1    2    0    0  0.17049800136E+01 -0.60445714389E+01  0.17641536544E+02  0.18726121124E+02  0.00000000000E+00 0.  1.
         11    1    3    3    0    0 -0.10270141606E+02  0.96633586324E+01  0.18264013724E+02  0.23074455709E+02  0.51100000000E-03 0. -1.
        -11    1    3    3    0    0 -0.15772906037E+01  0.96482227786E+01  0.13211582529E-01  0.97763092853E+01  0.51100000000E-03 0.  1.
        -12    1    3    3    0    0  0.10142452196E+02 -0.13267009972E+02 -0.35918761850E+02  0.39611113882E+02  0.00000000000E+00 0.  1.
</event>
<event>
 7    1  0.2655561E-013  0.7246153E+02  0.7816164E-02  0.1226708E+00
        -11   -1    0    0    0    0  0.00000000000E+00  0.00000000000E+00  0.45593999997E+02  0.45594000000E+02  0.51100000000E-03 0. -1.
         11   -1    0    0    0    0 -0.00000000000E+00 -0.00000000000E+00 -0.45593999997E+02  0.45594000000E+02  0.51100000000E-03 0.  1.
    9900012    2    1    2    0    0 -0.12074051885E+02  0.11382687612E+02  0.86794161866E+01  0.72461532860E+02  0.69999951235E+02 0.  0.
        -12    1    1    2    0    0  0.12074051885E+02 -0.11382687612E+02 -0.86794161866E+01  0.18726467140E+02  0.00000000000E+00 0.  1.
         11    1    3    3    0    0 -0.15615997787E+02 -0.64195927287E+01 -0.72468545488E+01  0.18373553244E+02  0.51100000000E-03 0. -1.
        -11    1    3    3    0    0 -0.21669971738E+02  0.46911642428E+01  0.15105236751E+01  0.22223329614E+02  0.51100000000E-03 0.  1.
         12    1    3    3    0    0  0.25211917641E+02  0.13111116098E+02  0.14415747060E+02  0.31864650002E+02  0.00000000000E+00 0. -1.
</event>
<event>
 7    1  0.2655561E-013  0.7246153E+02  0.7816164E-02  0.1226708E+00
        -11   -1    0    0    0    0  0.00000000000E+00  0.00000000000E+00  0.45593999997E+02  0.45594000000E+02  0.51100000000E-03 0.  1.
         11   -1    0    0    0    0 -0.00000000000E+00 -0.00000000000E+00 -0.45593999997E+02  0.45594000000E+02  0.51100000000E-03 0. -1.
    9900012    2    1    2    0    0  0.10063610509E+02  0.12712106386E+02 -0.93705312093E+01  0.72461527818E+02  0.69999944667E+02 0.  0.
        -12    1    1    2    0    0 -0.10063610509E+02 -0.12712106386E+02  0.93705312093E+01  0.18726472182E+02  0.00000000000E+00 0.  1.
         11    1    3    3    0    0 -0.11614826820E+02  0.86397278709E+01  0.14866408475E+02  0.20749920504E+02  0.51100000000E-03 0. -1.
        -11    1    3    3    0    0  0.62624803366E+01 -0.40418145213E+01  0.10485064222E+02  0.12864349832E+02  0.51100000000E-03 0.  1.
        -12    1    3    3    0    0  0.15415956992E+02  0.81141930365E+01 -0.34722003906E+02  0.38847257482E+02  0.00000000000E+00 0.  1.
</event>
<event>
 7    1  0.2655561E-013  0.7246158E+02  0.7816164E-02  0.1226708E+00
        -11   -1    0    0    0    0  0.00000000000E+00  0.00000000000E+00  0.45593999997E+02  0.45594000000E+02  0.51100000000E-03 0.  1.
         11   -1    0    0    0    0 -0.00000000000E+00 -0.00000000000E+00 -0.45593999997E+02  0.45594000000E+02  0.51100000000E-03 0. -1.
    9900012    2    1    2    0    0 -0.64302491506E+01 -0.13855691474E+02 -0.10832849861E+02  0.72461576784E+02  0.70000008453E+02 0.  0.
        -12    1    1    2    0    0  0.64302491506E+01  0.13855691474E+02  0.10832849861E+02  0.18726423216E+02  0.00000000000E+00 0.  1.
         11    1    3    3    0    0  0.19902599221E+00  0.18424524263E+01  0.63501056561E+01  0.66149893721E+01  0.51100000000E-03 0. -1.
        -11    1    3    3    0    0 -0.52908040696E+01 -0.69407028341E+01  0.23051531715E+02  0.24648307816E+02  0.51100000000E-03 0.  1.
         12    1    3    3    0    0 -0.13384710732E+01 -0.87574410666E+01 -0.40234487232E+02  0.41198279596E+02  0.00000000000E+00 0. -1.
</event>
<event>
 7    1  0.2655561E-013  0.7246161E+02  0.7816164E-02  0.1226708E+00
        -11   -1    0    0    0    0  0.00000000000E+00  0.00000000000E+00  0.45593999997E+02  0.45594000000E+02  0.51100000000E-03 0.  1.
         11   -1    0    0    0    0 -0.00000000000E+00 -0.00000000000E+00 -0.45593999997E+02  0.45594000000E+02  0.51100000000E-03 0. -1.
    9900012    2    1    2    0    0 -0.13557896162E+02  0.72047444371E+01 -0.10721607010E+02  0.72461608259E+02  0.70000049457E+02 0.  0.
        -12    1    1    2    0    0  0.13557896162E+02 -0.72047444371E+01  0.10721607010E+02  0.18726391741E+02  0.00000000000E+00 0.  1.
         11    1    3    3    0    0 -0.10594731407E+02 -0.11656921313E+02 -0.13296735330E+02  0.20613959319E+02  0.51100000000E-03 0. -1.
        -11    1    3    3    0    0 -0.14722017941E+01 -0.11128870376E+02 -0.13684985943E+02  0.17700225267E+02  0.51100000000E-03 0.  1.
        -12    1    3    3    0    0 -0.14909629612E+01  0.29990536127E+02  0.16260114263E+02  0.34147423674E+02  0.00000000000E+00 0.  1.
</event>
<event>
 7    1  0.2655561E-013  0.7246155E+02  0.7816164E-02  0.1226708E+00
        -11   -1    0    0    0    0  0.00000000000E+00  0.00000000000E+00  0.45593999997E+02  0.45594000000E+02  0.51100000000E-03 0.  1.
         11   -1    0    0    0    0 -0.00000000000E+00 -0.00000000000E+00 -0.45593999997E+02  0.45594000000E+02  0.51100000000E-03 0. -1.
    9900012    2    1    2    0    0 -0.11000322263E+02 -0.62879271104E+01 -0.13788942920E+02  0.72461546409E+02  0.69999968885E+02 0.  0.
        -12    1    1    2    0    0  0.11000322263E+02  0.62879271104E+01  0.13788942920E+02  0.18726453591E+02  0.00000000000E+00 0.  1.
         11    1    3    3    0    0  0.11112233786E+02 -0.10821102258E+00 -0.15409142475E+02  0.18998292592E+02  0.51100000000E-03 0. -1.
        -11    1    3    3    0    0 -0.13826278044E+02  0.20323020393E+02  0.61259122473E+01  0.25332151972E+02  0.51100000000E-03 0.  1.
         12    1    3    3    0    0 -0.82862780054E+01 -0.26502736480E+02 -0.45057126917E+01  0.28131101845E+02  0.00000000000E+00 0. -1.
</event>
<event>
 7    1  0.3709621E-013  0.7246151E+02  0.7816164E-02  0.1226708E+00
        -11   -1    0    0    0    0  0.00000000000E+00  0.00000000000E+00  0.45593999997E+02  0.45594000000E+02  0.51100000000E-03 0. -1.
         11   -1    0    0    0    0 -0.00000000000E+00 -0.00000000000E+00 -0.45593999997E+02  0.45594000000E+02  0.51100000000E-03 0.  1.
    9900012    2    1    2    0    0  0.11903915213E+02  0.10198629785E+02  0.10245293521E+02  0.72461513778E+02  0.69999926377E+02 0.  0.
        -12    1    1    2    0    0 -0.11903915213E+02 -0.10198629785E+02 -0.10245293521E+02  0.18726486222E+02  0.00000000000E+00 0.  1.
         11    1    3    3    0    0 -0.46059092523E+01  0.10414252424E+02  0.32125061420E+02  0.34083582927E+02  0.51100000000E-03 0. -1.
        -11    1    3    3    0    0 -0.42887653556E+01  0.60198286849E+01 -0.12928134222E+02  0.14891893781E+02  0.51100000000E-03 0.  1.
        -12    1    3    3    0    0  0.20798589821E+02 -0.62354513235E+01 -0.89516336774E+01  0.23486037070E+02  0.00000000000E+00 0.  1.
</event>
<event>
 7    1  0.2655561E-013  0.7246151E+02  0.7816164E-02  0.1226708E+00
        -11   -1    0    0    0    0  0.00000000000E+00  0.00000000000E+00  0.45593999997E+02  0.45594000000E+02  0.51100000000E-03 0.  1.
         11   -1    0    0    0    0 -0.00000000000E+00 -0.00000000000E+00 -0.45593999997E+02  0.45594000000E+02  0.51100000000E-03 0. -1.
    9900012    2    1    2    0    0  0.11843634439E+02  0.11924095463E+02  0.82598943738E+01  0.72461505817E+02  0.69999916006E+02 0.  0.
        -12    1    1    2    0    0 -0.11843634439E+02 -0.11924095463E+02 -0.82598943738E+01  0.18726494183E+02  0.00000000000E+00 0.  1.
         11    1    3    3    0    0 -0.14441137493E+01 -0.74206340525E+00 -0.17345678111E-01  0.16237067937E+01  0.51100000000E-03 0. -1.
        -11    1    3    3    0    0 -0.25592610493E+02  0.13919158998E+02  0.12514712519E+02  0.31707140028E+02  0.51100000000E-03 0.  1.
         12    1    3    3    0    0  0.38880358681E+02 -0.12530001299E+01 -0.42374724668E+01  0.39130658995E+02  0.00000000000E+00 0. -1.
</event>
<event>
 7    1  0.2655561E-013  0.7246156E+02  0.7816164E-02  0.1226708E+00
        -11   -1    0    0    0    0  0.00000000000E+00  0.00000000000E+00  0.45593999997E+02  0.45594000000E+02  0.51100000000E-03 0.  1.
         11   -1    0    0    0    0 -0.00000000000E+00 -0.00000000000E+00 -0.45593999997E+02  0.45594000000E+02  0.51100000000E-03 0. -1.
    9900012    2    1    2    0    0 -0.48569871670E+01 -0.11826004864E+02 -0.13683380806E+02  0.72461558115E+02  0.69999984134E+02 0.  0.
        -12    1    1    2    0    0  0.48569871670E+01  0.11826004864E+02  0.13683380806E+02  0.18726441885E+02  0.00000000000E+00 0.  1.
         11    1    3    3    0    0 -0.33976396418E+01 -0.42181106827E+01 -0.85656265401E+01  0.10134415186E+02  0.51100000000E-03 0. -1.
        -11    1    3    3    0    0 -0.99824258781E+01  0.24916577578E+02 -0.93839500224E+01  0.28434893756E+02  0.51100000000E-03 0.  1.
        -12    1    3    3    0    0  0.85230783529E+01 -0.32524471759E+02  0.42661957561E+01  0.33892249174E+02  0.00000000000E+00 0.  1.
</event>
<event>
 7    1  0.2655561E-013  0.7246141E+02  0.7816164E-02  0.1226708E+00
        -11   -1    0    0    0    0  0.00000000000E+00  0.00000000000E+00  0.45593999997E+02  0.45594000000E+02  0.51100000000E-03 0. -1.
         11   -1    0    0    0    0 -0.00000000000E+00 -0.00000000000E+00 -0.45593999997E+02  0.45594000000E+02  0.51100000000E-03 0.  1.
    9900012    2    1    2    0    0  0.63324133602E+01 -0.30230010669E+01  0.17362229405E+02  0.72461414504E+02  0.69999797054E+02 0.  0.
        -12    1    1    2    0    0 -0.63324133602E+01  0.30230010669E+01 -0.17362229405E+02  0.18726585496E+02  0.00000000000E+00 0.  1.
         11    1    3    3    0    0  0.13967377575E+01  0.23739988518E+01  0.36719207079E+01  0.45901796106E+01  0.51100000000E-03 0. -1.
        -11    1    3    3    0    0  0.18294782563E+02 -0.74140328036E+01  0.36422138446E+02  0.41427516468E+02  0.51100000000E-03 0.  1.
        -12    1    3    3    0    0 -0.13359106960E+02  0.20170328850E+01 -0.22731829749E+02  0.26443718426E+02  0.00000000000E+00 0.  1.
</event>
<event>
 7    1  0.2655561E-013  0.7246148E+02  0.7816164E-02  0.1226708E+00
        -11   -1    0    0    0    0  0.00000000000E+00  0.00000000000E+00  0.45593999997E+02  0.45594000000E+02  0.51100000000E-03 0.  1.
         11   -1    0    0    0    0 -0.00000000000E+00 -0.00000000000E+00 -0.45593999997E+02  0.45594000000E+02  0.51100000000E-03 0. -1.
    9900012    2    1    2    0    0 -0.12086872928E+01 -0.16871344013E+02 -0.80361343531E+01  0.72461477922E+02  0.69999879668E+02 0.  0.
        -12    1    1    2    0    0  0.12086872928E+01  0.16871344013E+02  0.80361343531E+01  0.18726522078E+02  0.00000000000E+00 0.  1.
         11    1    3    3    0    0 -0.17218701100E+02  0.13503765445E+02  0.20464040147E+01  0.21977786932E+02  0.51100000000E-03 0. -1.
        -11    1    3    3    0    0 -0.40670300231E+01 -0.28789025550E+02 -0.34438099839E+01  0.29278124134E+02  0.51100000000E-03 0.  1.
         12    1    3    3    0    0  0.20077043830E+02 -0.15860839082E+01 -0.66387283839E+01  0.21205566856E+02  0.00000000000E+00 0. -1.
</event>
<event>
 7    1  0.2655561E-013  0.7246157E+02  0.7816164E-02  0.1226708E+00
        -11   -1    0    0    0    0  0.00000000000E+00  0.00000000000E+00  0.45593999997E+02  0.45594000000E+02  0.51100000000E-03 0.  1.
         11   -1    0    0    0    0 -0.00000000000E+00 -0.00000000000E+00 -0.45593999997E+02  0.45594000000E+02  0.51100000000E-03 0. -1.
    9900012    2    1    2    0    0 -0.49458107421E+01 -0.18057318608E+02 -0.38894577018E+00  0.72461572738E+02  0.70000003183E+02 0.  0.
        -12    1    1    2    0    0  0.49458107421E+01  0.18057318608E+02  0.38894577018E+00  0.18726427262E+02  0.00000000000E+00 0.  1.
         11    1    3    3    0    0  0.13112647686E+02  0.17896445106E+02  0.74751409944E+01  0.23411578544E+02  0.51100000000E-03 0. -1.
        -11    1    3    3    0    0  0.33287386377E+01 -0.15392586565E+02 -0.11010763561E+02  0.19215856383E+02  0.51100000000E-03 0.  1.
        -12    1    3    3    0    0 -0.21387197066E+02 -0.20561177148E+02  0.31466767967E+01  0.29834137811E+02  0.00000000000E+00 0.  1.
</event>
<event>
 7    1  0.2655561E-013  0.7246163E+02  0.7816164E-02  0.1226708E+00
        -11   -1    0    0    0    0  0.00000000000E+00  0.00000000000E+00  0.45593999997E+02  0.45594000000E+02  0.51100000000E-03 0. -1.
         11   -1    0    0    0    0 -0.00000000000E+00 -0.00000000000E+00 -0.45593999997E+02  0.45594000000E+02  0.51100000000E-03 0.  1.
    9900012    2    1    2    0    0  0.60315043177E+01 -0.30234982210E+01  0.17468720849E+02  0.72461633723E+02  0.70000082628E+02 0.  0.
        -12    1    1    2    0    0 -0.60315043177E+01  0.30234982210E+01 -0.17468720849E+02  0.18726366277E+02  0.00000000000E+00 0.  1.
         11    1    3    3    0    0 -0.15768830541E+02 -0.74829326001E+01  0.21892314800E+02  0.27998638261E+02  0.51100000000E-03 0. -1.
        -11    1    3    3    0    0 -0.77988014849E+01 -0.46996163393E+01  0.69530523066E+01  0.11456554237E+02  0.51100000000E-03 0.  1.
        -12    1    3    3    0    0  0.29599136343E+02  0.91590507184E+01 -0.11376646257E+02  0.33006441226E+02  0.00000000000E+00 0.  1.
</event>
<event>
 7    1  0.2655561E-013  0.7246153E+02  0.7816164E-02  0.1226708E+00
        -11   -1    0    0    0    0  0.00000000000E+00  0.00000000000E+00  0.45593999997E+02  0.45594000000E+02  0.51100000000E-03 0.  1.
         11   -1    0    0    0    0 -0.00000000000E+00 -0.00000000000E+00 -0.45593999997E+02  0.45594000000E+02  0.51100000000E-03 0. -1.
    9900012    2    1    2    0    0 -0.11058028928E+01  0.18217952220E+02  0.41909564751E+01  0.72461529449E+02  0.69999946792E+02 0.  0.
        -12    1    1    2    0    0  0.11058028928E+01 -0.18217952220E+02 -0.41909564751E+01  0.18726470551E+02  0.00000000000E+00 0.  1.
         11    1    3    3    0    0  0.63245000786E+01 -0.17987606476E+02 -0.19781849614E+00  0.19068099549E+02  0.51100000000E-03 0. -1.
        -11    1    3    3    0    0  0.12636467836E+02  0.75799226599E+01  0.10245961701E+02  0.17947570263E+02  0.51100000000E-03 0.  1.
        -12    1    3    3    0    0 -0.20066770808E+02  0.28625636036E+02 -0.58571867294E+01  0.35445859638E+02  0.00000000000E+00 0.  1.
</event>
<event>
 7    1  0.2655561E-013  0.7246161E+02  0.7816164E-02  0.1226708E+00
        -11   -1    0    0    0    0  0.00000000000E+00  0.00000000000E+00  0.45593999997E+02  0.45594000000E+02  0.51100000000E-03 0.  1.
         11   -1    0    0    0    0 -0.00000000000E+00 -0.00000000000E+00 -0.45593999997E+02  0.45594000000E+02  0.51100000000E-03 0. -1.
    9900012    2    1    2    0    0 -0.48937087770E+01  0.13505307296E+02  0.12013996055E+02  0.72461606542E+02  0.70000047219E+02 0.  0.
        -12    1    1    2    0    0  0.48937087770E+01 -0.13505307296E+02 -0.12013996055E+02  0.18726393458E+02  0.00000000000E+00 0.  1.
         11    1    3    3    0    0 -0.17734942994E+02 -0.55609155002E+01 -0.15707788620E+01  0.18652595817E+02  0.51100000000E-03 0. -1.
        -11    1    3    3    0    0 -0.10325154617E+02 -0.35530023114E+01  0.18079282686E+02  0.21120916315E+02  0.51100000000E-03 0.  1.
        -12    1    3    3    0    0  0.23166388834E+02  0.22619225107E+02 -0.44945077693E+01  0.32688094410E+02  0.00000000000E+00 0.  1.
</event>
<event>
 7    1  0.2655561E-013  0.7246155E+02  0.7816164E-02  0.1226708E+00
        -11   -1    0    0    0    0  0.00000000000E+00  0.00000000000E+00  0.45593999997E+02  0.45594000000E+02  0.51100000000E-03 0.  1.
         11   -1    0    0    0    0 -0.00000000000E+00 -0.00000000000E+00 -0.45593999997E+02  0.45594000000E+02  0.51100000000E-03 0. -1.
    9900012    2    1    2    0    0 -0.31098467210E+01 -0.15726257021E+02 -0.96795467208E+01  0.72461549956E+02  0.69999973506E+02 0.  0.
        -12    1    1    2    0    0  0.31098467210E+01  0.15726257021E+02  0.96795467208E+01  0.18726450044E+02  0.00000000000E+00 0.  1.
         11    1    3    3    0    0 -0.17004080622E+02  0.11680413154E+02  0.15185609839E+00  0.20629926558E+02  0.51100000000E-03 0. -1.
        -11    1    3    3    0    0 -0.50679502317E+00  0.10286033610E+02 -0.40642754324E+01  0.11071479742E+02  0.51100000000E-03 0.  1.
        -12    1    3    3    0    0  0.14401028924E+02 -0.37692703785E+02 -0.57671273868E+01  0.40760143657E+02  0.00000000000E+00 0.  1.
</event>
<event>
 7    1  0.2655561E-013  0.7246158E+02  0.7816164E-02  0.1226708E+00
        -11   -1    0    0    0    0  0.00000000000E+00  0.00000000000E+00  0.45593999997E+02  0.45594000000E+02  0.51100000000E-03 0.  1.
         11   -1    0    0    0    0 -0.00000000000E+00 -0.00000000000E+00 -0.45593999997E+02  0.45594000000E+02  0.51100000000E-03 0. -1.
    9900012    2    1    2    0    0 -0.16544880813E+01  0.34819927793E+01 -0.18325320719E+02  0.72461575248E+02  0.70000006454E+02 0.  0.
        -12    1    1    2    0    0  0.16544880813E+01 -0.34819927793E+01  0.18325320719E+02  0.18726424752E+02  0.00000000000E+00 0.  1.
         11    1    3    3    0    0 -0.12834492972E+01 -0.10925633284E+02  0.13990512092E+02  0.17797503578E+02  0.51100000000E-03 0. -1.
        -11    1    3    3    0    0  0.20231032148E+02  0.69212796394E+01 -0.10824221091E+02  0.23965861889E+02  0.51100000000E-03 0.  1.
         12    1    3    3    0    0 -0.20602070932E+02  0.74863464241E+01 -0.21491611720E+02  0.30698209781E+02  0.00000000000E+00 0. -1.
</event>
<event>
 7    1  0.2655561E-013  0.7246158E+02  0.7816164E-02  0.1226708E+00
        -11   -1    0    0    0    0  0.00000000000E+00  0.00000000000E+00  0.45593999997E+02  0.45594000000E+02  0.51100000000E-03 0.  1.
         11   -1    0    0    0    0 -0.00000000000E+00 -0.00000000000E+00 -0.45593999997E+02  0.45594000000E+02  0.51100000000E-03 0. -1.
    9900012    2    1    2    0    0  0.12319125000E+02  0.58059612646E+01 -0.12853354901E+02  0.72461581250E+02  0.70000014272E+02 0.  0.
        -12    1    1    2    0    0 -0.12319125000E+02 -0.58059612646E+01  0.12853354901E+02  0.18726418750E+02  0.00000000000E+00 0.  1.
         11    1    3    3    0    0  0.15612368461E+02  0.18920251903E+02 -0.23071178063E+02  0.33674934870E+02  0.51100000000E-03 0. -1.
        -11    1    3    3    0    0  0.14942626491E+02 -0.11893272203E+02  0.61383828765E+01  0.20060203258E+02  0.51100000000E-03 0.  1.
        -12    1    3    3    0    0 -0.18235869953E+02 -0.12210184354E+01  0.40794402850E+01  0.18726443122E+02  0.00000000000E+00 0.  1.
</event>
<event>
 7    1  0.2655561E-013  0.7246151E+02  0.7816164E-02  0.1226708E+00
        -11   -1    0    0    0    0  0.00000000000E+00  0.00000000000E+00  0.45593999997E+02  0.45594000000E+02  0.51100000000E-03 0.  1.
         11   -1    0    0    0    0 -0.00000000000E+00 -0.00000000000E+00 -0.45593999997E+02  0.45594000000E+02  0.51100000000E-03 0. -1.
    9900012    2    1    2    0    0 -0.73252141380E+01 -0.15040676936E+02  0.84143129193E+01  0.72461511093E+02  0.69999922880E+02 0.  0.
        -12    1    1    2    0    0  0.73252141380E+01  0.15040676936E+02 -0.84143129193E+01  0.18726488907E+02  0.00000000000E+00 0.  1.
         11    1    3    3    0    0  0.73505326389E+01 -0.10814281332E+02 -0.19531517058E+02  0.23504449997E+02  0.51100000000E-03 0. -1.
        -11    1    3    3    0    0 -0.13050401812E+02 -0.12520057678E+02 -0.16672178985E+01  0.18161620179E+02  0.51100000000E-03 0.  1.
        -12    1    3    3    0    0 -0.16253449647E+01  0.82936620739E+01  0.29613047876E+02  0.30795440918E+02  0.00000000000E+00 0.  1.
</event>
<event>
 7    1  0.2655561E-013  0.7246157E+02  0.7816164E-02  0.1226708E+00
        -11   -1    0    0    0    0  0.00000000000E+00  0.00000000000E+00  0.45593999997E+02  0.45594000000E+02  0.51100000000E-03 0. -1.
         11   -1    0    0    0    0 -0.00000000000E+00 -0.00000000000E+00 -0.45593999997E+02  0.45594000000E+02  0.51100000000E-03 0.  1.
    9900012    2    1    2    0    0 -0.11100798950E+02 -0.50409226639E+01  0.14214093513E+02  0.72461572337E+02  0.70000002661E+02 0.  0.
        -12    1    1    2    0    0  0.11100798950E+02  0.50409226639E+01 -0.14214093513E+02  0.18726427663E+02  0.00000000000E+00 0.  1.
         11    1    3    3    0    0 -0.18857387878E+02 -0.13868621782E+01 -0.15768559643E+02  0.24620559250E+02  0.51100000000E-03 0. -1.
        -11    1    3    3    0    0 -0.56751084499E+01 -0.61382320053E+00 -0.66153937828E+01  0.87376810426E+01  0.51100000000E-03 0.  1.
         12    1    3    3    0    0  0.13431697378E+02 -0.30402372852E+01  0.36598046939E+02  0.39103332044E+02  0.00000000000E+00 0. -1.
</event>
<event>
 7    1  0.2655561E-013  0.7246155E+02  0.7816164E-02  0.1226708E+00
        -11   -1    0    0    0    0  0.00000000000E+00  0.00000000000E+00  0.45593999997E+02  0.45594000000E+02  0.51100000000E-03 0. -1.
         11   -1    0    0    0    0 -0.00000000000E+00 -0.00000000000E+00 -0.45593999997E+02  0.45594000000E+02  0.51100000000E-03 0.  1.
    9900012    2    1    2    0    0  0.48103339148E+01  0.13179623020E+02  0.12403147011E+02  0.72461552630E+02  0.69999976989E+02 0.  0.
        -12    1    1    2    0    0 -0.48103339148E+01 -0.13179623020E+02 -0.12403147011E+02  0.18726447370E+02  0.00000000000E+00 0.  1.
         11    1    3    3    0    0  0.19482685092E+02 -0.27071249880E+01 -0.10739816095E+01  0.19699161933E+02  0.51100000000E-03 0. -1.
        -11    1    3    3    0    0  0.14675447451E+02 -0.41944291070E+01  0.19881564292E+01  0.15392035592E+02  0.51100000000E-03 0.  1.
        -12    1    3    3    0    0 -0.29347798628E+02  0.20081177115E+02  0.11488972191E+02  0.37370355105E+02  0.00000000000E+00 0.  1.
</event>
<event>
 7    1  0.2655561E-013  0.7246158E+02  0.7816164E-02  0.1226708E+00
        -11   -1    0    0    0    0  0.00000000000E+00  0.00000000000E+00  0.45593999997E+02  0.45594000000E+02  0.51100000000E-03 0.  1.
         11   -1    0    0    0    0 -0.00000000000E+00 -0.00000000000E+00 -0.45593999997E+02  0.45594000000E+02  0.51100000000E-03 0. -1.
    9900012    2    1    2    0    0 -0.23223381215E+01 -0.14105978698E+02 -0.12095742672E+02  0.72461578020E+02  0.70000010064E+02 0.  0.
        -12    1    1    2    0    0  0.23223381215E+01  0.14105978698E+02  0.12095742672E+02  0.18726421980E+02  0.00000000000E+00 0.  1.
         11    1    3    3    0    0 -0.59098041619E+01 -0.25052233450E+02 -0.20870517853E+02  0.33137874129E+02  0.51100000000E-03 0. -1.
        -11    1    3    3    0    0  0.14950218908E+02 -0.63698814008E+01 -0.12793819001E+01  0.16300958646E+02  0.51100000000E-03 0.  1.
         12    1    3    3    0    0 -0.11362752868E+02  0.17316136153E+02  0.10054157081E+02  0.23022745245E+02  0.00000000000E+00 0. -1.
</event>
<event>
 7    1  0.2655561E-013  0.7246160E+02  0.7816164E-02  0.1226708E+00
        -11   -1    0    0    0    0  0.00000000000E+00  0.00000000000E+00  0.45593999997E+02  0.45594000000E+02  0.51100000000E-03 0. -1.
         11   -1    0    0    0    0 -0.00000000000E+00 -0.00000000000E+00 -0.45593999997E+02  0.45594000000E+02  0.51100000000E-03 0.  1.
    9900012    2    1    2    0    0  0.44667543603E+01  0.11635710102E+02 -0.13976284511E+02  0.72461596906E+02  0.70000034667E+02 0.  0.
        -12    1    1    2    0    0 -0.44667543603E+01 -0.11635710102E+02  0.13976284511E+02  0.18726403094E+02  0.00000000000E+00 0.  1.
         11    1    3    3    0    0 -0.23162199118E+02  0.15825740209E+02 -0.10119578025E+02  0.29821927852E+02  0.51100000000E-03 0. -1.
        -11    1    3    3    0    0 -0.56218957693E+01 -0.26871293667E+01 -0.68022389862E+01  0.92247944021E+01  0.51100000000E-03 0.  1.
        -12    1    3    3    0    0  0.33250849247E+02 -0.15029007397E+01  0.29455325004E+01  0.33414874652E+02  0.00000000000E+00 0.  1.
</event>
<event>
 7    1  0.2655561E-013  0.7246161E+02  0.7816164E-02  0.1226708E+00
        -11   -1    0    0    0    0  0.00000000000E+00  0.00000000000E+00  0.45593999997E+02  0.45594000000E+02  0.51100000000E-03 0. -1.
         11   -1    0    0    0    0 -0.00000000000E+00 -0.00000000000E+00 -0.45593999997E+02  0.45594000000E+02  0.51100000000E-03 0.  1.
    9900012    2    1    2    0    0 -0.13240833618E+02  0.33379266060E+01 -0.12814687567E+02  0.72461610963E+02  0.70000052978E+02 0.  0.
        -12    1    1    2    0    0  0.13240833618E+02 -0.33379266060E+01  0.12814687567E+02  0.18726389037E+02  0.00000000000E+00 0.  1.
         11    1    3    3    0    0 -0.26864011747E+02  0.11648201681E+02  0.11758081227E+02  0.31553259799E+02  0.51100000000E-03 0. -1.
        -11    1    3    3    0    0 -0.74263107213E+01  0.77435011626E+00 -0.23141812270E+00  0.74701582072E+01  0.51100000000E-03 0.  1.
        -12    1    3    3    0    0  0.21049488850E+02 -0.90846251908E+01 -0.24341350672E+02  0.33438192957E+02  0.00000000000E+00 0.  1.
</event>
<event>
 7    1  0.2655561E-013  0.7246167E+02  0.7816164E-02  0.1226708E+00
        -11   -1    0    0    0    0  0.00000000000E+00  0.00000000000E+00  0.45593999997E+02  0.45594000000E+02  0.51100000000E-03 0.  1.
         11   -1    0    0    0    0 -0.00000000000E+00 -0.00000000000E+00 -0.45593999997E+02  0.45594000000E+02  0.51100000000E-03 0. -1.
    9900012    2    1    2    0    0 -0.12007387068E+02  0.12126103081E+02 -0.77107597478E+01  0.72461667310E+02  0.70000126381E+02 0.  0.
        -12    1    1    2    0    0  0.12007387068E+02 -0.12126103081E+02  0.77107597478E+01  0.18726332690E+02  0.00000000000E+00 0.  1.
         11    1    3    3    0    0 -0.14933903201E+02  0.42640619255E+01 -0.79405408357E+00  0.15551019615E+02  0.51100000000E-03 0. -1.
        -11    1    3    3    0    0  0.14765084848E+02  0.28337783921E+02 -0.89166129417E+01  0.33174443699E+02  0.51100000000E-03 0.  1.
         12    1    3    3    0    0 -0.11838568715E+02 -0.20475742765E+02  0.19999072774E+01  0.23736203996E+02  0.00000000000E+00 0. -1.
</event>
<event>
 7    1  0.2655561E-013  0.7246159E+02  0.7816164E-02  0.1226708E+00
        -11   -1    0    0    0    0  0.00000000000E+00  0.00000000000E+00  0.45593999997E+02  0.45594000000E+02  0.51100000000E-03 0. -1.
         11   -1    0    0    0    0 -0.00000000000E+00 -0.00000000000E+00 -0.45593999997E+02  0.45594000000E+02  0.51100000000E-03 0.  1.
    9900012    2    1    2    0    0  0.69979238210E+01  0.17331299043E+02  0.11547297696E+01  0.72461594441E+02  0.70000031455E+02 0.  0.
        -12    1    1    2    0    0 -0.69979238210E+01 -0.17331299043E+02 -0.11547297696E+01  0.18726405559E+02  0.00000000000E+00 0.  1.
         11    1    3    3    0    0  0.21789998856E+02  0.27841158860E+02  0.61163124558E+01  0.35879568770E+02  0.51100000000E-03 0. -1.
        -11    1    3    3    0    0 -0.59034856308E+01  0.10992339085E+02  0.11372742240E+01  0.12529008503E+02  0.51100000000E-03 0.  1.
        -12    1    3    3    0    0 -0.88885894046E+01 -0.21502198902E+02 -0.60988569103E+01  0.24053017167E+02  0.00000000000E+00 0.  1.
</event>
<event>
 7    1  0.2655561E-013  0.7246161E+02  0.7816164E-02  0.1226708E+00
        -11   -1    0    0    0    0  0.00000000000E+00  0.00000000000E+00  0.45593999997E+02  0.45594000000E+02  0.51100000000E-03 0. -1.
         11   -1    0    0    0    0 -0.00000000000E+00 -0.00000000000E+00 -0.45593999997E+02  0.45594000000E+02  0.51100000000E-03 0.  1.
    9900012    2    1    2    0    0  0.16712574284E+02 -0.84433165040E+01  0.27934840471E+00  0.72461607707E+02  0.70000048736E+02 0.  0.
        -12    1    1    2    0    0 -0.16712574284E+02  0.84433165040E+01 -0.27934840471E+00  0.18726392293E+02  0.00000000000E+00 0.  1.
         11    1    3    3    0    0  0.16149345689E+02  0.56132217094E+01 -0.18512812672E+02  0.25199878123E+02  0.51100000000E-03 0. -1.
        -11    1    3    3    0    0  0.30519348163E+01  0.51109327626E+01 -0.10557050932E+02  0.12119705626E+02  0.51100000000E-03 0.  1.
         12    1    3    3    0    0 -0.24887062213E+01 -0.19167470976E+02  0.29349212009E+02  0.35142023957E+02  0.00000000000E+00 0. -1.
</event>
<event>
 7    1  0.2655561E-013  0.7246157E+02  0.7816164E-02  0.1226708E+00
        -11   -1    0    0    0    0  0.00000000000E+00  0.00000000000E+00  0.45593999997E+02  0.45594000000E+02  0.51100000000E-03 0.  1.
         11   -1    0    0    0    0 -0.00000000000E+00 -0.00000000000E+00 -0.45593999997E+02  0.45594000000E+02  0.51100000000E-03 0. -1.
    9900012    2    1    2    0    0 -0.71514492985E+01  0.15104979110E+01 -0.17241064251E+02  0.72461571416E+02  0.70000001461E+02 0.  0.
        -12    1    1    2    0    0  0.71514492985E+01 -0.15104979110E+01  0.17241064251E+02  0.18726428584E+02  0.00000000000E+00 0.  1.
         11    1    3    3    0    0 -0.70602224314E+01 -0.79117585457E+00  0.16367677298E+01  0.72905218521E+01  0.51100000000E-03 0. -1.
        -11    1    3    3    0    0 -0.25302203972E+02 -0.83018861488E+01  0.69838288138E+01  0.27529923804E+02  0.51100000000E-03 0.  1.
         12    1    3    3    0    0  0.25210977105E+02  0.10603559914E+02 -0.25861660795E+02  0.37641125760E+02  0.00000000000E+00 0. -1.
</event>
<event>
 7    1  0.2655561E-013  0.7246144E+02  0.7816164E-02  0.1226708E+00
        -11   -1    0    0    0    0  0.00000000000E+00  0.00000000000E+00  0.45593999997E+02  0.45594000000E+02  0.51100000000E-03 0. -1.
         11   -1    0    0    0    0 -0.00000000000E+00 -0.00000000000E+00 -0.45593999997E+02  0.45594000000E+02  0.51100000000E-03 0.  1.
    9900012    2    1    2    0    0 -0.15191631641E+02  0.37331237377E+01  0.10293800751E+02  0.72461435482E+02  0.69999824381E+02 0.  0.
        -12    1    1    2    0    0  0.15191631641E+02 -0.37331237377E+01 -0.10293800751E+02  0.18726564518E+02  0.00000000000E+00 0.  1.
         11    1    3    3    0    0 -0.14167349045E+02  0.58841232507E+01 -0.11399450190E+02  0.19112408281E+02  0.51100000000E-03 0. -1.
        -11    1    3    3    0    0 -0.11663538353E+02 -0.22730851181E+02  0.12202514584E+02  0.28313090343E+02  0.51100000000E-03 0.  1.
         12    1    3    3    0    0  0.10639255758E+02  0.20579851668E+02  0.94907363571E+01  0.25035936858E+02  0.00000000000E+00 0. -1.
</event>
<event>
 7    1  0.2655561E-013  0.7246168E+02  0.7816164E-02  0.1226708E+00
        -11   -1    0    0    0    0  0.00000000000E+00  0.00000000000E+00  0.45593999997E+02  0.45594000000E+02  0.51100000000E-03 0. -1.
         11   -1    0    0    0    0 -0.00000000000E+00 -0.00000000000E+00 -0.45593999997E+02  0.45594000000E+02  0.51100000000E-03 0.  1.
    9900012    2    1    2    0    0  0.23235672032E+01 -0.10360589369E+02  0.15425113943E+02  0.72461683843E+02  0.70000147919E+02 0.  0.
        -12    1    1    2    0    0 -0.23235672032E+01  0.10360589369E+02 -0.15425113943E+02  0.18726316157E+02  0.00000000000E+00 0.  1.
         11    1    3    3    0    0  0.20331187005E+02  0.10630759089E+02  0.10119052794E+02  0.25075195584E+02  0.51100000000E-03 0. -1.
        -11    1    3    3    0    0  0.55194631521E+01  0.78223131872E+01  0.33266165235E+01  0.10135059686E+02  0.51100000000E-03 0.  1.
        -12    1    3    3    0    0 -0.23527082954E+02 -0.28813661646E+02  0.19794446255E+01  0.37251428574E+02  0.00000000000E+00 0.  1.
</event>
<event>
 7    1  0.2655561E-013  0.7246159E+02  0.7816164E-02  0.1226708E+00
        -11   -1    0    0    0    0  0.00000000000E+00  0.00000000000E+00  0.45593999997E+02  0.45594000000E+02  0.51100000000E-03 0.  1.
         11   -1    0    0    0    0 -0.00000000000E+00 -0.00000000000E+00 -0.45593999997E+02  0.45594000000E+02  0.51100000000E-03 0. -1.
    9900012    2    1    2    0    0  0.27500284537E+01 -0.60230302325E+01 -0.17516820771E+02  0.72461586579E+02  0.70000021214E+02 0.  0.
        -12    1    1    2    0    0 -0.27500284537E+01  0.60230302325E+01  0.17516820771E+02  0.18726413421E+02  0.00000000000E+00 0.  1.
         11    1    3    3    0    0 -0.56140125306E+01  0.56462330046E+01 -0.60685249591E+01  0.10011197694E+02  0.51100000000E-03 0. -1.
        -11    1    3    3    0    0  0.11965957388E+02 -0.15833622534E+02  0.21375226920E+02  0.29168271544E+02  0.51100000000E-03 0.  1.
         12    1    3    3    0    0 -0.36019164033E+01  0.41643592965E+01 -0.32823522732E+02  0.33282117341E+02  0.00000000000E+00 0. -1.
</event>
<event>
 7    1  0.2655561E-013  0.7246158E+02  0.7816164E-02  0.1226708E+00
        -11   -1    0    0    0    0  0.00000000000E+00  0.00000000000E+00  0.45593999997E+02  0.45594000000E+02  0.51100000000E-03 0. -1.
         11   -1    0    0    0    0 -0.00000000000E+00 -0.00000000000E+00 -0.45593999997E+02  0.45594000000E+02  0.51100000000E-03 0.  1.
    9900012    2    1    2    0    0  0.95160086753E+01 -0.15724970121E+02  0.35846237558E+01  0.72461584596E+02  0.70000018630E+02 0.  0.
        -12    1    1    2    0    0 -0.95160086753E+01  0.15724970121E+02 -0.35846237558E+01  0.18726415404E+02  0.00000000000E+00 0.  1.
         11    1    3    3    0    0  0.12654301324E+02 -0.29042991765E+02 -0.17747385735E+02  0.36312482886E+02  0.51100000000E-03 0.  1.
        -11    1    3    3    0    0 -0.72170205016E+00 -0.39311599034E+01  0.17971060513E+02  0.18410157203E+02  0.51100000000E-03 0. -1.
        -12    1    3    3    0    0 -0.24165905983E+01  0.17249181547E+02  0.33609489780E+01  0.17738944506E+02  0.00000000000E+00 0.  1.
</event>
<event>
 7    1  0.2655561E-013  0.7246159E+02  0.7816164E-02  0.1226708E+00
        -11   -1    0    0    0    0  0.00000000000E+00  0.00000000000E+00  0.45593999997E+02  0.45594000000E+02  0.51100000000E-03 0.  1.
         11   -1    0    0    0    0 -0.00000000000E+00 -0.00000000000E+00 -0.45593999997E+02  0.45594000000E+02  0.51100000000E-03 0. -1.
    9900012    2    1    2    0    0  0.13476300090E+02 -0.59985414949E+01 -0.11536259892E+02  0.72461589333E+02  0.70000024802E+02 0.  0.
        -12    1    1    2    0    0 -0.13476300090E+02  0.59985414949E+01  0.11536259892E+02  0.18726410667E+02  0.00000000000E+00 0.  1.
         11    1    3    3    0    0 -0.14162832336E+02 -0.75614055414E+01  0.49548729515E+00  0.16062570824E+02  0.51100000000E-03 0. -1.
        -11    1    3    3    0    0  0.87265669907E+00 -0.20250912808E+02 -0.16218946470E+01  0.20334491431E+02  0.51100000000E-03 0.  1.
        -12    1    3    3    0    0  0.26766475727E+02  0.21813776854E+02 -0.10409852540E+02  0.36064527078E+02  0.00000000000E+00 0.  1.
</event>
<event>
 7    1  0.2655561E-013  0.7246150E+02  0.7816164E-02  0.1226708E+00
        -11   -1    0    0    0    0  0.00000000000E+00  0.00000000000E+00  0.45593999997E+02  0.45594000000E+02  0.51100000000E-03 0.  1.
         11   -1    0    0    0    0 -0.00000000000E+00 -0.00000000000E+00 -0.45593999997E+02  0.45594000000E+02  0.51100000000E-03 0. -1.
    9900012    2    1    2    0    0 -0.17564786881E+01 -0.17563041167E+02  0.62558804168E+01  0.72461503472E+02  0.69999912951E+02 0.  0.
        -12    1    1    2    0    0  0.17564786881E+01  0.17563041167E+02 -0.62558804168E+01  0.18726496528E+02  0.00000000000E+00 0.  1.
         11    1    3    3    0    0 -0.64645946840E+01 -0.17499627814E+01 -0.21272554450E+01  0.70269886974E+01  0.51100000000E-03 0. -1.
        -11    1    3    3    0    0 -0.24622987179E+02 -0.18086709602E+02  0.16758636100E+02  0.34846412241E+02  0.51100000000E-03 0.  1.
         12    1    3    3    0    0  0.29331103175E+02  0.22736312163E+01 -0.83755002378E+01  0.30588102534E+02  0.00000000000E+00 0. -1.
</event>
<event>
 7    1  0.2655561E-013  0.7246160E+02  0.7816164E-02  0.1226708E+00
        -11   -1    0    0    0    0  0.00000000000E+00  0.00000000000E+00  0.45593999997E+02  0.45594000000E+02  0.51100000000E-03 0.  1.
         11   -1    0    0    0    0 -0.00000000000E+00 -0.00000000000E+00 -0.45593999997E+02  0.45594000000E+02  0.51100000000E-03 0. -1.
    9900012    2    1    2    0    0  0.37163728464E+01  0.10283134434E+02 -0.15202753289E+02  0.72461601828E+02  0.70000041078E+02 0.  0.
        -12    1    1    2    0    0 -0.37163728464E+01 -0.10283134434E+02  0.15202753289E+02  0.18726398172E+02  0.00000000000E+00 0.  1.
         11    1    3    3    0    0 -0.10220201765E+02  0.21227003451E+02 -0.10334812170E+01  0.23581905846E+02  0.51100000000E-03 0. -1.
        -11    1    3    3    0    0 -0.12445461199E+01  0.13254303764E+02  0.52796947645E+01  0.14321335147E+02  0.51100000000E-03 0.  1.
        -12    1    3    3    0    0  0.15181120731E+02 -0.24198172781E+02 -0.19448966837E+02  0.34558360835E+02  0.00000000000E+00 0.  1.
</event>
<event>
 7    1  0.2655561E-013  0.7246158E+02  0.7816164E-02  0.1226708E+00
        -11   -1    0    0    0    0  0.00000000000E+00  0.00000000000E+00  0.45593999997E+02  0.45594000000E+02  0.51100000000E-03 0. -1.
         11   -1    0    0    0    0 -0.00000000000E+00 -0.00000000000E+00 -0.45593999997E+02  0.45594000000E+02  0.51100000000E-03 0.  1.
    9900012    2    1    2    0    0  0.38761856475E+01  0.58087779949E+01  0.17375614174E+02  0.72461583234E+02  0.70000016856E+02 0.  0.
        -12    1    1    2    0    0 -0.38761856475E+01 -0.58087779949E+01 -0.17375614174E+02  0.18726416766E+02  0.00000000000E+00 0.  1.
         11    1    3    3    0    0  0.87606257385E+01 -0.48218450888E+01  0.54262999949E+01  0.11377323292E+02  0.51100000000E-03 0. -1.
        -11    1    3    3    0    0  0.11840399693E+02 -0.13594519518E+02  0.23364214904E+02  0.29510888908E+02  0.51100000000E-03 0.  1.
        -12    1    3    3    0    0 -0.16724839784E+02  0.24225142602E+02 -0.11414900724E+02  0.31573371034E+02  0.00000000000E+00 0.  1.
</event>
<event>
 7    1  0.2655561E-013  0.7246158E+02  0.7816164E-02  0.1226708E+00
        -11   -1    0    0    0    0  0.00000000000E+00  0.00000000000E+00  0.45593999997E+02  0.45594000000E+02  0.51100000000E-03 0.  1.
         11   -1    0    0    0    0 -0.00000000000E+00 -0.00000000000E+00 -0.45593999997E+02  0.45594000000E+02  0.51100000000E-03 0. -1.
    9900012    2    1    2    0    0  0.14592036557E+02 -0.11726947057E+02 -0.47964742828E+00  0.72461578029E+02  0.70000010076E+02 0.  0.
        -12    1    1    2    0    0 -0.14592036557E+02  0.11726947057E+02  0.47964742828E+00  0.18726421971E+02  0.00000000000E+00 0.  1.
         11    1    3    3    0    0  0.17455200190E+02  0.52610664254E+01  0.80209308819E+01  0.19917283100E+02  0.51100000000E-03 0. -1.
        -11    1    3    3    0    0  0.26027304711E+01  0.16877939547E+02  0.47948307538E+00  0.17084172603E+02  0.51100000000E-03 0.  1.
        -12    1    3    3    0    0 -0.54658941039E+01 -0.33865953029E+02 -0.89800613856E+01  0.35460122327E+02  0.00000000000E+00 0.  1.
</event>
<event>
 7    1  0.2655561E-013  0.7246157E+02  0.7816164E-02  0.1226708E+00
        -11   -1    0    0    0    0  0.00000000000E+00  0.00000000000E+00  0.45593999997E+02  0.45594000000E+02  0.51100000000E-03 0.  1.
         11   -1    0    0    0    0 -0.00000000000E+00 -0.00000000000E+00 -0.45593999997E+02  0.45594000000E+02  0.51100000000E-03 0. -1.
    9900012    2    1    2    0    0  0.16206452241E+02  0.92099624729E+01  0.17906831423E+01  0.72461573510E+02  0.70000004189E+02 0.  0.
        -12    1    1    2    0    0 -0.16206452241E+02 -0.92099624729E+01 -0.17906831423E+01  0.18726426490E+02  0.00000000000E+00 0.  1.
         11    1    3    3    0    0 -0.14327607944E+02 -0.79990808763E+01 -0.13076030500E+02  0.20982092797E+02  0.51100000000E-03 0. -1.
        -11    1    3    3    0    0  0.15521698992E+02 -0.80623873271E+01 -0.19757978229E+01  0.17601960298E+02  0.51100000000E-03 0.  1.
         12    1    3    3    0    0  0.15012361192E+02  0.25271430676E+02  0.16842511465E+02  0.33877520415E+02  0.00000000000E+00 0. -1.
</event>
<event>
 7    1  0.2655561E-013  0.7246166E+02  0.7816164E-02  0.1226708E+00
        -11   -1    0    0    0    0  0.00000000000E+00  0.00000000000E+00  0.45593999997E+02  0.45594000000E+02  0.51100000000E-03 0.  1.
         11   -1    0    0    0    0 -0.00000000000E+00 -0.00000000000E+00 -0.45593999997E+02  0.45594000000E+02  0.51100000000E-03 0. -1.
    9900012    2    1    2    0    0  0.14986391597E+02  0.37715436618E+01 -0.10576365049E+02  0.72461655660E+02  0.70000111205E+02 0.  0.
        -12    1    1    2    0    0 -0.14986391597E+02 -0.37715436618E+01  0.10576365049E+02  0.18726344340E+02  0.00000000000E+00 0.  1.
         11    1    3    3    0    0 -0.33600043397E+01  0.42591245283E+01  0.10581819675E+02  0.11891369930E+02  0.51100000000E-03 0. -1.
        -11    1    3    3    0    0  0.33243330232E+01 -0.75162293281E+01  0.17044705733E+02  0.18922655394E+02  0.51100000000E-03 0.  1.
         12    1    3    3    0    0  0.15022062913E+02  0.70286484616E+01 -0.38202890457E+02  0.41647630337E+02  0.00000000000E+00 0. -1.
</event>
<event>
 7    1  0.2720544E-013  0.7246151E+02  0.7816164E-02  0.1226708E+00
        -11   -1    0    0    0    0  0.00000000000E+00  0.00000000000E+00  0.45593999997E+02  0.45594000000E+02  0.51100000000E-03 0.  1.
         11   -1    0    0    0    0 -0.00000000000E+00 -0.00000000000E+00 -0.45593999997E+02  0.45594000000E+02  0.51100000000E-03 0. -1.
    9900012    2    1    2    0    0  0.14668556168E+02 -0.11574469034E+02  0.12435841782E+01  0.72461511405E+02  0.69999923286E+02 0.  0.
        -12    1    1    2    0    0 -0.14668556168E+02  0.11574469034E+02 -0.12435841782E+01  0.18726488595E+02  0.00000000000E+00 0.  1.
         11    1    3    3    0    0 -0.28381080026E+01 -0.15710722651E+02 -0.15956571538E+02  0.22571970201E+02  0.51100000000E-03 0. -1.
        -11    1    3    3    0    0  0.14071129799E+02 -0.13441369296E+02 -0.61987980259E+01  0.20422835249E+02  0.51100000000E-03 0.  1.
        -12    1    3    3    0    0  0.34355343719E+01  0.17577622913E+02  0.23398953742E+02  0.29466705956E+02  0.00000000000E+00 0.  1.
</event>
<event>
 7    1  0.2655561E-013  0.7246154E+02  0.7816164E-02  0.1226708E+00
        -11   -1    0    0    0    0  0.00000000000E+00  0.00000000000E+00  0.45593999997E+02  0.45594000000E+02  0.51100000000E-03 0.  1.
         11   -1    0    0    0    0 -0.00000000000E+00 -0.00000000000E+00 -0.45593999997E+02  0.45594000000E+02  0.51100000000E-03 0. -1.
    9900012    2    1    2    0    0 -0.75259353615E+01  0.15859559549E+02  0.65203427448E+01  0.72461542736E+02  0.69999964101E+02 0.  0.
        -12    1    1    2    0    0  0.75259353615E+01 -0.15859559549E+02 -0.65203427448E+01  0.18726457264E+02  0.00000000000E+00 0.  1.
         11    1    3    3    0    0  0.79496607221E+01 -0.22115004953E+02 -0.59524101654E+01  0.24242560441E+02  0.51100000000E-03 0. -1.
        -11    1    3    3    0    0  0.32509312493E+01  0.21585407752E+01 -0.30207113746E+01  0.49348302641E+01  0.51100000000E-03 0.  1.
        -12    1    3    3    0    0 -0.18726527333E+02  0.35816023727E+02  0.15493464285E+02  0.43284152031E+02  0.00000000000E+00 0.  1.
</event>
<event>
 7    1  0.2655561E-013  0.7246154E+02  0.7816164E-02  0.1226708E+00
        -11   -1    0    0    0    0  0.00000000000E+00  0.00000000000E+00  0.45593999997E+02  0.45594000000E+02  0.51100000000E-03 0.  1.
         11   -1    0    0    0    0 -0.00000000000E+00 -0.00000000000E+00 -0.45593999997E+02  0.45594000000E+02  0.51100000000E-03 0. -1.
    9900012    2    1    2    0    0 -0.48293503311E+01  0.46148185570E+01 -0.17494606704E+02  0.72461536408E+02  0.69999955857E+02 0.  0.
        -12    1    1    2    0    0  0.48293503311E+01 -0.46148185570E+01  0.17494606704E+02  0.18726463592E+02  0.00000000000E+00 0.  1.
         11    1    3    3    0    0 -0.16533030387E+02  0.81639971213E+01  0.65213971603E+00  0.18450399162E+02  0.51100000000E-03 0. -1.
        -11    1    3    3    0    0 -0.10790986078E+02 -0.19595922834E+02 -0.13094950809E+02  0.25921483546E+02  0.51100000000E-03 0.  1.
         12    1    3    3    0    0  0.22494666133E+02  0.16046744270E+02 -0.50517956109E+01  0.28089653700E+02  0.00000000000E+00 0. -1.
</event>
<event>
 7    1  0.2655561E-013  0.7246155E+02  0.7816164E-02  0.1226708E+00
        -11   -1    0    0    0    0  0.00000000000E+00  0.00000000000E+00  0.45593999997E+02  0.45594000000E+02  0.51100000000E-03 0. -1.
         11   -1    0    0    0    0 -0.00000000000E+00 -0.00000000000E+00 -0.45593999997E+02  0.45594000000E+02  0.51100000000E-03 0.  1.
    9900012    2    1    2    0    0 -0.49354909388E+01  0.15009795014E+02  0.10051219986E+02  0.72461547042E+02  0.69999969710E+02 0.  0.
        -12    1    1    2    0    0  0.49354909388E+01 -0.15009795014E+02 -0.10051219986E+02  0.18726452958E+02  0.00000000000E+00 0.  1.
         11    1    3    3    0    0 -0.19429182802E+01 -0.19051956059E+02  0.27102776415E+02  0.33186027945E+02  0.51100000000E-03 0. -1.
        -11    1    3    3    0    0  0.73777339556E+00 -0.29775625764E+00 -0.61040911377E+00  0.10027800953E+01  0.51100000000E-03 0.  1.
        -12    1    3    3    0    0 -0.37303460541E+01  0.34359507331E+02 -0.16441147315E+02  0.38272739002E+02  0.00000000000E+00 0.  1.
</event>
<event>
 7    1  0.2655561E-013  0.7246153E+02  0.7816164E-02  0.1226708E+00
        -11   -1    0    0    0    0  0.00000000000E+00  0.00000000000E+00  0.45593999997E+02  0.45594000000E+02  0.51100000000E-03 0.  1.
         11   -1    0    0    0    0 -0.00000000000E+00 -0.00000000000E+00 -0.45593999997E+02  0.45594000000E+02  0.51100000000E-03 0. -1.
    9900012    2    1    2    0    0  0.14486432244E+02 -0.58260671085E+01 -0.10338329108E+02  0.72461526070E+02  0.69999942390E+02 0.  0.
        -12    1    1    2    0    0 -0.14486432244E+02  0.58260671085E+01  0.10338329108E+02  0.18726473930E+02  0.00000000000E+00 0.  1.
         11    1    3    3    0    0 -0.69941682249E+01  0.43227326240E+01 -0.82930815342E+01  0.11678168011E+02  0.51100000000E-03 0. -1.
        -11    1    3    3    0    0 -0.58084538921E+01  0.68162477404E+01  0.19933670448E+02  0.21852930871E+02  0.51100000000E-03 0.  1.
         12    1    3    3    0    0  0.27289054360E+02 -0.16965047473E+02 -0.21978918022E+02  0.38930427188E+02  0.00000000000E+00 0. -1.
</event>
<event>
 7    1  0.2655561E-013  0.7246152E+02  0.7816164E-02  0.1226708E+00
        -11   -1    0    0    0    0  0.00000000000E+00  0.00000000000E+00  0.45593999997E+02  0.45594000000E+02  0.51100000000E-03 0.  1.
         11   -1    0    0    0    0 -0.00000000000E+00 -0.00000000000E+00 -0.45593999997E+02  0.45594000000E+02  0.51100000000E-03 0. -1.
    9900012    2    1    2    0    0 -0.21489040788E+01  0.61277902278E+01 -0.17564546372E+02  0.72461524328E+02  0.69999940121E+02 0.  0.
        -12    1    1    2    0    0  0.21489040788E+01 -0.61277902278E+01  0.17564546372E+02  0.18726475672E+02  0.00000000000E+00 0.  1.
         11    1    3    3    0    0 -0.70730263712E+01 -0.72899455140E+00  0.45651591989E+00  0.71251345356E+01  0.51100000000E-03 0. -1.
        -11    1    3    3    0    0  0.13405647502E+02  0.24529520959E+02  0.11229390822E+02  0.30124873476E+02  0.51100000000E-03 0.  1.
         12    1    3    3    0    0 -0.84815252092E+01 -0.17672736180E+02 -0.29250453114E+02  0.35211516317E+02  0.00000000000E+00 0. -1.
</event>
<event>
 7    1  0.2655561E-013  0.7246155E+02  0.7816164E-02  0.1226708E+00
        -11   -1    0    0    0    0  0.00000000000E+00  0.00000000000E+00  0.45593999997E+02  0.45594000000E+02  0.51100000000E-03 0.  1.
         11   -1    0    0    0    0 -0.00000000000E+00 -0.00000000000E+00 -0.45593999997E+02  0.45594000000E+02  0.51100000000E-03 0. -1.
    9900012    2    1    2    0    0 -0.45335156399E+01  0.15940817650E+02 -0.87187998890E+01  0.72461550713E+02  0.69999974491E+02 0.  0.
        -12    1    1    2    0    0  0.45335156399E+01 -0.15940817650E+02  0.87187998890E+01  0.18726449287E+02  0.00000000000E+00 0.  1.
         11    1    3    3    0    0 -0.10720540974E+01 -0.12624299716E+02  0.75965564352E+01  0.14772606853E+02  0.51100000000E-03 0. -1.
        -11    1    3    3    0    0  0.56116946792E+01 -0.10734894480E+02 -0.12123514642E+02  0.17137931153E+02  0.51100000000E-03 0.  1.
         12    1    3    3    0    0 -0.90731562217E+01  0.39300011845E+02 -0.41918416819E+01  0.40551012707E+02  0.00000000000E+00 0. -1.
</event>
<event>
 7    1  0.2655561E-013  0.7246157E+02  0.7816164E-02  0.1226708E+00
        -11   -1    0    0    0    0  0.00000000000E+00  0.00000000000E+00  0.45593999997E+02  0.45594000000E+02  0.51100000000E-03 0. -1.
         11   -1    0    0    0    0 -0.00000000000E+00 -0.00000000000E+00 -0.45593999997E+02  0.45594000000E+02  0.51100000000E-03 0.  1.
    9900012    2    1    2    0    0 -0.10496614209E+02  0.12548298871E+01  0.15457219091E+02  0.72461571351E+02  0.70000001377E+02 0.  0.
        -12    1    1    2    0    0  0.10496614209E+02 -0.12548298871E+01 -0.15457219091E+02  0.18726428649E+02  0.00000000000E+00 0.  1.
         11    1    3    3    0    0 -0.19924786707E+02  0.54355334295E+01  0.95185386121E+00  0.20674819830E+02  0.51100000000E-03 0. -1.
        -11    1    3    3    0    0  0.61942669240E+00  0.16558527768E+02 -0.93058326000E+01  0.19004395595E+02  0.51100000000E-03 0.  1.
         12    1    3    3    0    0  0.88087458047E+01 -0.20739231311E+02  0.23811197830E+02  0.32782355927E+02  0.00000000000E+00 0. -1.
</event>
<event>
 7    1  0.2655561E-013  0.7246158E+02  0.7816164E-02  0.1226708E+00
        -11   -1    0    0    0    0  0.00000000000E+00  0.00000000000E+00  0.45593999997E+02  0.45594000000E+02  0.51100000000E-03 0. -1.
         11   -1    0    0    0    0 -0.00000000000E+00 -0.00000000000E+00 -0.45593999997E+02  0.45594000000E+02  0.51100000000E-03 0.  1.
    9900012    2    1    2    0    0  0.37181109947E+01  0.48713083244E+01  0.17695332920E+02  0.72461580125E+02  0.70000012807E+02 0.  0.
        -12    1    1    2    0    0 -0.37181109947E+01 -0.48713083244E+01 -0.17695332920E+02  0.18726419875E+02  0.00000000000E+00 0.  1.
         11    1    3    3    0    0  0.76140116857E+00  0.35321439939E+01 -0.15076575120E+02  0.15503512201E+02  0.51100000000E-03 0. -1.
        -11    1    3    3    0    0  0.75531388923E+00  0.17030162427E+00 -0.12046024163E+02  0.12070882325E+02  0.51100000000E-03 0.  1.
         12    1    3    3    0    0  0.22013959369E+01  0.11688627062E+01  0.44817932203E+02  0.44887185600E+02  0.00000000000E+00 0. -1.
</event>
<event>
 7    1  0.2655561E-013  0.7246157E+02  0.7816164E-02  0.1226708E+00
        -11   -1    0    0    0    0  0.00000000000E+00  0.00000000000E+00  0.45593999997E+02  0.45594000000E+02  0.51100000000E-03 0.  1.
         11   -1    0    0    0    0 -0.00000000000E+00 -0.00000000000E+00 -0.45593999997E+02  0.45594000000E+02  0.51100000000E-03 0. -1.
    9900012    2    1    2    0    0  0.13379181191E+02 -0.10038317695E+02 -0.84207471677E+01  0.72461566961E+02  0.69999995658E+02 0.  0.
        -12    1    1    2    0    0 -0.13379181191E+02  0.10038317695E+02  0.84207471677E+01  0.18726433039E+02  0.00000000000E+00 0.  1.
         11    1    3    3    0    0  0.31104414583E+02  0.60710740219E+01  0.52859878192E+01  0.32129180098E+02  0.51100000000E-03 0. -1.
        -11    1    3    3    0    0  0.72512825347E+01 -0.12054254213E+01 -0.76767846362E+01  0.10628601576E+02  0.51100000000E-03 0.  1.
        -12    1    3    3    0    0 -0.24976515926E+02 -0.14903966296E+02 -0.60299503507E+01  0.29703785287E+02  0.00000000000E+00 0.  1.
</event>
<event>
 7    1  0.2655561E-013  0.7246158E+02  0.7816164E-02  0.1226708E+00
        -11   -1    0    0    0    0  0.00000000000E+00  0.00000000000E+00  0.45593999997E+02  0.45594000000E+02  0.51100000000E-03 0. -1.
         11   -1    0    0    0    0 -0.00000000000E+00 -0.00000000000E+00 -0.45593999997E+02  0.45594000000E+02  0.51100000000E-03 0.  1.
    9900012    2    1    2    0    0 -0.14603837316E+02  0.11718987329E+02  0.26865360941E+00  0.72461577407E+02  0.70000009265E+02 0.  0.
        -12    1    1    2    0    0  0.14603837316E+02 -0.11718987329E+02 -0.26865360941E+00  0.18726422593E+02  0.00000000000E+00 0.  1.
         11    1    3    3    0    0 -0.13689164009E+02 -0.20618529638E+00  0.93367652684E+01  0.16571388282E+02  0.51100000000E-03 0. -1.
        -11    1    3    3    0    0 -0.77942534691E+00 -0.16393214168E+02 -0.19700850706E+02  0.25641148442E+02  0.51100000000E-03 0.  1.
         12    1    3    3    0    0 -0.13524796004E+00  0.28318386793E+02  0.10632739047E+02  0.30249040683E+02  0.00000000000E+00 0. -1.
</event>
<event>
 7    1  0.2655561E-013  0.7246156E+02  0.7816164E-02  0.1226708E+00
        -11   -1    0    0    0    0  0.00000000000E+00  0.00000000000E+00  0.45593999997E+02  0.45594000000E+02  0.51100000000E-03 0. -1.
         11   -1    0    0    0    0 -0.00000000000E+00 -0.00000000000E+00 -0.45593999997E+02  0.45594000000E+02  0.51100000000E-03 0.  1.
    9900012    2    1    2    0    0  0.25606872933E+00 -0.11320445478E+02  0.14915147936E+02  0.72461556265E+02  0.69999981724E+02 0.  0.
        -12    1    1    2    0    0 -0.25606872933E+00  0.11320445478E+02 -0.14915147936E+02  0.18726443735E+02  0.00000000000E+00 0.  1.
         11    1    3    3    0    0  0.15088594027E+01  0.26465390508E+01 -0.57962069543E+01  0.65480410019E+01  0.51100000000E-03 0. -1.
        -11    1    3    3    0    0 -0.24404017059E+02  0.61112089673E+01 -0.53092740294E+01  0.25711696067E+02  0.51100000000E-03 0.  1.
         12    1    3    3    0    0  0.23151226386E+02 -0.20078193496E+02  0.26020628920E+02  0.40201819195E+02  0.00000000000E+00 0. -1.
</event>
<event>
 7    1  0.2655561E-013  0.7246163E+02  0.7816164E-02  0.1226708E+00
        -11   -1    0    0    0    0  0.00000000000E+00  0.00000000000E+00  0.45593999997E+02  0.45594000000E+02  0.51100000000E-03 0.  1.
         11   -1    0    0    0    0 -0.00000000000E+00 -0.00000000000E+00 -0.45593999997E+02  0.45594000000E+02  0.51100000000E-03 0. -1.
    9900012    2    1    2    0    0 -0.12161675430E+02  0.14154524390E+02 -0.15556408018E+01  0.72461630137E+02  0.70000077956E+02 0.  0.
        -12    1    1    2    0    0  0.12161675430E+02 -0.14154524390E+02  0.15556408018E+01  0.18726369863E+02  0.00000000000E+00 0.  1.
         11    1    3    3    0    0  0.22587603941E+02 -0.73481075063E+01 -0.19077787207E+01  0.23829270984E+02  0.51100000000E-03 0. -1.
        -11    1    3    3    0    0 -0.41258384569E+01 -0.24085049894E+01  0.77282070816E+01  0.90856273429E+01  0.51100000000E-03 0.  1.
        -12    1    3    3    0    0 -0.30623440914E+02  0.23911136885E+02 -0.73760691628E+01  0.39546731810E+02  0.00000000000E+00 0.  1.
</event>
<event>
 7    1  0.2655561E-013  0.7246156E+02  0.7816164E-02  0.1226708E+00
        -11   -1    0    0    0    0  0.00000000000E+00  0.00000000000E+00  0.45593999997E+02  0.45594000000E+02  0.51100000000E-03 0. -1.
         11   -1    0    0    0    0 -0.00000000000E+00 -0.00000000000E+00 -0.45593999997E+02  0.45594000000E+02  0.51100000000E-03 0.  1.
    9900012    2    1    2    0    0 -0.14941329793E+02 -0.28620563415E+01  0.10919936073E+02  0.72461555962E+02  0.69999981329E+02 0.  0.
        -12    1    1    2    0    0  0.14941329793E+02  0.28620563415E+01 -0.10919936073E+02  0.18726444038E+02  0.00000000000E+00 0.  1.
         11    1    3    3    0    0  0.91339794753E+01 -0.22810415426E+02  0.18045073385E+01  0.24637387847E+02  0.51100000000E-03 0. -1.
        -11    1    3    3    0    0 -0.63710363556E+01  0.27101259340E+02  0.59535332724E+01  0.28469508614E+02  0.51100000000E-03 0.  1.
         12    1    3    3    0    0 -0.17704272913E+02 -0.71529002558E+01  0.31618954621E+01  0.19354659500E+02  0.00000000000E+00 0. -1.
</event>
<event>
 7    1  0.2655561E-013  0.7246156E+02  0.7816164E-02  0.1226708E+00
        -11   -1    0    0    0    0  0.00000000000E+00  0.00000000000E+00  0.45593999997E+02  0.45594000000E+02  0.51100000000E-03 0.  1.
         11   -1    0    0    0    0 -0.00000000000E+00 -0.00000000000E+00 -0.45593999997E+02  0.45594000000E+02  0.51100000000E-03 0. -1.
    9900012    2    1    2    0    0  0.60585449217E+01  0.90295138285E+01 -0.15246035325E+02  0.72461556673E+02  0.69999982256E+02 0.  0.
        -12    1    1    2    0    0 -0.60585449217E+01 -0.90295138285E+01  0.15246035325E+02  0.18726443327E+02  0.00000000000E+00 0.  1.
         11    1    3    3    0    0  0.77934532454E+00  0.10379647039E+02 -0.38959055972E+01  0.11114069123E+02  0.51100000000E-03 0. -1.
        -11    1    3    3    0    0  0.98797043879E+01 -0.17096774253E+02 -0.30373322684E+02  0.36227710109E+02  0.51100000000E-03 0.  1.
         12    1    3    3    0    0 -0.46005047907E+01  0.15746641042E+02  0.19023192956E+02  0.25119777441E+02  0.00000000000E+00 0. -1.
</event>
<event>
 7    1  0.2655561E-013  0.7246145E+02  0.7816164E-02  0.1226708E+00
        -11   -1    0    0    0    0  0.00000000000E+00  0.00000000000E+00  0.45593999997E+02  0.45594000000E+02  0.51100000000E-03 0. -1.
         11   -1    0    0    0    0 -0.00000000000E+00 -0.00000000000E+00 -0.45593999997E+02  0.45594000000E+02  0.51100000000E-03 0.  1.
    9900012    2    1    2    0    0  0.48932852505E+01 -0.12295751824E+02  0.13249678406E+02  0.72461448493E+02  0.69999841331E+02 0.  0.
        -12    1    1    2    0    0 -0.48932852505E+01  0.12295751824E+02 -0.13249678406E+02  0.18726551507E+02  0.00000000000E+00 0.  1.
         11    1    3    3    0    0  0.84709508133E+01 -0.13520110242E+02 -0.16327116304E+02  0.22828164965E+02  0.51100000000E-03 0. -1.
        -11    1    3    3    0    0  0.12118425319E+02  0.32386770503E+01 -0.34512366609E+01  0.13009853804E+02  0.51100000000E-03 0.  1.
         12    1    3    3    0    0 -0.15696090882E+02 -0.20143186327E+01  0.33028031371E+02  0.36623429724E+02  0.00000000000E+00 0. -1.
</event>
<event>
 7    1  0.2655561E-013  0.7246161E+02  0.7816164E-02  0.1226708E+00
        -11   -1    0    0    0    0  0.00000000000E+00  0.00000000000E+00  0.45593999997E+02  0.45594000000E+02  0.51100000000E-03 0.  1.
         11   -1    0    0    0    0 -0.00000000000E+00 -0.00000000000E+00 -0.45593999997E+02  0.45594000000E+02  0.51100000000E-03 0. -1.
    9900012    2    1    2    0    0  0.87462904512E+01  0.14371156525E+02 -0.82249671080E+01  0.72461606314E+02  0.70000046923E+02 0.  0.
        -12    1    1    2    0    0 -0.87462904512E+01 -0.14371156525E+02  0.82249671080E+01  0.18726393686E+02  0.00000000000E+00 0.  1.
         11    1    3    3    0    0  0.55775049285E+01  0.22469959291E+02 -0.10599829901E+02  0.25462993264E+02  0.51100000000E-03 0. -1.
        -11    1    3    3    0    0 -0.15429856796E+02  0.11835271041E+02  0.32781123918E+01  0.19720551272E+02  0.51100000000E-03 0.  1.
        -12    1    3    3    0    0  0.18598642319E+02 -0.19934073806E+02 -0.90324959858E+00  0.27278061779E+02  0.00000000000E+00 0.  1.
</event>
<event>
 7    1  0.2655561E-013  0.7246156E+02  0.7816164E-02  0.1226708E+00
        -11   -1    0    0    0    0  0.00000000000E+00  0.00000000000E+00  0.45593999997E+02  0.45594000000E+02  0.51100000000E-03 0. -1.
         11   -1    0    0    0    0 -0.00000000000E+00 -0.00000000000E+00 -0.45593999997E+02  0.45594000000E+02  0.51100000000E-03 0.  1.
    9900012    2    1    2    0    0  0.14489936417E+02 -0.80056544463E+01  0.87539073637E+01  0.72461557342E+02  0.69999983128E+02 0.  0.
        -12    1    1    2    0    0 -0.14489936417E+02  0.80056544463E+01 -0.87539073637E+01  0.18726442658E+02  0.00000000000E+00 0.  1.
         11    1    3    3    0    0  0.66123368565E+01 -0.29956537638E+02  0.21236663779E+02  0.37311031006E+02  0.51100000000E-03 0. -1.
        -11    1    3    3    0    0 -0.48128140486E+01  0.57077142212E+01 -0.12474154383E+02  0.14537733954E+02  0.51100000000E-03 0.  1.
        -12    1    3    3    0    0  0.12690413609E+02  0.16243168971E+02 -0.86020326794E-02  0.20612792382E+02  0.00000000000E+00 0.  1.
</event>
<event>
 7    1  0.2655561E-013  0.7246153E+02  0.7816164E-02  0.1226708E+00
        -11   -1    0    0    0    0  0.00000000000E+00  0.00000000000E+00  0.45593999997E+02  0.45594000000E+02  0.51100000000E-03 0.  1.
         11   -1    0    0    0    0 -0.00000000000E+00 -0.00000000000E+00 -0.45593999997E+02  0.45594000000E+02  0.51100000000E-03 0. -1.
    9900012    2    1    2    0    0 -0.45772495913E+01 -0.16632288118E+02  0.72867205530E+01  0.72461534282E+02  0.69999953087E+02 0.  0.
        -12    1    1    2    0    0  0.45772495913E+01  0.16632288118E+02 -0.72867205530E+01  0.18726465718E+02  0.00000000000E+00 0.  1.
         11    1    3    3    0    0 -0.10045141887E+00  0.15785618624E+01 -0.12844640390E+01  0.20375956835E+01  0.51100000000E-03 0. -1.
        -11    1    3    3    0    0  0.10974078797E+02  0.77735772976E+01  0.30329168255E+02  0.33177060700E+02  0.51100000000E-03 0.  1.
         12    1    3    3    0    0 -0.15450876969E+02 -0.25984427278E+02 -0.21757983663E+02  0.37246877898E+02  0.00000000000E+00 0. -1.
</event>
<event>
 7    1  0.2655561E-013  0.7246152E+02  0.7816164E-02  0.1226708E+00
        -11   -1    0    0    0    0  0.00000000000E+00  0.00000000000E+00  0.45593999997E+02  0.45594000000E+02  0.51100000000E-03 0. -1.
         11   -1    0    0    0    0 -0.00000000000E+00 -0.00000000000E+00 -0.45593999997E+02  0.45594000000E+02  0.51100000000E-03 0.  1.
    9900012    2    1    2    0    0  0.12635957865E+02  0.76758174651E+01 -0.11493284130E+02  0.72461516480E+02  0.69999929897E+02 0.  0.
        -12    1    1    2    0    0 -0.12635957865E+02 -0.76758174651E+01  0.11493284130E+02  0.18726483520E+02  0.00000000000E+00 0.  1.
         11    1    3    3    0    0  0.16264574877E+02 -0.84198094934E+01 -0.53530548978E+01  0.19081005866E+02  0.51100000000E-03 0. -1.
        -11    1    3    3    0    0  0.22085558266E+02 -0.10498891424E+01 -0.20606637561E+01  0.22206316365E+02  0.51100000000E-03 0.  1.
         12    1    3    3    0    0 -0.25714175278E+02  0.17145516101E+02 -0.40795654761E+01  0.31174194249E+02  0.00000000000E+00 0. -1.
</event>
<event>
 7    1  0.2655561E-013  0.7246109E+02  0.7816164E-02  0.1226709E+00
        -11   -1    0    0    0    0  0.00000000000E+00  0.00000000000E+00  0.45593999997E+02  0.45594000000E+02  0.51100000000E-03 0. -1.
         11   -1    0    0    0    0 -0.00000000000E+00 -0.00000000000E+00 -0.45593999997E+02  0.45594000000E+02  0.51100000000E-03 0.  1.
    9900012    2    1    2    0    0 -0.77820006198E+01 -0.83524268844E+01  0.14845016144E+02  0.72461092278E+02  0.69999377292E+02 0.  0.
        -12    1    1    2    0    0  0.77820006198E+01  0.83524268844E+01 -0.14845016144E+02  0.18726907722E+02  0.00000000000E+00 0.  1.
         11    1    3    3    0    0 -0.10373298919E+02 -0.22805975455E+02  0.13842076576E+02  0.28623782614E+02  0.51100000000E-03 0. -1.
        -11    1    3    3    0    0 -0.97233407531E+01 -0.11501638458E+02  0.11950403353E+01  0.15108248221E+02  0.51100000000E-03 0.  1.
        -12    1    3    3    0    0  0.12314639052E+02  0.25955187029E+02 -0.19210076700E+00  0.28729061444E+02  0.00000000000E+00 0.  1.
</event>
<event>
 7    1  0.2655561E-013  0.7246155E+02  0.7816164E-02  0.1226708E+00
        -11   -1    0    0    0    0  0.00000000000E+00  0.00000000000E+00  0.45593999997E+02  0.45594000000E+02  0.51100000000E-03 0.  1.
         11   -1    0    0    0    0 -0.00000000000E+00 -0.00000000000E+00 -0.45593999997E+02  0.45594000000E+02  0.51100000000E-03 0. -1.
    9900012    2    1    2    0    0  0.88847671896E+01  0.99235036595E+01 -0.13163007397E+02  0.72461554084E+02  0.69999978883E+02 0.  0.
        -12    1    1    2    0    0 -0.88847671896E+01 -0.99235036595E+01  0.13163007397E+02  0.18726445916E+02  0.00000000000E+00 0.  1.
         11    1    3    3    0    0  0.64538850341E+01 -0.61847039280E+01 -0.29199724467E+02  0.30537306756E+02  0.51100000000E-03 0. -1.
        -11    1    3    3    0    0 -0.11843516972E+02  0.20159792982E+02  0.13090229317E+02  0.26796273084E+02  0.51100000000E-03 0.  1.
        -12    1    3    3    0    0  0.14274399128E+02 -0.40515853944E+01  0.29464877520E+01  0.15127974244E+02  0.00000000000E+00 0.  1.
</event>
<event>
 7    1  0.2655561E-013  0.7246164E+02  0.7816164E-02  0.1226708E+00
        -11   -1    0    0    0    0  0.00000000000E+00  0.00000000000E+00  0.45593999997E+02  0.45594000000E+02  0.51100000000E-03 0. -1.
         11   -1    0    0    0    0 -0.00000000000E+00 -0.00000000000E+00 -0.45593999997E+02  0.45594000000E+02  0.51100000000E-03 0.  1.
    9900012    2    1    2    0    0 -0.92784046813E+01  0.25989222695E+01  0.16057187255E+02  0.72461642828E+02  0.70000094489E+02 0.  0.
        -12    1    1    2    0    0  0.92784046813E+01 -0.25989222695E+01 -0.16057187255E+02  0.18726357172E+02  0.00000000000E+00 0.  1.
         11    1    3    3    0    0 -0.46007198294E+01 -0.14164869750E+01 -0.11365371628E+02  0.12342800768E+02  0.51100000000E-03 0. -1.
        -11    1    3    3    0    0 -0.24642240504E+02 -0.68065641550E+01  0.14321610105E+01  0.25605085785E+02  0.51100000000E-03 0.  1.
         12    1    3    3    0    0  0.19964555652E+02  0.10821973399E+02  0.25990397873E+02  0.34513756275E+02  0.00000000000E+00 0. -1.
</event>
<event>
 7    1  0.2655561E-013  0.7246156E+02  0.7816164E-02  0.1226708E+00
        -11   -1    0    0    0    0  0.00000000000E+00  0.00000000000E+00  0.45593999997E+02  0.45594000000E+02  0.51100000000E-03 0.  1.
         11   -1    0    0    0    0 -0.00000000000E+00 -0.00000000000E+00 -0.45593999997E+02  0.45594000000E+02  0.51100000000E-03 0. -1.
    9900012    2    1    2    0    0 -0.50790206828E+01  0.15073526831E+02 -0.98829093891E+01  0.72461559863E+02  0.69999986411E+02 0.  0.
        -12    1    1    2    0    0  0.50790206828E+01 -0.15073526831E+02  0.98829093891E+01  0.18726440137E+02  0.00000000000E+00 0.  1.
         11    1    3    3    0    0  0.19612525343E+01 -0.14404207912E+02 -0.26001907586E+02  0.29789711570E+02  0.51100000000E-03 0. -1.
        -11    1    3    3    0    0  0.22574572700E+01  0.11517739359E+01 -0.53589606189E+01  0.59279976131E+01  0.51100000000E-03 0.  1.
        -12    1    3    3    0    0 -0.92977304870E+01  0.28325960807E+02  0.21477958816E+02  0.36743850679E+02  0.00000000000E+00 0.  1.
</event>
<event>
 7    1  0.2655561E-013  0.7246153E+02  0.7816164E-02  0.1226708E+00
        -11   -1    0    0    0    0  0.00000000000E+00  0.00000000000E+00  0.45593999997E+02  0.45594000000E+02  0.51100000000E-03 0.  1.
         11   -1    0    0    0    0 -0.00000000000E+00 -0.00000000000E+00 -0.45593999997E+02  0.45594000000E+02  0.51100000000E-03 0. -1.
    9900012    2    1    2    0    0 -0.10852675935E+02 -0.11619668500E+02 -0.98935961018E+01  0.72461534374E+02  0.69999953208E+02 0.  0.
        -12    1    1    2    0    0  0.10852675935E+02  0.11619668500E+02  0.98935961018E+01  0.18726465626E+02  0.00000000000E+00 0.  1.
         11    1    3    3    0    0  0.54920606251E+01 -0.51519224763E+01  0.12390332845E+02  0.14499151126E+02  0.51100000000E-03 0. -1.
        -11    1    3    3    0    0 -0.12524898267E+02 -0.56275648338E+01  0.15079700937E+02  0.20394605737E+02  0.51100000000E-03 0.  1.
         12    1    3    3    0    0 -0.38198382928E+01 -0.84018119021E+00 -0.37363629884E+02  0.37567777511E+02  0.00000000000E+00 0. -1.
</event>
<event>
 7    1  0.2655561E-013  0.7246157E+02  0.7816164E-02  0.1226708E+00
        -11   -1    0    0    0    0  0.00000000000E+00  0.00000000000E+00  0.45593999997E+02  0.45594000000E+02  0.51100000000E-03 0. -1.
         11   -1    0    0    0    0 -0.00000000000E+00 -0.00000000000E+00 -0.45593999997E+02  0.45594000000E+02  0.51100000000E-03 0.  1.
    9900012    2    1    2    0    0  0.63564939822E+00  0.14999717871E+02  0.11193011747E+02  0.72461572195E+02  0.70000002477E+02 0.  0.
        -12    1    1    2    0    0 -0.63564939822E+00 -0.14999717871E+02 -0.11193011747E+02  0.18726427805E+02  0.00000000000E+00 0.  1.
         11    1    3    3    0    0  0.78855720702E+01 -0.18622943545E+02  0.24439539311E+02  0.31722032645E+02  0.51100000000E-03 0. -1.
        -11    1    3    3    0    0  0.62677933105E+00 -0.40678119922E+00  0.23650907669E+01  0.24803180987E+01  0.51100000000E-03 0.  1.
        -12    1    3    3    0    0 -0.78767020030E+01  0.34029442615E+02 -0.15611618332E+02  0.38259221451E+02  0.00000000000E+00 0.  1.
</event>
<event>
 7    1  0.2655561E-013  0.7246151E+02  0.7816164E-02  0.1226708E+00
        -11   -1    0    0    0    0  0.00000000000E+00  0.00000000000E+00  0.45593999997E+02  0.45594000000E+02  0.51100000000E-03 0.  1.
         11   -1    0    0    0    0 -0.00000000000E+00 -0.00000000000E+00 -0.45593999997E+02  0.45594000000E+02  0.51100000000E-03 0. -1.
    9900012    2    1    2    0    0 -0.14528470578E+01  0.96058079637E+01 -0.16009346528E+02  0.72461508405E+02  0.69999919377E+02 0.  0.
        -12    1    1    2    0    0  0.14528470578E+01 -0.96058079637E+01  0.16009346528E+02  0.18726491595E+02  0.00000000000E+00 0.  1.
         11    1    3    3    0    0 -0.59219538376E+01  0.12865184381E+01 -0.11581808916E+02  0.13071456115E+02  0.51100000000E-03 0. -1.
        -11    1    3    3    0    0 -0.86652603011E+01 -0.19361171248E+02 -0.16072369750E+02  0.26613206456E+02  0.51100000000E-03 0.  1.
         12    1    3    3    0    0  0.13134367081E+02  0.27680460774E+02  0.11644832138E+02  0.32776845834E+02  0.00000000000E+00 0. -1.
</event>
<event>
 7    1  0.2655561E-013  0.7246157E+02  0.7816164E-02  0.1226708E+00
        -11   -1    0    0    0    0  0.00000000000E+00  0.00000000000E+00  0.45593999997E+02  0.45594000000E+02  0.51100000000E-03 0.  1.
         11   -1    0    0    0    0 -0.00000000000E+00 -0.00000000000E+00 -0.45593999997E+02  0.45594000000E+02  0.51100000000E-03 0. -1.
    9900012    2    1    2    0    0  0.80403987692E+01  0.20223961409E+00 -0.16911244956E+02  0.72461571638E+02  0.70000001751E+02 0.  0.
        -12    1    1    2    0    0 -0.80403987692E+01 -0.20223961409E+00  0.16911244956E+02  0.18726428362E+02  0.00000000000E+00 0.  1.
         11    1    3    3    0    0  0.49693251767E+01 -0.38537851445E+01 -0.18258160863E+02  0.19310781730E+02  0.51100000000E-03 0. -1.
        -11    1    3    3    0    0 -0.24373746332E+02  0.72094338380E+01  0.21964034902E+01  0.25512342799E+02  0.51100000000E-03 0.  1.
         12    1    3    3    0    0  0.27444819925E+02 -0.31534090794E+01 -0.84948758299E+00  0.27638447110E+02  0.00000000000E+00 0. -1.
</event>
<event>
 7    1  0.2655561E-013  0.7246159E+02  0.7816164E-02  0.1226708E+00
        -11   -1    0    0    0    0  0.00000000000E+00  0.00000000000E+00  0.45593999997E+02  0.45594000000E+02  0.51100000000E-03 0. -1.
         11   -1    0    0    0    0 -0.00000000000E+00 -0.00000000000E+00 -0.45593999997E+02  0.45594000000E+02  0.51100000000E-03 0.  1.
    9900012    2    1    2    0    0 -0.11128604346E+02 -0.94217496517E+01  0.11750023770E+02  0.72461594584E+02  0.70000031642E+02 0.  0.
        -12    1    1    2    0    0  0.11128604346E+02  0.94217496517E+01 -0.11750023770E+02  0.18726405416E+02  0.00000000000E+00 0.  1.
         11    1    3    3    0    0 -0.17274152387E+02  0.39478339738E+01  0.33409280678E+02  0.37817479682E+02  0.51100000000E-03 0. -1.
        -11    1    3    3    0    0  0.79885463642E+00 -0.32132654975E+01  0.47835741466E+01  0.58177165421E+01  0.51100000000E-03 0.  1.
        -12    1    3    3    0    0  0.53466934048E+01 -0.10156318128E+02 -0.26442831054E+02  0.28826398361E+02  0.00000000000E+00 0.  1.
</event>
<event>
 7    1  0.2655561E-013  0.7246155E+02  0.7816164E-02  0.1226708E+00
        -11   -1    0    0    0    0  0.00000000000E+00  0.00000000000E+00  0.45593999997E+02  0.45594000000E+02  0.51100000000E-03 0. -1.
         11   -1    0    0    0    0 -0.00000000000E+00 -0.00000000000E+00 -0.45593999997E+02  0.45594000000E+02  0.51100000000E-03 0.  1.
    9900012    2    1    2    0    0 -0.13790244550E+02  0.12607082637E+02 -0.12531657848E+01  0.72461553411E+02  0.69999978006E+02 0.  0.
        -12    1    1    2    0    0  0.13790244550E+02 -0.12607082637E+02  0.12531657848E+01  0.18726446589E+02  0.00000000000E+00 0.  1.
         11    1    3    3    0    0  0.89019235229E+01  0.82842793513E+01 -0.13086893351E+01  0.12230543521E+02  0.51100000000E-03 0. -1.
        -11    1    3    3    0    0 -0.22600852890E+02  0.85563744113E+00 -0.25704716025E+02  0.34238327835E+02  0.51100000000E-03 0.  1.
         12    1    3    3    0    0 -0.91315182554E-01  0.34671658449E+01  0.25760239575E+02  0.25992682055E+02  0.00000000000E+00 0. -1.
</event>
<event>
 7    1  0.2655561E-013  0.7246158E+02  0.7816164E-02  0.1226708E+00
        -11   -1    0    0    0    0  0.00000000000E+00  0.00000000000E+00  0.45593999997E+02  0.45594000000E+02  0.51100000000E-03 0.  1.
         11   -1    0    0    0    0 -0.00000000000E+00 -0.00000000000E+00 -0.45593999997E+02  0.45594000000E+02  0.51100000000E-03 0. -1.
    9900012    2    1    2    0    0  0.18447026217E+02 -0.46349003864E+00 -0.31892546371E+01  0.72461576305E+02  0.70000007830E+02 0.  0.
        -12    1    1    2    0    0 -0.18447026217E+02  0.46349003864E+00  0.31892546371E+01  0.18726423695E+02  0.00000000000E+00 0.  1.
         11    1    3    3    0    0 -0.13887087812E+02  0.98380726185E+01  0.34630503749E+01  0.17367544412E+02  0.51100000000E-03 0. -1.
        -11    1    3    3    0    0 -0.10325034765E+02 -0.48091171200E+01  0.89663919442E+00  0.11425318922E+02  0.51100000000E-03 0.  1.
         12    1    3    3    0    0  0.42659148794E+02 -0.54924455372E+01 -0.75489442065E+01  0.43668712970E+02  0.00000000000E+00 0. -1.
</event>
<event>
 7    1  0.2655561E-013  0.7246150E+02  0.7816164E-02  0.1226708E+00
        -11   -1    0    0    0    0  0.00000000000E+00  0.00000000000E+00  0.45593999997E+02  0.45594000000E+02  0.51100000000E-03 0.  1.
         11   -1    0    0    0    0 -0.00000000000E+00 -0.00000000000E+00 -0.45593999997E+02  0.45594000000E+02  0.51100000000E-03 0. -1.
    9900012    2    1    2    0    0 -0.16920821140E+02  0.77988408573E+00  0.79849499467E+01  0.72461499182E+02  0.69999907363E+02 0.  0.
        -12    1    1    2    0    0  0.16920821140E+02 -0.77988408573E+00 -0.79849499467E+01  0.18726500818E+02  0.00000000000E+00 0.  1.
         11    1    3    3    0    0 -0.13950544210E+01 -0.11578357827E+02  0.45873274781E+01  0.12531884155E+02  0.51100000000E-03 0. -1.
        -11    1    3    3    0    0  0.13700104828E+02 -0.65189599565E+01  0.16807567219E+02  0.22642526963E+02  0.51100000000E-03 0.  1.
         12    1    3    3    0    0 -0.29225871547E+02  0.18877201869E+02 -0.13409944751E+02  0.37287088064E+02  0.00000000000E+00 0. -1.
</event>
<event>
 7    1  0.2655561E-013  0.7246160E+02  0.7816164E-02  0.1226708E+00
        -11   -1    0    0    0    0  0.00000000000E+00  0.00000000000E+00  0.45593999997E+02  0.45594000000E+02  0.51100000000E-03 0.  1.
         11   -1    0    0    0    0 -0.00000000000E+00 -0.00000000000E+00 -0.45593999997E+02  0.45594000000E+02  0.51100000000E-03 0. -1.
    9900012    2    1    2    0    0  0.53301937496E+01 -0.29315964031E+00 -0.17949406669E+02  0.72461598644E+02  0.70000036931E+02 0.  0.
        -12    1    1    2    0    0 -0.53301937496E+01  0.29315964031E+00  0.17949406669E+02  0.18726401356E+02  0.00000000000E+00 0.  1.
         11    1    3    3    0    0 -0.11581670528E+02  0.14287899150E+02 -0.23162378261E+02  0.29576594146E+02  0.51100000000E-03 0.  1.
        -11    1    3    3    0    0 -0.55569088933E+01  0.71481306709E+01 -0.45576651559E+01  0.10136435294E+02  0.51100000000E-03 0. -1.
         12    1    3    3    0    0  0.22468773171E+02 -0.21729189461E+02  0.97706367478E+01  0.32748569204E+02  0.00000000000E+00 0. -1.
</event>
<event>
 7    1  0.2655561E-013  0.7246157E+02  0.7816164E-02  0.1226708E+00
        -11   -1    0    0    0    0  0.00000000000E+00  0.00000000000E+00  0.45593999997E+02  0.45594000000E+02  0.51100000000E-03 0.  1.
         11   -1    0    0    0    0 -0.00000000000E+00 -0.00000000000E+00 -0.45593999997E+02  0.45594000000E+02  0.51100000000E-03 0. -1.
    9900012    2    1    2    0    0  0.50872262229E+01 -0.14228518742E+02 -0.11061127613E+02  0.72461570540E+02  0.70000000321E+02 0.  0.
        -12    1    1    2    0    0 -0.50872262229E+01  0.14228518742E+02  0.11061127613E+02  0.18726429460E+02  0.00000000000E+00 0.  1.
         11    1    3    3    0    0  0.18851122116E+01  0.65343227561E+00  0.20176334890E+01  0.28375106953E+01  0.51100000000E-03 0. -1.
        -11    1    3    3    0    0 -0.22818889977E+02 -0.29623284539E+02 -0.11043175260E+01  0.37409360381E+02  0.51100000000E-03 0.  1.
         12    1    3    3    0    0  0.26021003989E+02  0.14741333522E+02 -0.11974443576E+02  0.32214699464E+02  0.00000000000E+00 0. -1.
</event>
<event>
 7    1  0.2655561E-013  0.7246155E+02  0.7816164E-02  0.1226708E+00
        -11   -1    0    0    0    0  0.00000000000E+00  0.00000000000E+00  0.45593999997E+02  0.45594000000E+02  0.51100000000E-03 0. -1.
         11   -1    0    0    0    0 -0.00000000000E+00 -0.00000000000E+00 -0.45593999997E+02  0.45594000000E+02  0.51100000000E-03 0.  1.
    9900012    2    1    2    0    0  0.13781444532E+02 -0.12231471307E+02 -0.33381013737E+01  0.72461547467E+02  0.69999970263E+02 0.  0.
        -12    1    1    2    0    0 -0.13781444532E+02  0.12231471307E+02  0.33381013737E+01  0.18726452533E+02  0.00000000000E+00 0.  1.
         11    1    3    3    0    0  0.13667645031E+02 -0.21523271957E+02 -0.11423504948E+02  0.27938364698E+02  0.51100000000E-03 0. -1.
        -11    1    3    3    0    0  0.45869960834E+01 -0.27832249447E+01 -0.16183464231E+02  0.17049674159E+02  0.51100000000E-03 0.  1.
         12    1    3    3    0    0 -0.44731965832E+01  0.12075025595E+02  0.24268867805E+02  0.27473508610E+02  0.00000000000E+00 0. -1.
</event>
<event>
 7    1  0.2655561E-013  0.7246157E+02  0.7816164E-02  0.1226708E+00
        -11   -1    0    0    0    0  0.00000000000E+00  0.00000000000E+00  0.45593999997E+02  0.45594000000E+02  0.51100000000E-03 0.  1.
         11   -1    0    0    0    0 -0.00000000000E+00 -0.00000000000E+00 -0.45593999997E+02  0.45594000000E+02  0.51100000000E-03 0. -1.
    9900012    2    1    2    0    0 -0.15641779815E+02  0.55539446750E+01 -0.86699234891E+01  0.72461570801E+02  0.70000000660E+02 0.  0.
        -12    1    1    2    0    0  0.15641779815E+02 -0.55539446750E+01  0.86699234891E+01  0.18726429199E+02  0.00000000000E+00 0.  1.
         11    1    3    3    0    0 -0.24690708322E+02 -0.61824950715E+01 -0.30153720856E+02  0.39460121699E+02  0.51100000000E-03 0. -1.
        -11    1    3    3    0    0  0.36077667734E+01 -0.46483785067E+01  0.61404299609E+00  0.59161180596E+01  0.51100000000E-03 0.  1.
        -12    1    3    3    0    0  0.54411617342E+01  0.16384818253E+02  0.20869754371E+02  0.27085331043E+02  0.00000000000E+00 0.  1.
</event>
<event>
 7    1  0.2655561E-013  0.7246153E+02  0.7816164E-02  0.1226708E+00
        -11   -1    0    0    0    0  0.00000000000E+00  0.00000000000E+00  0.45593999997E+02  0.45594000000E+02  0.51100000000E-03 0. -1.
         11   -1    0    0    0    0 -0.00000000000E+00 -0.00000000000E+00 -0.45593999997E+02  0.45594000000E+02  0.51100000000E-03 0.  1.
    9900012    2    1    2    0    0  0.13212134023E+02 -0.34914440674E+01  0.12803521871E+02  0.72461525707E+02  0.69999941917E+02 0.  0.
        -12    1    1    2    0    0 -0.13212134023E+02  0.34914440674E+01 -0.12803521871E+02  0.18726474293E+02  0.00000000000E+00 0.  1.
         11    1    3    3    0    0 -0.64375716136E+01  0.20910646171E+02  0.54902530360E+01  0.22557489448E+02  0.51100000000E-03 0. -1.
        -11    1    3    3    0    0  0.16479620384E+02 -0.16387137952E+02 -0.13849005133E+02  0.27053855949E+02  0.51100000000E-03 0.  1.
         12    1    3    3    0    0  0.31700852532E+01 -0.80149522865E+01  0.21162273969E+02  0.22850180310E+02  0.00000000000E+00 0. -1.
</event>
<event>
 7    1  0.2655561E-013  0.7246175E+02  0.7816164E-02  0.1226708E+00
        -11   -1    0    0    0    0  0.00000000000E+00  0.00000000000E+00  0.45593999997E+02  0.45594000000E+02  0.51100000000E-03 0.  1.
         11   -1    0    0    0    0 -0.00000000000E+00 -0.00000000000E+00 -0.45593999997E+02  0.45594000000E+02  0.51100000000E-03 0. -1.
    9900012    2    1    2    0    0  0.12982977440E+01  0.12405293876E+02 -0.13967662615E+02  0.72461748583E+02  0.70000232254E+02 0.  0.
        -12    1    1    2    0    0 -0.12982977440E+01 -0.12405293876E+02  0.13967662615E+02  0.18726251417E+02  0.00000000000E+00 0.  1.
         11    1    3    3    0    0 -0.22872006613E+01 -0.13141959470E+01 -0.27603043134E+02  0.27728800702E+02  0.51100000000E-03 0. -1.
        -11    1    3    3    0    0 -0.10154238709E+02 -0.66120846204E+01 -0.57961516896E+01  0.13432185282E+02  0.51100000000E-03 0.  1.
        -12    1    3    3    0    0  0.13739737114E+02  0.20331574444E+02  0.19431532209E+02  0.31300762599E+02  0.00000000000E+00 0.  1.
</event>
<event>
 7    1  0.2655561E-013  0.7246154E+02  0.7816164E-02  0.1226708E+00
        -11   -1    0    0    0    0  0.00000000000E+00  0.00000000000E+00  0.45593999997E+02  0.45594000000E+02  0.51100000000E-03 0. -1.
         11   -1    0    0    0    0 -0.00000000000E+00 -0.00000000000E+00 -0.45593999997E+02  0.45594000000E+02  0.51100000000E-03 0.  1.
    9900012    2    1    2    0    0 -0.14991127618E+02 -0.49997818885E+01  0.10047311794E+02  0.72461542768E+02  0.69999964141E+02 0.  0.
        -12    1    1    2    0    0  0.14991127618E+02  0.49997818885E+01 -0.10047311794E+02  0.18726457232E+02  0.00000000000E+00 0.  1.
         11    1    3    3    0    0  0.13153968878E+01  0.62301417186E+01  0.57568946717E+00  0.63934617720E+01  0.51100000000E-03 0. -1.
        -11    1    3    3    0    0  0.18353249531E+02  0.11248642085E+02 -0.53462721954E+01  0.22180088903E+02  0.51100000000E-03 0.  1.
         12    1    3    3    0    0 -0.34659774036E+02 -0.22478565692E+02  0.14817894523E+02  0.43887992093E+02  0.00000000000E+00 0. -1.
</event>
<event>
 7    1  0.2655561E-013  0.7246176E+02  0.7816164E-02  0.1226708E+00
        -11   -1    0    0    0    0  0.00000000000E+00  0.00000000000E+00  0.45593999997E+02  0.45594000000E+02  0.51100000000E-03 0.  1.
         11   -1    0    0    0    0 -0.00000000000E+00 -0.00000000000E+00 -0.45593999997E+02  0.45594000000E+02  0.51100000000E-03 0. -1.
    9900012    2    1    2    0    0  0.18370081232E+01  0.13779243128E+02 -0.12547111045E+02  0.72461758102E+02  0.70000244654E+02 0.  0.
        -12    1    1    2    0    0 -0.18370081232E+01 -0.13779243128E+02  0.12547111045E+02  0.18726241898E+02  0.00000000000E+00 0.  1.
         11    1    3    3    0    0  0.16691403868E+01  0.24943433109E+02 -0.14953946483E+02  0.29130420536E+02  0.51100000000E-03 0. -1.
        -11    1    3    3    0    0  0.10874802829E+02  0.72416752230E+01 -0.11904463221E+02  0.17675390843E+02  0.51100000000E-03 0.  1.
        -12    1    3    3    0    0 -0.10706935093E+02 -0.18405865204E+02  0.14311298659E+02  0.25655946724E+02  0.00000000000E+00 0.  1.
</event>
<event>
 7    1  0.2655561E-013  0.7246149E+02  0.7816164E-02  0.1226708E+00
        -11   -1    0    0    0    0  0.00000000000E+00  0.00000000000E+00  0.45593999997E+02  0.45594000000E+02  0.51100000000E-03 0. -1.
         11   -1    0    0    0    0 -0.00000000000E+00 -0.00000000000E+00 -0.45593999997E+02  0.45594000000E+02  0.51100000000E-03 0.  1.
    9900012    2    1    2    0    0  0.75552738171E+01 -0.14926120519E+02  0.84149130872E+01  0.72461494761E+02  0.69999901603E+02 0.  0.
        -12    1    1    2    0    0 -0.75552738171E+01  0.14926120519E+02 -0.84149130872E+01  0.18726505239E+02  0.00000000000E+00 0.  1.
         11    1    3    3    0    0 -0.14336632743E+02  0.59078397879E+01  0.11138285772E+02  0.19091962172E+02  0.51100000000E-03 0. -1.
        -11    1    3    3    0    0 -0.28453766269E+01 -0.26186311617E+02 -0.79739326605E+01  0.27520949958E+02  0.51100000000E-03 0.  1.
         12    1    3    3    0    0  0.24737283187E+02  0.53523513094E+01  0.52505599752E+01  0.25848582631E+02  0.00000000000E+00 0. -1.
</event>
<event>
 7    1  0.2655561E-013  0.7246151E+02  0.7816164E-02  0.1226708E+00
        -11   -1    0    0    0    0  0.00000000000E+00  0.00000000000E+00  0.45593999997E+02  0.45594000000E+02  0.51100000000E-03 0.  1.
         11   -1    0    0    0    0 -0.00000000000E+00 -0.00000000000E+00 -0.45593999997E+02  0.45594000000E+02  0.51100000000E-03 0. -1.
    9900012    2    1    2    0    0  0.52478147002E+01 -0.38428880591E+01 -0.17560584983E+02  0.72461508265E+02  0.69999919195E+02 0.  0.
        -12    1    1    2    0    0 -0.52478147002E+01  0.38428880591E+01  0.17560584983E+02  0.18726491735E+02  0.00000000000E+00 0.  1.
         11    1    3    3    0    0  0.13944400921E+02 -0.12538356735E+02 -0.20172330947E+01  0.18860698192E+02  0.51100000000E-03 0. -1.
        -11    1    3    3    0    0  0.20831673337E+02  0.15968550895E+01 -0.53592314144E+01  0.21569189178E+02  0.51100000000E-03 0.  1.
        -12    1    3    3    0    0 -0.29528259557E+02  0.70986135863E+01 -0.10184120474E+02  0.32031620895E+02  0.00000000000E+00 0.  1.
</event>
<event>
 7    1  0.2655561E-013  0.7246167E+02  0.7816164E-02  0.1226708E+00
        -11   -1    0    0    0    0  0.00000000000E+00  0.00000000000E+00  0.45593999997E+02  0.45594000000E+02  0.51100000000E-03 0.  1.
         11   -1    0    0    0    0 -0.00000000000E+00 -0.00000000000E+00 -0.45593999997E+02  0.45594000000E+02  0.51100000000E-03 0. -1.
    9900012    2    1    2    0    0  0.15770647503E+02  0.57205215563E+01  0.83209151894E+01  0.72461673101E+02  0.70000133924E+02 0.  0.
        -12    1    1    2    0    0 -0.15770647503E+02 -0.57205215563E+01 -0.83209151894E+01  0.18726326899E+02  0.00000000000E+00 0.  1.
         11    1    3    3    0    0 -0.18358603588E+02  0.11846869276E+02  0.97671186931E+01  0.23932890448E+02  0.51100000000E-03 0. -1.
        -11    1    3    3    0    0 -0.35639662770E+01  0.74881521310E+01  0.11290751905E+01  0.83695333805E+01  0.51100000000E-03 0.  1.
        -12    1    3    3    0    0  0.37693217368E+02 -0.13614499851E+02 -0.25752786942E+01  0.40159249273E+02  0.00000000000E+00 0.  1.
</event>
<event>
 7    1  0.2655561E-013  0.7246162E+02  0.7816164E-02  0.1226708E+00
        -11   -1    0    0    0    0  0.00000000000E+00  0.00000000000E+00  0.45593999997E+02  0.45594000000E+02  0.51100000000E-03 0.  1.
         11   -1    0    0    0    0 -0.00000000000E+00 -0.00000000000E+00 -0.45593999997E+02  0.45594000000E+02  0.51100000000E-03 0. -1.
    9900012    2    1    2    0    0  0.50027284482E+01  0.18028170061E+02  0.79701791356E+00  0.72461616334E+02  0.70000059975E+02 0.  0.
        -12    1    1    2    0    0 -0.50027284482E+01 -0.18028170061E+02 -0.79701791356E+00  0.18726383666E+02  0.00000000000E+00 0.  1.
         11    1    3    3    0    0  0.26894594709E+01  0.90642259844E+00  0.63310878707E+01  0.69381170399E+01  0.51100000000E-03 0. -1.
        -11    1    3    3    0    0 -0.40892317633E+01 -0.21251407903E+02 -0.13913105100E+02  0.25727779696E+02  0.51100000000E-03 0.  1.
         12    1    3    3    0    0  0.64025007407E+01  0.38373155365E+02  0.83790351425E+01  0.39795719598E+02  0.00000000000E+00 0. -1.
</event>
<event>
 7    1  0.2655561E-013  0.7246156E+02  0.7816164E-02  0.1226708E+00
        -11   -1    0    0    0    0  0.00000000000E+00  0.00000000000E+00  0.45593999997E+02  0.45594000000E+02  0.51100000000E-03 0.  1.
         11   -1    0    0    0    0 -0.00000000000E+00 -0.00000000000E+00 -0.45593999997E+02  0.45594000000E+02  0.51100000000E-03 0. -1.
    9900012    2    1    2    0    0  0.43389458335E+01  0.17441995504E+02  0.52564095558E+01  0.72461561484E+02  0.69999988522E+02 0.  0.
        -12    1    1    2    0    0 -0.43389458335E+01 -0.17441995504E+02 -0.52564095558E+01  0.18726438516E+02  0.00000000000E+00 0.  1.
         11    1    3    3    0    0 -0.67713315079E+01 -0.27773312240E+01 -0.65877668819E+01  0.98469879593E+01  0.51100000000E-03 0. -1.
        -11    1    3    3    0    0 -0.22691448143E+02  0.14151111111E+02  0.87313083834E+01  0.28131681621E+02  0.51100000000E-03 0.  1.
        -12    1    3    3    0    0  0.33801725484E+02  0.60682156161E+01  0.31128680543E+01  0.34482891903E+02  0.00000000000E+00 0.  1.
</event>
<event>
 7    1  0.2655561E-013  0.7246170E+02  0.7816164E-02  0.1226708E+00
        -11   -1    0    0    0    0  0.00000000000E+00  0.00000000000E+00  0.45593999997E+02  0.45594000000E+02  0.51100000000E-03 0. -1.
         11   -1    0    0    0    0 -0.00000000000E+00 -0.00000000000E+00 -0.45593999997E+02  0.45594000000E+02  0.51100000000E-03 0.  1.
    9900012    2    1    2    0    0  0.54798831323E+01  0.16157075194E+02 -0.77197322937E+01  0.72461695916E+02  0.70000163645E+02 0.  0.
        -12    1    1    2    0    0 -0.54798831323E+01 -0.16157075194E+02  0.77197322937E+01  0.18726304084E+02  0.00000000000E+00 0.  1.
         11    1    3    3    0    0 -0.12889768352E+02  0.40210835715E+01 -0.71564156761E+01  0.15281672907E+02  0.51100000000E-03 0. -1.
        -11    1    3    3    0    0 -0.15637983250E+02 -0.20015188031E+01  0.10239794029E+02  0.18799095182E+02  0.51100000000E-03 0.  1.
        -12    1    3    3    0    0  0.34007634734E+02  0.14137510426E+02 -0.10803110647E+02  0.38380927827E+02  0.00000000000E+00 0.  1.
</event>
<event>
 7    1  0.2655561E-013  0.7246152E+02  0.7816164E-02  0.1226708E+00
        -11   -1    0    0    0    0  0.00000000000E+00  0.00000000000E+00  0.45593999997E+02  0.45594000000E+02  0.51100000000E-03 0. -1.
         11   -1    0    0    0    0 -0.00000000000E+00 -0.00000000000E+00 -0.45593999997E+02  0.45594000000E+02  0.51100000000E-03 0.  1.
    9900012    2    1    2    0    0 -0.14042406885E+02 -0.10383129892E+02  0.67588793231E+01  0.72461520695E+02  0.69999935387E+02 0.  0.
        -12    1    1    2    0    0  0.14042406885E+02  0.10383129892E+02 -0.67588793231E+01  0.18726479305E+02  0.00000000000E+00 0.  1.
         11    1    3    3    0    0  0.24727039816E+01 -0.74319549086E+01  0.67896177335E+01  0.10365670648E+02  0.51100000000E-03 0. -1.
        -11    1    3    3    0    0  0.19890533289E+02  0.59603219438E+00  0.12419437560E+02  0.23457003186E+02  0.51100000000E-03 0.  1.
        -12    1    3    3    0    0 -0.36405644155E+02 -0.35472071781E+01 -0.12450175970E+02  0.38638846861E+02  0.00000000000E+00 0.  1.
</event>
<event>
 7    1  0.2655561E-013  0.7246161E+02  0.7816164E-02  0.1226708E+00
        -11   -1    0    0    0    0  0.00000000000E+00  0.00000000000E+00  0.45593999997E+02  0.45594000000E+02  0.51100000000E-03 0. -1.
         11   -1    0    0    0    0 -0.00000000000E+00 -0.00000000000E+00 -0.45593999997E+02  0.45594000000E+02  0.51100000000E-03 0.  1.
    9900012    2    1    2    0    0  0.64951733447E+01 -0.65570704178E+01  0.16294025804E+02  0.72461608833E+02  0.70000050204E+02 0.  0.
        -12    1    1    2    0    0 -0.64951733447E+01  0.65570704178E+01 -0.16294025804E+02  0.18726391167E+02  0.00000000000E+00 0.  1.
         11    1    3    3    0    0  0.69709069374E+01 -0.10971739033E+01  0.89859897526E+01  0.11425644236E+02  0.51100000000E-03 0. -1.
        -11    1    3    3    0    0  0.14349863293E+01 -0.29912935531E+02  0.17261289962E+02  0.34565807227E+02  0.51100000000E-03 0.  1.
        -12    1    3    3    0    0 -0.19107199219E+01  0.24453039017E+02 -0.99532539110E+01  0.26470157370E+02  0.00000000000E+00 0.  1.
</event>
<event>
 7    1  0.2655561E-013  0.7246153E+02  0.7816164E-02  0.1226708E+00
        -11   -1    0    0    0    0  0.00000000000E+00  0.00000000000E+00  0.45593999997E+02  0.45594000000E+02  0.51100000000E-03 0.  1.
         11   -1    0    0    0    0 -0.00000000000E+00 -0.00000000000E+00 -0.45593999997E+02  0.45594000000E+02  0.51100000000E-03 0. -1.
    9900012    2    1    2    0    0 -0.14786083622E+02 -0.11112884793E+02  0.29250814374E+01  0.72461532669E+02  0.69999950986E+02 0.  0.
        -12    1    1    2    0    0  0.14786083622E+02  0.11112884793E+02 -0.29250814374E+01  0.18726467331E+02  0.00000000000E+00 0.  1.
         11    1    3    3    0    0 -0.27754277184E+01  0.23244848399E+02  0.94936177588E+01  0.25261725090E+02  0.51100000000E-03 0. -1.
        -11    1    3    3    0    0 -0.85355459919E+01 -0.18122672466E+01  0.75646177402E+01  0.11548302896E+02  0.51100000000E-03 0.  1.
         12    1    3    3    0    0 -0.34751099116E+01 -0.32545465945E+02 -0.14133154062E+02  0.35651504683E+02  0.00000000000E+00 0. -1.
</event>
<event>
 7    1  0.2655561E-013  0.7246165E+02  0.7816164E-02  0.1226708E+00
        -11   -1    0    0    0    0  0.00000000000E+00  0.00000000000E+00  0.45593999997E+02  0.45594000000E+02  0.51100000000E-03 0. -1.
         11   -1    0    0    0    0 -0.00000000000E+00 -0.00000000000E+00 -0.45593999997E+02  0.45594000000E+02  0.51100000000E-03 0.  1.
    9900012    2    1    2    0    0  0.18303401721E+02  0.38746381517E+01 -0.80558412391E+00  0.72461646881E+02  0.70000099768E+02 0.  0.
        -12    1    1    2    0    0 -0.18303401721E+02 -0.38746381517E+01  0.80558412391E+00  0.18726353119E+02  0.00000000000E+00 0.  1.
         11    1    3    3    0    0  0.64098739939E+01  0.49976784569E+01  0.68030029940E+01  0.10599251133E+02  0.51100000000E-03 0. -1.
        -11    1    3    3    0    0 -0.18658514769E+01  0.11536080961E+02 -0.30291224730E+02  0.32467227500E+02  0.51100000000E-03 0.  1.
         12    1    3    3    0    0  0.13759379204E+02 -0.12659121266E+02  0.22682637612E+02  0.29395168248E+02  0.00000000000E+00 0. -1.
</event>
<event>
 7    1  0.2655561E-013  0.7246160E+02  0.7816164E-02  0.1226708E+00
        -11   -1    0    0    0    0  0.00000000000E+00  0.00000000000E+00  0.45593999997E+02  0.45594000000E+02  0.51100000000E-03 0.  1.
         11   -1    0    0    0    0 -0.00000000000E+00 -0.00000000000E+00 -0.45593999997E+02  0.45594000000E+02  0.51100000000E-03 0. -1.
    9900012    2    1    2    0    0 -0.13141953469E+02  0.10418310245E+02 -0.83322263039E+01  0.72461598196E+02  0.70000036347E+02 0.  0.
        -12    1    1    2    0    0  0.13141953469E+02 -0.10418310245E+02  0.83322263039E+01  0.18726401804E+02  0.00000000000E+00 0.  1.
         11    1    3    3    0    0 -0.17659072791E+02 -0.16855856991E+02 -0.19093812587E+02  0.30992522423E+02  0.51100000000E-03 0. -1.
        -11    1    3    3    0    0 -0.30501954981E+01 -0.35659440609E+01  0.84057602215E+01  0.96268611076E+01  0.51100000000E-03 0.  1.
         12    1    3    3    0    0  0.75673148202E+01  0.30840111297E+02  0.23558260621E+01  0.31842214666E+02  0.00000000000E+00 0. -1.
</event>
<event>
 7    1  0.2655561E-013  0.7246152E+02  0.7816164E-02  0.1226708E+00
        -11   -1    0    0    0    0  0.00000000000E+00  0.00000000000E+00  0.45593999997E+02  0.45594000000E+02  0.51100000000E-03 0. -1.
         11   -1    0    0    0    0 -0.00000000000E+00 -0.00000000000E+00 -0.45593999997E+02  0.45594000000E+02  0.51100000000E-03 0.  1.
    9900012    2    1    2    0    0 -0.22970646708E+01  0.22271332784E+01  0.18451136542E+02  0.72461519593E+02  0.69999933952E+02 0.  0.
        -12    1    1    2    0    0  0.22970646708E+01 -0.22271332784E+01 -0.18451136542E+02  0.18726480407E+02  0.00000000000E+00 0.  1.
         11    1    3    3    0    0  0.11369260400E+02  0.23599612707E+01  0.89722632019E+00  0.11646223189E+02  0.51100000000E-03 0. -1.
        -11    1    3    3    0    0 -0.24512619204E+02  0.22287734844E+02  0.12444219887E+02  0.35390256195E+02  0.51100000000E-03 0.  1.
         12    1    3    3    0    0  0.10846294133E+02 -0.22420562836E+02  0.51096903349E+01  0.25425040209E+02  0.00000000000E+00 0. -1.
</event>
<event>
 7    1  0.2655561E-013  0.7246156E+02  0.7816164E-02  0.1226708E+00
        -11   -1    0    0    0    0  0.00000000000E+00  0.00000000000E+00  0.45593999997E+02  0.45594000000E+02  0.51100000000E-03 0.  1.
         11   -1    0    0    0    0 -0.00000000000E+00 -0.00000000000E+00 -0.45593999997E+02  0.45594000000E+02  0.51100000000E-03 0. -1.
    9900012    2    1    2    0    0  0.81058248939E+01 -0.16041043449E+01 -0.16804816674E+02  0.72461563836E+02  0.69999991587E+02 0.  0.
        -12    1    1    2    0    0 -0.81058248939E+01  0.16041043449E+01  0.16804816674E+02  0.18726436164E+02  0.00000000000E+00 0.  1.
         11    1    3    3    0    0 -0.17265197480E+02 -0.95516544645E+00 -0.16028436701E+01  0.17365727544E+02  0.51100000000E-03 0. -1.
        -11    1    3    3    0    0  0.21863692679E+02 -0.14163896612E+01 -0.31520455677E+02  0.38387059585E+02  0.51100000000E-03 0.  1.
         12    1    3    3    0    0  0.35073296949E+01  0.76745076278E+00  0.16318482673E+02  0.16708776706E+02  0.00000000000E+00 0. -1.
</event>
<event>
 7    1  0.2655561E-013  0.7246155E+02  0.7816164E-02  0.1226708E+00
        -11   -1    0    0    0    0  0.00000000000E+00  0.00000000000E+00  0.45593999997E+02  0.45594000000E+02  0.51100000000E-03 0.  1.
         11   -1    0    0    0    0 -0.00000000000E+00 -0.00000000000E+00 -0.45593999997E+02  0.45594000000E+02  0.51100000000E-03 0. -1.
    9900012    2    1    2    0    0 -0.23971194596E+01  0.18446480761E+02 -0.21589361737E+01  0.72461552404E+02  0.69999976695E+02 0.  0.
        -12    1    1    2    0    0  0.23971194596E+01 -0.18446480761E+02  0.21589361737E+01  0.18726447596E+02  0.00000000000E+00 0.  1.
         11    1    3    3    0    0  0.18468764141E+02 -0.44591243816E+01 -0.17957199502E+01  0.19084120351E+02  0.51100000000E-03 0. -1.
        -11    1    3    3    0    0  0.12036189912E+02  0.28833055832E+00  0.51077609007E+01  0.13078311198E+02  0.51100000000E-03 0.  1.
         12    1    3    3    0    0 -0.32902073513E+02  0.22617274584E+02 -0.54709771242E+01  0.40299120856E+02  0.00000000000E+00 0. -1.
</event>
<event>
 7    1  0.2655561E-013  0.7246156E+02  0.7816164E-02  0.1226708E+00
        -11   -1    0    0    0    0  0.00000000000E+00  0.00000000000E+00  0.45593999997E+02  0.45594000000E+02  0.51100000000E-03 0. -1.
         11   -1    0    0    0    0 -0.00000000000E+00 -0.00000000000E+00 -0.45593999997E+02  0.45594000000E+02  0.51100000000E-03 0.  1.
    9900012    2    1    2    0    0 -0.82268251183E+00 -0.16636590001E+02  0.85572645361E+01  0.72461555871E+02  0.69999981211E+02 0.  0.
        -12    1    1    2    0    0  0.82268251183E+00  0.16636590001E+02 -0.85572645361E+01  0.18726444129E+02  0.00000000000E+00 0.  1.
         11    1    3    3    0    0  0.25585406259E+00 -0.34694367159E+01  0.14863097188E+02  0.15264799727E+02  0.51100000000E-03 0. -1.
        -11    1    3    3    0    0 -0.26303540258E+02 -0.29458992957E+01  0.62917480573E+01  0.27205526031E+02  0.51100000000E-03 0.  1.
         12    1    3    3    0    0  0.25225003684E+02 -0.10221253990E+02 -0.12597580709E+02  0.29991230113E+02  0.00000000000E+00 0. -1.
</event>
<event>
 7    1  0.2655561E-013  0.7246155E+02  0.7816164E-02  0.1226708E+00
        -11   -1    0    0    0    0  0.00000000000E+00  0.00000000000E+00  0.45593999997E+02  0.45594000000E+02  0.51100000000E-03 0.  1.
         11   -1    0    0    0    0 -0.00000000000E+00 -0.00000000000E+00 -0.45593999997E+02  0.45594000000E+02  0.51100000000E-03 0. -1.
    9900012    2    1    2    0    0  0.15212401677E+02  0.47968392181E+00 -0.10910213306E+02  0.72461547698E+02  0.69999970564E+02 0.  0.
        -12    1    1    2    0    0 -0.15212401677E+02 -0.47968392181E+00  0.10910213306E+02  0.18726452302E+02  0.00000000000E+00 0.  1.
         11    1    3    3    0    0 -0.72111187353E+01 -0.54898280291E+01 -0.17641335312E+01  0.92331258293E+01  0.51100000000E-03 0. -1.
        -11    1    3    3    0    0 -0.13190566126E+01  0.12534854996E+02  0.20880789436E+02  0.24389954240E+02  0.51100000000E-03 0.  1.
         12    1    3    3    0    0  0.23742577025E+02 -0.65653430451E+01 -0.30026869211E+02  0.38838467628E+02  0.00000000000E+00 0. -1.
</event>
<event>
 7    1  0.2655561E-013  0.7246155E+02  0.7816164E-02  0.1226708E+00
        -11   -1    0    0    0    0  0.00000000000E+00  0.00000000000E+00  0.45593999997E+02  0.45594000000E+02  0.51100000000E-03 0. -1.
         11   -1    0    0    0    0 -0.00000000000E+00 -0.00000000000E+00 -0.45593999997E+02  0.45594000000E+02  0.51100000000E-03 0.  1.
    9900012    2    1    2    0    0 -0.18175480254E+02 -0.50346712843E+00  0.44809049528E+01  0.72461546229E+02  0.69999968651E+02 0.  0.
        -12    1    1    2    0    0  0.18175480254E+02  0.50346712843E+00 -0.44809049528E+01  0.18726453771E+02  0.00000000000E+00 0.  1.
         11    1    3    3    0    0  0.27038364551E+01  0.18341951648E+02  0.23162227162E+02  0.29668614548E+02  0.51100000000E-03 0. -1.
        -11    1    3    3    0    0 -0.99762987611E+00  0.21794501040E+01  0.49063703134E+01  0.54605620626E+01  0.51100000000E-03 0.  1.
        -12    1    3    3    0    0 -0.19881686833E+02 -0.21024868881E+02 -0.23587692523E+02  0.37332369619E+02  0.00000000000E+00 0.  1.
</event>
<event>
 7    1  0.2655561E-013  0.7246156E+02  0.7816164E-02  0.1226708E+00
        -11   -1    0    0    0    0  0.00000000000E+00  0.00000000000E+00  0.45593999997E+02  0.45594000000E+02  0.51100000000E-03 0.  1.
         11   -1    0    0    0    0 -0.00000000000E+00 -0.00000000000E+00 -0.45593999997E+02  0.45594000000E+02  0.51100000000E-03 0. -1.
    9900012    2    1    2    0    0  0.15951124658E+01 -0.12302987877E+02 -0.14027528414E+02  0.72461562862E+02  0.69999990318E+02 0.  0.
        -12    1    1    2    0    0 -0.15951124658E+01  0.12302987877E+02  0.14027528414E+02  0.18726437138E+02  0.00000000000E+00 0.  1.
         11    1    3    3    0    0  0.25473413951E+02  0.13692046934E+02 -0.11388555191E+02  0.31081604804E+02  0.51100000000E-03 0. -1.
        -11    1    3    3    0    0 -0.14251622251E+01 -0.31589081048E+00 -0.68556142961E+01  0.70093025338E+01  0.51100000000E-03 0.  1.
        -12    1    3    3    0    0 -0.22453139260E+02 -0.25679144001E+02  0.42166410738E+01  0.34370655525E+02  0.00000000000E+00 0.  1.
</event>
<event>
 7    1  0.2655561E-013  0.7246153E+02  0.7816164E-02  0.1226708E+00
        -11   -1    0    0    0    0  0.00000000000E+00  0.00000000000E+00  0.45593999997E+02  0.45594000000E+02  0.51100000000E-03 0.  1.
         11   -1    0    0    0    0 -0.00000000000E+00 -0.00000000000E+00 -0.45593999997E+02  0.45594000000E+02  0.51100000000E-03 0. -1.
    9900012    2    1    2    0    0 -0.14768292250E+02 -0.87194979736E+01 -0.75198750266E+01  0.72461531531E+02  0.69999949503E+02 0.  0.
        -12    1    1    2    0    0  0.14768292250E+02  0.87194979736E+01  0.75198750266E+01  0.18726468469E+02  0.00000000000E+00 0.  1.
         11    1    3    3    0    0 -0.10478641298E+02  0.54590112144E+01  0.14254655678E+02  0.18514803149E+02  0.51100000000E-03 0. -1.
        -11    1    3    3    0    0 -0.18636847609E+02 -0.84539010266E+01  0.67156429234E+01  0.21538347000E+02  0.51100000000E-03 0.  1.
         12    1    3    3    0    0  0.14347196656E+02 -0.57246081614E+01 -0.28490173628E+02  0.32408381382E+02  0.00000000000E+00 0. -1.
</event>
<event>
 7    1  0.2655561E-013  0.7246161E+02  0.7816164E-02  0.1226708E+00
        -11   -1    0    0    0    0  0.00000000000E+00  0.00000000000E+00  0.45593999997E+02  0.45594000000E+02  0.51100000000E-03 0.  1.
         11   -1    0    0    0    0 -0.00000000000E+00 -0.00000000000E+00 -0.45593999997E+02  0.45594000000E+02  0.51100000000E-03 0. -1.
    9900012    2    1    2    0    0 -0.14537895196E+02 -0.11010099559E+02  0.42549857092E+01  0.72461612404E+02  0.70000054855E+02 0.  0.
        -12    1    1    2    0    0  0.14537895196E+02  0.11010099559E+02 -0.42549857092E+01  0.18726387596E+02  0.00000000000E+00 0.  1.
         11    1    3    3    0    0  0.24917796604E+01  0.62100765284E+01 -0.22114197989E+02  0.23104366889E+02  0.51100000000E-03 0. -1.
        -11    1    3    3    0    0  0.98471931347E+01 -0.96129500699E+01  0.78465923126E+01  0.15841244675E+02  0.51100000000E-03 0.  1.
        -12    1    3    3    0    0 -0.26876867991E+02 -0.76072260176E+01  0.18522591386E+02  0.33516000840E+02  0.00000000000E+00 0.  1.
</event>
<event>
 7    1  0.2655561E-013  0.7246155E+02  0.7816164E-02  0.1226708E+00
        -11   -1    0    0    0    0  0.00000000000E+00  0.00000000000E+00  0.45593999997E+02  0.45594000000E+02  0.51100000000E-03 0. -1.
         11   -1    0    0    0    0 -0.00000000000E+00 -0.00000000000E+00 -0.45593999997E+02  0.45594000000E+02  0.51100000000E-03 0.  1.
    9900012    2    1    2    0    0 -0.18610066026E+02  0.18021972920E+01 -0.10476222599E+01  0.72461548522E+02  0.69999971637E+02 0.  0.
        -12    1    1    2    0    0  0.18610066026E+02 -0.18021972920E+01  0.10476222599E+01  0.18726451478E+02  0.00000000000E+00 0.  1.
         11    1    3    3    0    0 -0.19065670903E+02  0.28895844669E+01 -0.19652171644E+02  0.27532841408E+02  0.51100000000E-03 0.  1.
        -11    1    3    3    0    0 -0.82422804005E+01  0.14205012435E+02  0.21546123937E+02  0.27091567349E+02  0.51100000000E-03 0. -1.
         12    1    3    3    0    0  0.86978852779E+01 -0.15292399610E+02 -0.29415745525E+01  0.17837139765E+02  0.00000000000E+00 0. -1.
</event>
<event>
 7    1  0.2655561E-013  0.7246148E+02  0.7816164E-02  0.1226708E+00
        -11   -1    0    0    0    0  0.00000000000E+00  0.00000000000E+00  0.45593999997E+02  0.45594000000E+02  0.51100000000E-03 0. -1.
         11   -1    0    0    0    0 -0.00000000000E+00 -0.00000000000E+00 -0.45593999997E+02  0.45594000000E+02  0.51100000000E-03 0.  1.
    9900012    2    1    2    0    0  0.39796822058E+01  0.23995835066E+01  0.18140747656E+02  0.72461478780E+02  0.69999880786E+02 0.  0.
        -12    1    1    2    0    0 -0.39796822058E+01 -0.23995835066E+01 -0.18140747656E+02  0.18726521220E+02  0.00000000000E+00 0.  1.
         11    1    3    3    0    0 -0.20601308999E+02  0.14737761014E+01  0.21236814192E+01  0.20762850756E+02  0.51100000000E-03 0.  1.
        -11    1    3    3    0    0  0.10159359239E+02  0.20897388008E+02  0.19181855589E+01  0.23315077564E+02  0.51100000000E-03 0. -1.
         12    1    3    3    0    0  0.14421631967E+02 -0.19971580603E+02  0.14098880678E+02  0.28383550460E+02  0.00000000000E+00 0. -1.
</event>
<event>
 7    1  0.2655561E-013  0.7246161E+02  0.7816164E-02  0.1226708E+00
        -11   -1    0    0    0    0  0.00000000000E+00  0.00000000000E+00  0.45593999997E+02  0.45594000000E+02  0.51100000000E-03 0.  1.
         11   -1    0    0    0    0 -0.00000000000E+00 -0.00000000000E+00 -0.45593999997E+02  0.45594000000E+02  0.51100000000E-03 0. -1.
    9900012    2    1    2    0    0  0.16317866218E+02 -0.91868096892E+01  0.85341566690E-01  0.72461614514E+02  0.70000057604E+02 0.  0.
        -12    1    1    2    0    0 -0.16317866218E+02  0.91868096892E+01 -0.85341566690E-01  0.18726385486E+02  0.00000000000E+00 0.  1.
         11    1    3    3    0    0 -0.47385991678E+01 -0.90588237465E+01  0.10662622080E+02  0.14771869198E+02  0.51100000000E-03 0. -1.
        -11    1    3    3    0    0  0.31252087543E+02 -0.22943898997E+01  0.11416514200E+02  0.33351071910E+02  0.51100000000E-03 0.  1.
         12    1    3    3    0    0 -0.10195622157E+02  0.21664039570E+01 -0.21993794713E+02  0.24338673406E+02  0.00000000000E+00 0. -1.
</event>
<event>
 7    1  0.2655561E-013  0.7246166E+02  0.7816164E-02  0.1226708E+00
        -11   -1    0    0    0    0  0.00000000000E+00  0.00000000000E+00  0.45593999997E+02  0.45594000000E+02  0.51100000000E-03 0.  1.
         11   -1    0    0    0    0 -0.00000000000E+00 -0.00000000000E+00 -0.45593999997E+02  0.45594000000E+02  0.51100000000E-03 0. -1.
    9900012    2    1    2    0    0  0.15320657170E+02  0.84106366494E+01 -0.67241613093E+01  0.72461663191E+02  0.70000121015E+02 0.  0.
        -12    1    1    2    0    0 -0.15320657170E+02 -0.84106366494E+01  0.67241613093E+01  0.18726336809E+02  0.00000000000E+00 0.  1.
         11    1    3    3    0    0 -0.14162511047E+02 -0.72943810671E+01  0.62671740331E+01  0.17119059113E+02  0.51100000000E-03 0. -1.
        -11    1    3    3    0    0 -0.16455554078E+01  0.18283232631E+02  0.53494061032E+01  0.19120684976E+02  0.51100000000E-03 0.  1.
        -12    1    3    3    0    0  0.31128723625E+02 -0.25782149143E+01 -0.18340741446E+02  0.36221919102E+02  0.00000000000E+00 0.  1.
</event>
<event>
 7    1  0.2655561E-013  0.7246155E+02  0.7816164E-02  0.1226708E+00
        -11   -1    0    0    0    0  0.00000000000E+00  0.00000000000E+00  0.45593999997E+02  0.45594000000E+02  0.51100000000E-03 0. -1.
         11   -1    0    0    0    0 -0.00000000000E+00 -0.00000000000E+00 -0.45593999997E+02  0.45594000000E+02  0.51100000000E-03 0.  1.
    9900012    2    1    2    0    0  0.13043670129E+02 -0.13193821229E+02  0.25427451180E+01  0.72461553413E+02  0.69999978009E+02 0.  0.
        -12    1    1    2    0    0 -0.13043670129E+02  0.13193821229E+02 -0.25427451180E+01  0.18726446587E+02  0.00000000000E+00 0.  1.
         11    1    3    3    0    0  0.23661225520E+02 -0.20265979681E+02 -0.34191844837E+01  0.31340937260E+02  0.51100000000E-03 0. -1.
        -11    1    3    3    0    0 -0.20996962819E+01 -0.15668910274E+02  0.57904696154E+01  0.16836062850E+02  0.51100000000E-03 0.  1.
        -12    1    3    3    0    0 -0.85178591094E+01  0.22741068726E+02  0.17145998630E+00  0.24284553303E+02  0.00000000000E+00 0.  1.
</event>
<event>
 7    1  0.2655561E-013  0.7246146E+02  0.7816164E-02  0.1226708E+00
        -11   -1    0    0    0    0  0.00000000000E+00  0.00000000000E+00  0.45593999997E+02  0.45594000000E+02  0.51100000000E-03 0.  1.
         11   -1    0    0    0    0 -0.00000000000E+00 -0.00000000000E+00 -0.45593999997E+02  0.45594000000E+02  0.51100000000E-03 0. -1.
    9900012    2    1    2    0    0 -0.71280518748E+01 -0.16684198446E+02  0.46380833074E+01  0.72461456857E+02  0.69999852226E+02 0.  0.
        -12    1    1    2    0    0  0.71280518748E+01  0.16684198446E+02 -0.46380833074E+01  0.18726543143E+02  0.00000000000E+00 0.  1.
         11    1    3    3    0    0  0.11151192174E+02 -0.32522952014E+02  0.40535440600E+01  0.34619686802E+02  0.51100000000E-03 0. -1.
        -11    1    3    3    0    0 -0.12005853324E+02  0.57079226971E+01  0.14399626821E+02  0.19597707733E+02  0.51100000000E-03 0.  1.
        -12    1    3    3    0    0 -0.62733907253E+01  0.10130830870E+02 -0.13815087574E+02  0.18244062321E+02  0.00000000000E+00 0.  1.
</event>
<event>
 7    1  0.2655561E-013  0.7246163E+02  0.7816164E-02  0.1226708E+00
        -11   -1    0    0    0    0  0.00000000000E+00  0.00000000000E+00  0.45593999997E+02  0.45594000000E+02  0.51100000000E-03 0.  1.
         11   -1    0    0    0    0 -0.00000000000E+00 -0.00000000000E+00 -0.45593999997E+02  0.45594000000E+02  0.51100000000E-03 0. -1.
    9900012    2    1    2    0    0 -0.13691973754E+01  0.66855561570E+01 -0.17438620380E+02  0.72461632404E+02  0.70000080909E+02 0.  0.
        -12    1    1    2    0    0  0.13691973754E+01 -0.66855561570E+01  0.17438620380E+02  0.18726367596E+02  0.00000000000E+00 0.  1.
         11    1    3    3    0    0 -0.18598567983E+02  0.59348040265E+01 -0.60459014268E+01  0.20437258969E+02  0.51100000000E-03 0. -1.
        -11    1    3    3    0    0  0.76240881628E+01  0.11962393509E+02  0.15706755905E+02  0.21164303913E+02  0.51100000000E-03 0.  1.
        -12    1    3    3    0    0  0.96052824451E+01 -0.11211641378E+02 -0.27099474859E+02  0.30860069522E+02  0.00000000000E+00 0.  1.
</event>
<event>
 7    1  0.2655561E-013  0.7246159E+02  0.7816164E-02  0.1226708E+00
        -11   -1    0    0    0    0  0.00000000000E+00  0.00000000000E+00  0.45593999997E+02  0.45594000000E+02  0.51100000000E-03 0. -1.
         11   -1    0    0    0    0 -0.00000000000E+00 -0.00000000000E+00 -0.45593999997E+02  0.45594000000E+02  0.51100000000E-03 0.  1.
    9900012    2    1    2    0    0  0.15775034539E+02  0.64440686010E+01  0.77653419151E+01  0.72461594314E+02  0.70000031290E+02 0.  0.
        -12    1    1    2    0    0 -0.15775034539E+02 -0.64440686010E+01 -0.77653419151E+01  0.18726405686E+02  0.00000000000E+00 0.  1.
         11    1    3    3    0    0 -0.75601776531E+01 -0.92509754269E+01  0.14059631873E+02  0.18450205450E+02  0.51100000000E-03 0. -1.
        -11    1    3    3    0    0  0.31116411231E+01 -0.15042162891E+02 -0.77173126158E+01  0.17190284733E+02  0.51100000000E-03 0.  1.
         12    1    3    3    0    0  0.20223571070E+02  0.30737206919E+02  0.14230226584E+01  0.36821104131E+02  0.00000000000E+00 0. -1.
</event>
<event>
 7    1  0.2655561E-013  0.7246162E+02  0.7816164E-02  0.1226708E+00
        -11   -1    0    0    0    0  0.00000000000E+00  0.00000000000E+00  0.45593999997E+02  0.45594000000E+02  0.51100000000E-03 0. -1.
         11   -1    0    0    0    0 -0.00000000000E+00 -0.00000000000E+00 -0.45593999997E+02  0.45594000000E+02  0.51100000000E-03 0.  1.
    9900012    2    1    2    0    0  0.79683041180E+01  0.10207450973E+02  0.13527427970E+02  0.72461621990E+02  0.70000067343E+02 0.  0.
        -12    1    1    2    0    0 -0.79683041180E+01 -0.10207450973E+02 -0.13527427970E+02  0.18726378010E+02  0.00000000000E+00 0.  1.
         11    1    3    3    0    0  0.19979214433E+00 -0.91205391092E+01  0.18510791518E+02  0.20636704035E+02  0.51100000000E-03 0. -1.
        -11    1    3    3    0    0 -0.10809236493E+02  0.56693186360E+01  0.16355378514E+02  0.20407821391E+02  0.51100000000E-03 0.  1.
        -12    1    3    3    0    0  0.18577748466E+02  0.13658671447E+02 -0.21338742061E+02  0.31417096564E+02  0.00000000000E+00 0.  1.
</event>
<event>
 7    1  0.2655561E-013  0.7246153E+02  0.7816164E-02  0.1226708E+00
        -11   -1    0    0    0    0  0.00000000000E+00  0.00000000000E+00  0.45593999997E+02  0.45594000000E+02  0.51100000000E-03 0. -1.
         11   -1    0    0    0    0 -0.00000000000E+00 -0.00000000000E+00 -0.45593999997E+02  0.45594000000E+02  0.51100000000E-03 0.  1.
    9900012    2    1    2    0    0  0.11254143247E+02  0.79546935928E+01  0.12678641093E+02  0.72461525950E+02  0.69999942233E+02 0.  0.
        -12    1    1    2    0    0 -0.11254143247E+02 -0.79546935928E+01 -0.12678641093E+02  0.18726474050E+02  0.00000000000E+00 0.  1.
         11    1    3    3    0    0  0.26892800920E+02 -0.16892068115E+02  0.80941671811E+00  0.31768220948E+02  0.51100000000E-03 0. -1.
        -11    1    3    3    0    0 -0.48988924614E+01 -0.40580108336E+01 -0.22917806084E+01  0.67615721465E+01  0.51100000000E-03 0.  1.
        -12    1    3    3    0    0 -0.10739765211E+02  0.28904772541E+02  0.14161004984E+02  0.33931732856E+02  0.00000000000E+00 0.  1.
</event>
<event>
 7    1  0.2655561E-013  0.7246161E+02  0.7816164E-02  0.1226708E+00
        -11   -1    0    0    0    0  0.00000000000E+00  0.00000000000E+00  0.45593999997E+02  0.45594000000E+02  0.51100000000E-03 0. -1.
         11   -1    0    0    0    0 -0.00000000000E+00 -0.00000000000E+00 -0.45593999997E+02  0.45594000000E+02  0.51100000000E-03 0.  1.
    9900012    2    1    2    0    0  0.58491200211E+01  0.87284473752E+01  0.15500963272E+02  0.72461605233E+02  0.70000045515E+02 0.  0.
        -12    1    1    2    0    0 -0.58491200211E+01 -0.87284473752E+01 -0.15500963272E+02  0.18726394767E+02  0.00000000000E+00 0.  1.
         11    1    3    3    0    0  0.32519269771E+01  0.12971055819E+01  0.26490065313E+02  0.26720424257E+02  0.51100000000E-03 0. -1.
        -11    1    3    3    0    0  0.22353510163E+02  0.90971596689E+01 -0.28207812105E+01  0.24298035673E+02  0.51100000000E-03 0.  1.
        -12    1    3    3    0    0 -0.19756317119E+02 -0.16658178756E+01 -0.81683208305E+01  0.21443145303E+02  0.00000000000E+00 0.  1.
</event>
<event>
 7    1  0.2655561E-013  0.7246158E+02  0.7816164E-02  0.1226708E+00
        -11   -1    0    0    0    0  0.00000000000E+00  0.00000000000E+00  0.45593999997E+02  0.45594000000E+02  0.51100000000E-03 0. -1.
         11   -1    0    0    0    0 -0.00000000000E+00 -0.00000000000E+00 -0.45593999997E+02  0.45594000000E+02  0.51100000000E-03 0.  1.
    9900012    2    1    2    0    0  0.51354426637E+01 -0.15943899906E+02  0.83724498085E+01  0.72461584664E+02  0.70000018719E+02 0.  0.
        -12    1    1    2    0    0 -0.51354426637E+01  0.15943899906E+02 -0.83724498085E+01  0.18726415336E+02  0.00000000000E+00 0.  1.
         11    1    3    3    0    0 -0.16950886159E+02 -0.97417013225E+01 -0.79321905875E+01  0.21098647682E+02  0.51100000000E-03 0. -1.
        -11    1    3    3    0    0  0.17508295668E+00  0.15662575260E+02 -0.13607543542E+01  0.15722549746E+02  0.51100000000E-03 0.  1.
         12    1    3    3    0    0  0.21911245866E+02 -0.21864773844E+02  0.17665394750E+02  0.35640387236E+02  0.00000000000E+00 0. -1.
</event>
<event>
 7    1  0.2655561E-013  0.7246160E+02  0.7816164E-02  0.1226708E+00
        -11   -1    0    0    0    0  0.00000000000E+00  0.00000000000E+00  0.45593999997E+02  0.45594000000E+02  0.51100000000E-03 0. -1.
         11   -1    0    0    0    0 -0.00000000000E+00 -0.00000000000E+00 -0.45593999997E+02  0.45594000000E+02  0.51100000000E-03 0.  1.
    9900012    2    1    2    0    0  0.89011986107E+01  0.15373210281E+02  0.59254711490E+01  0.72461597799E+02  0.70000035830E+02 0.  0.
        -12    1    1    2    0    0 -0.89011986107E+01 -0.15373210281E+02 -0.59254711490E+01  0.18726402201E+02  0.00000000000E+00 0.  1.
         11    1    3    3    0    0  0.25415696852E+02  0.16413839187E+02 -0.73187847291E+01  0.31127742827E+02  0.51100000000E-03 0. -1.
        -11    1    3    3    0    0 -0.16953870550E+01  0.15116398972E+02 -0.90922700341E+00  0.15238325012E+02  0.51100000000E-03 0.  1.
         12    1    3    3    0    0 -0.14819111186E+02 -0.16157027878E+02  0.14153482882E+02  0.26095529960E+02  0.00000000000E+00 0. -1.
</event>
<event>
 7    1  0.2655561E-013  0.7246162E+02  0.7816164E-02  0.1226708E+00
        -11   -1    0    0    0    0  0.00000000000E+00  0.00000000000E+00  0.45593999997E+02  0.45594000000E+02  0.51100000000E-03 0.  1.
         11   -1    0    0    0    0 -0.00000000000E+00 -0.00000000000E+00 -0.45593999997E+02  0.45594000000E+02  0.51100000000E-03 0. -1.
    9900012    2    1    2    0    0 -0.15682004032E+01 -0.17208345786E+02 -0.72173898693E+01  0.72461624651E+02  0.70000070809E+02 0.  0.
        -12    1    1    2    0    0  0.15682004032E+01  0.17208345786E+02  0.72173898693E+01  0.18726375349E+02  0.00000000000E+00 0.  1.
         11    1    3    3    0    0  0.59525495905E+01 -0.77534297084E+00 -0.12952104438E+02  0.14275538973E+02  0.51100000000E-03 0. -1.
        -11    1    3    3    0    0  0.14547168416E+02  0.60558841787E+01 -0.13941213643E+02  0.21039279460E+02  0.51100000000E-03 0.  1.
        -12    1    3    3    0    0 -0.22067918409E+02 -0.22488886994E+02  0.19675928212E+02  0.37146806217E+02  0.00000000000E+00 0.  1.
</event>
<event>
 7    1  0.2655561E-013  0.7246153E+02  0.7816164E-02  0.1226708E+00
        -11   -1    0    0    0    0  0.00000000000E+00  0.00000000000E+00  0.45593999997E+02  0.45594000000E+02  0.51100000000E-03 0. -1.
         11   -1    0    0    0    0 -0.00000000000E+00 -0.00000000000E+00 -0.45593999997E+02  0.45594000000E+02  0.51100000000E-03 0.  1.
    9900012    2    1    2    0    0 -0.16639739257E+02 -0.46139907232E+01 -0.72464276546E+01  0.72461533524E+02  0.69999952100E+02 0.  0.
        -12    1    1    2    0    0  0.16639739257E+02  0.46139907232E+01  0.72464276546E+01  0.18726466476E+02  0.00000000000E+00 0.  1.
         11    1    3    3    0    0 -0.62096889119E+01  0.16844365957E+01 -0.39072971813E+01  0.75275849083E+01  0.51100000000E-03 0. -1.
        -11    1    3    3    0    0  0.58382954163E+01 -0.84505440498E+01 -0.31063196945E+02  0.32717267502E+02  0.51100000000E-03 0.  1.
         12    1    3    3    0    0 -0.16268345761E+02  0.21521167309E+01  0.27724066472E+02  0.32216681113E+02  0.00000000000E+00 0. -1.
</event>
<event>
 7    1  0.2655561E-013  0.7246156E+02  0.7816164E-02  0.1226708E+00
        -11   -1    0    0    0    0  0.00000000000E+00  0.00000000000E+00  0.45593999997E+02  0.45594000000E+02  0.51100000000E-03 0.  1.
         11   -1    0    0    0    0 -0.00000000000E+00 -0.00000000000E+00 -0.45593999997E+02  0.45594000000E+02  0.51100000000E-03 0. -1.
    9900012    2    1    2    0    0 -0.11968257852E+02 -0.10752942620E+02 -0.95819959559E+01  0.72461558333E+02  0.69999984418E+02 0.  0.
        -12    1    1    2    0    0  0.11968257852E+02  0.10752942620E+02  0.95819959559E+01  0.18726441667E+02  0.00000000000E+00 0.  1.
         11    1    3    3    0    0  0.45459509157E+00 -0.44849705804E+01 -0.36016661108E+01  0.57700621174E+01  0.51100000000E-03 0. -1.
        -11    1    3    3    0    0  0.57108868778E+01 -0.65537843512E+01 -0.33013258093E+02  0.34138563655E+02  0.51100000000E-03 0.  1.
        -12    1    3    3    0    0 -0.18133739822E+02  0.28581231168E+00  0.27032928248E+02  0.32552932560E+02  0.00000000000E+00 0.  1.
</event>
<event>
 7    1  0.2655561E-013  0.7246158E+02  0.7816164E-02  0.1226708E+00
        -11   -1    0    0    0    0  0.00000000000E+00  0.00000000000E+00  0.45593999997E+02  0.45594000000E+02  0.51100000000E-03 0. -1.
         11   -1    0    0    0    0 -0.00000000000E+00 -0.00000000000E+00 -0.45593999997E+02  0.45594000000E+02  0.51100000000E-03 0.  1.
    9900012    2    1    2    0    0  0.80488438841E+01 -0.11871061564E+02  0.12040472370E+02  0.72461575744E+02  0.70000007099E+02 0.  0.
        -12    1    1    2    0    0 -0.80488438841E+01  0.11871061564E+02 -0.12040472370E+02  0.18726424256E+02  0.00000000000E+00 0.  1.
         11    1    3    3    0    0  0.31025030082E+02 -0.18705119630E+02  0.28275281669E+01  0.36337706418E+02  0.51100000000E-03 0. -1.
        -11    1    3    3    0    0 -0.55995875523E+01 -0.95322593545E+01  0.26796844145E+01  0.11375414629E+02  0.51100000000E-03 0.  1.
        -12    1    3    3    0    0 -0.17376598646E+02  0.16366317421E+02  0.65332597889E+01  0.24748454697E+02  0.00000000000E+00 0.  1.
</event>
<event>
 7    1  0.2655561E-013  0.7246154E+02  0.7816164E-02  0.1226708E+00
        -11   -1    0    0    0    0  0.00000000000E+00  0.00000000000E+00  0.45593999997E+02  0.45594000000E+02  0.51100000000E-03 0.  1.
         11   -1    0    0    0    0 -0.00000000000E+00 -0.00000000000E+00 -0.45593999997E+02  0.45594000000E+02  0.51100000000E-03 0. -1.
    9900012    2    1    2    0    0 -0.28856655623E+01 -0.18399572549E+02 -0.19516471310E+01  0.72461541119E+02  0.69999961993E+02 0.  0.
        -12    1    1    2    0    0  0.28856655623E+01  0.18399572549E+02  0.19516471310E+01  0.18726458881E+02  0.00000000000E+00 0.  1.
         11    1    3    3    0    0  0.19828165810E+01 -0.14892591090E+02 -0.15166855725E+02  0.21348403777E+02  0.51100000000E-03 0. -1.
        -11    1    3    3    0    0  0.16079464054E+01  0.17525884273E+02 -0.90646573310E+01  0.19796720030E+02  0.51100000000E-03 0.  1.
        -12    1    3    3    0    0 -0.64764285487E+01 -0.21032865731E+02  0.22279865925E+02  0.31316417311E+02  0.00000000000E+00 0.  1.
</event>
<event>
 7    1  0.2655561E-013  0.7246153E+02  0.7816164E-02  0.1226708E+00
        -11   -1    0    0    0    0  0.00000000000E+00  0.00000000000E+00  0.45593999997E+02  0.45594000000E+02  0.51100000000E-03 0.  1.
         11   -1    0    0    0    0 -0.00000000000E+00 -0.00000000000E+00 -0.45593999997E+02  0.45594000000E+02  0.51100000000E-03 0. -1.
    9900012    2    1    2    0    0 -0.10197844870E+01 -0.12889131550E+02 -0.13546626978E+02  0.72461527428E+02  0.69999944159E+02 0.  0.
        -12    1    1    2    0    0  0.10197844870E+01  0.12889131550E+02  0.13546626978E+02  0.18726472572E+02  0.00000000000E+00 0.  1.
         11    1    3    3    0    0  0.80863216394E+01 -0.78574354135E+00 -0.20565976290E+02  0.22112561398E+02  0.51100000000E-03 0. -1.
        -11    1    3    3    0    0  0.10208925602E+02 -0.16668650268E+02 -0.11937196487E+02  0.22903334341E+02  0.51100000000E-03 0.  1.
        -12    1    3    3    0    0 -0.19315031728E+02  0.45652622599E+01  0.18956545800E+02  0.27445631689E+02  0.00000000000E+00 0.  1.
</event>
<event>
 7    1  0.2655561E-013  0.7246158E+02  0.7816164E-02  0.1226708E+00
        -11   -1    0    0    0    0  0.00000000000E+00  0.00000000000E+00  0.45593999997E+02  0.45594000000E+02  0.51100000000E-03 0. -1.
         11   -1    0    0    0    0 -0.00000000000E+00 -0.00000000000E+00 -0.45593999997E+02  0.45594000000E+02  0.51100000000E-03 0.  1.
    9900012    2    1    2    0    0  0.10002079310E+02  0.96242132326E+01  0.12570274361E+02  0.72461578335E+02  0.70000010474E+02 0.  0.
        -12    1    1    2    0    0 -0.10002079310E+02 -0.96242132326E+01 -0.12570274361E+02  0.18726421665E+02  0.00000000000E+00 0.  1.
         11    1    3    3    0    0  0.32287417276E+01 -0.20147757865E+01 -0.78855378152E+01  0.87559009536E+01  0.51100000000E-03 0. -1.
        -11    1    3    3    0    0 -0.79564272836E+01 -0.18109526749E+02  0.23092105464E+02  0.30405674293E+02  0.51100000000E-03 0.  1.
         12    1    3    3    0    0  0.14729764866E+02  0.29748515768E+02 -0.26362932875E+01  0.33300003088E+02  0.00000000000E+00 0. -1.
</event>
<event>
 7    1  0.2655561E-013  0.7246143E+02  0.7816164E-02  0.1226708E+00
        -11   -1    0    0    0    0  0.00000000000E+00  0.00000000000E+00  0.45593999997E+02  0.45594000000E+02  0.51100000000E-03 0.  1.
         11   -1    0    0    0    0 -0.00000000000E+00 -0.00000000000E+00 -0.45593999997E+02  0.45594000000E+02  0.51100000000E-03 0. -1.
    9900012    2    1    2    0    0  0.15076388486E+02  0.42438497364E+01  0.10265315619E+02  0.72461429168E+02  0.69999816157E+02 0.  0.
        -12    1    1    2    0    0 -0.15076388486E+02 -0.42438497364E+01 -0.10265315619E+02  0.18726570832E+02  0.00000000000E+00 0.  1.
         11    1    3    3    0    0  0.48348354035E+00  0.23838124468E+02  0.62873713145E+01  0.24658081288E+02  0.51100000000E-03 0. -1.
        -11    1    3    3    0    0 -0.11895086636E+01  0.11949363322E+02  0.35756141305E+01  0.12529454551E+02  0.51100000000E-03 0.  1.
        -12    1    3    3    0    0  0.15782413610E+02 -0.31543638054E+02  0.40233017349E+00  0.35273893329E+02  0.00000000000E+00 0.  1.
</event>
<event>
 7    1  0.2655561E-013  0.7246152E+02  0.7816164E-02  0.1226708E+00
        -11   -1    0    0    0    0  0.00000000000E+00  0.00000000000E+00  0.45593999997E+02  0.45594000000E+02  0.51100000000E-03 0. -1.
         11   -1    0    0    0    0 -0.00000000000E+00 -0.00000000000E+00 -0.45593999997E+02  0.45594000000E+02  0.51100000000E-03 0.  1.
    9900012    2    1    2    0    0 -0.13741352416E+02 -0.95358506672E+01  0.84216214451E+01  0.72461523505E+02  0.69999939048E+02 0.  0.
        -12    1    1    2    0    0  0.13741352416E+02  0.95358506672E+01 -0.84216214451E+01  0.18726476495E+02  0.00000000000E+00 0.  1.
         11    1    3    3    0    0  0.10063426204E+02  0.17777295288E+01  0.20767513661E+02  0.23145679795E+02  0.51100000000E-03 0.  1.
        -11    1    3    3    0    0 -0.89868783589E+01 -0.25342808023E+02 -0.36541765879E+01  0.27136228698E+02  0.51100000000E-03 0. -1.
        -12    1    3    3    0    0 -0.14817900261E+02  0.14029227827E+02 -0.86917156277E+01  0.22179615013E+02  0.00000000000E+00 0.  1.
</event>
<event>
 7    1  0.2655561E-013  0.7246158E+02  0.7816164E-02  0.1226708E+00
        -11   -1    0    0    0    0  0.00000000000E+00  0.00000000000E+00  0.45593999997E+02  0.45594000000E+02  0.51100000000E-03 0.  1.
         11   -1    0    0    0    0 -0.00000000000E+00 -0.00000000000E+00 -0.45593999997E+02  0.45594000000E+02  0.51100000000E-03 0. -1.
    9900012    2    1    2    0    0  0.17536969673E+02  0.65271452041E+01  0.72798219439E+00  0.72461577813E+02  0.70000009795E+02 0.  0.
        -12    1    1    2    0    0 -0.17536969673E+02 -0.65271452041E+01 -0.72798219439E+00  0.18726422187E+02  0.00000000000E+00 0.  1.
         11    1    3    3    0    0 -0.49812225425E+01  0.22872489274E+02 -0.41898373106E+01  0.23780624058E+02  0.51100000000E-03 0. -1.
        -11    1    3    3    0    0  0.18631202626E+02  0.28222366127E+01  0.17260592257E+02  0.25554153793E+02  0.51100000000E-03 0.  1.
         12    1    3    3    0    0  0.38869895901E+01 -0.19167580683E+02 -0.12342772752E+02  0.23126799962E+02  0.00000000000E+00 0. -1.
</event>
<event>
 7    1  0.2655561E-013  0.7246147E+02  0.7816164E-02  0.1226708E+00
        -11   -1    0    0    0    0  0.00000000000E+00  0.00000000000E+00  0.45593999997E+02  0.45594000000E+02  0.51100000000E-03 0.  1.
         11   -1    0    0    0    0 -0.00000000000E+00 -0.00000000000E+00 -0.45593999997E+02  0.45594000000E+02  0.51100000000E-03 0. -1.
    9900012    2    1    2    0    0  0.17384158694E+02  0.43599100397E+01  0.54281633411E+01  0.72461474793E+02  0.69999875592E+02 0.  0.
        -12    1    1    2    0    0 -0.17384158694E+02 -0.43599100397E+01 -0.54281633411E+01  0.18726525207E+02  0.00000000000E+00 0.  1.
         11    1    3    3    0    0  0.39650404884E+01  0.23661218839E+01 -0.52824686673E+01  0.70160212604E+01  0.51100000000E-03 0. -1.
        -11    1    3    3    0    0 -0.91037475409E+00  0.28600900235E+02  0.18703784699E+02  0.34185842665E+02  0.51100000000E-03 0.  1.
         12    1    3    3    0    0  0.14329492960E+02 -0.26607112079E+02 -0.79931526904E+01  0.31259610868E+02  0.00000000000E+00 0. -1.
</event>
<event>
 7    1  0.2655561E-013  0.7246153E+02  0.7816164E-02  0.1226708E+00
        -11   -1    0    0    0    0  0.00000000000E+00  0.00000000000E+00  0.45593999997E+02  0.45594000000E+02  0.51100000000E-03 0. -1.
         11   -1    0    0    0    0 -0.00000000000E+00 -0.00000000000E+00 -0.45593999997E+02  0.45594000000E+02  0.51100000000E-03 0.  1.
    9900012    2    1    2    0    0 -0.99725735023E+01 -0.67822515577E+01  0.14325827787E+02  0.72461534764E+02  0.69999953716E+02 0.  0.
        -12    1    1    2    0    0  0.99725735023E+01  0.67822515577E+01 -0.14325827787E+02  0.18726465236E+02  0.00000000000E+00 0.  1.
         11    1    3    3    0    0 -0.27098462432E+02  0.13272227468E+02  0.19539224825E+02  0.35948017959E+02  0.51100000000E-03 0. -1.
        -11    1    3    3    0    0 -0.46459836161E+01  0.20326938428E+01 -0.41212262445E-01  0.50713614278E+01  0.51100000000E-03 0.  1.
        -12    1    3    3    0    0  0.21771872546E+02 -0.22087172868E+02 -0.51721847763E+01  0.31442155378E+02  0.00000000000E+00 0.  1.
</event>
<event>
 7    1  0.2732592E-013  0.7246165E+02  0.7816164E-02  0.1226708E+00
        -11   -1    0    0    0    0  0.00000000000E+00  0.00000000000E+00  0.45593999997E+02  0.45594000000E+02  0.51100000000E-03 0.  1.
         11   -1    0    0    0    0 -0.00000000000E+00 -0.00000000000E+00 -0.45593999997E+02  0.45594000000E+02  0.51100000000E-03 0. -1.
    9900012    2    1    2    0    0  0.15307160261E+02  0.10653137832E+02  0.16963592428E+01  0.72461651300E+02  0.70000105525E+02 0.  0.
        -12    1    1    2    0    0 -0.15307160261E+02 -0.10653137832E+02 -0.16963592428E+01  0.18726348700E+02  0.00000000000E+00 0.  1.
         11    1    3    3    0    0  0.20936475762E+02 -0.17752658184E+02 -0.10537976789E+02  0.29403092439E+02  0.51100000000E-03 0. -1.
        -11    1    3    3    0    0  0.50585996790E+01  0.17773620632E+02 -0.59722451150E+01  0.19420574993E+02  0.51100000000E-03 0.  1.
        -12    1    3    3    0    0 -0.10687915179E+02  0.10632175384E+02  0.18206581147E+02  0.23637983868E+02  0.00000000000E+00 0.  1.
</event>
<event>
 7    1  0.2655561E-013  0.7246171E+02  0.7816164E-02  0.1226708E+00
        -11   -1    0    0    0    0  0.00000000000E+00  0.00000000000E+00  0.45593999997E+02  0.45594000000E+02  0.51100000000E-03 0. -1.
         11   -1    0    0    0    0 -0.00000000000E+00 -0.00000000000E+00 -0.45593999997E+02  0.45594000000E+02  0.51100000000E-03 0.  1.
    9900012    2    1    2    0    0  0.14076374272E+02  0.61122159658E+01  0.10731747738E+02  0.72461710828E+02  0.70000183071E+02 0.  0.
        -12    1    1    2    0    0 -0.14076374272E+02 -0.61122159658E+01 -0.10731747738E+02  0.18726289172E+02  0.00000000000E+00 0.  1.
         11    1    3    3    0    0  0.79498938389E+01 -0.34414587067E+01  0.31297694195E+02  0.32474453225E+02  0.51100000000E-03 0. -1.
        -11    1    3    3    0    0 -0.78746499705E+01  0.82201469800E+01  0.36748234639E+01  0.11961824956E+02  0.51100000000E-03 0.  1.
        -12    1    3    3    0    0  0.14001130403E+02  0.13335276925E+01 -0.24240769921E+02  0.28025432647E+02  0.00000000000E+00 0.  1.
</event>
<event>
 7    1  0.2655561E-013  0.7246157E+02  0.7816164E-02  0.1226708E+00
        -11   -1    0    0    0    0  0.00000000000E+00  0.00000000000E+00  0.45593999997E+02  0.45594000000E+02  0.51100000000E-03 0.  1.
         11   -1    0    0    0    0 -0.00000000000E+00 -0.00000000000E+00 -0.45593999997E+02  0.45594000000E+02  0.51100000000E-03 0. -1.
    9900012    2    1    2    0    0  0.17565838416E+02  0.15662904301E+01 -0.62981913149E+01  0.72461570580E+02  0.70000000372E+02 0.  0.
        -12    1    1    2    0    0 -0.17565838416E+02 -0.15662904301E+01  0.62981913149E+01  0.18726429420E+02  0.00000000000E+00 0.  1.
         11    1    3    3    0    0  0.17523581080E+01 -0.54060824471E+01  0.24044101379E+01  0.61707110397E+01  0.51100000000E-03 0. -1.
        -11    1    3    3    0    0 -0.60277341615E+01 -0.22697726742E+02  0.93328422621E+01  0.25270977886E+02  0.51100000000E-03 0.  1.
         12    1    3    3    0    0  0.21841214470E+02  0.29670099619E+02 -0.18035443715E+02  0.41019881654E+02  0.00000000000E+00 0. -1.
</event>
<event>
 7    1  0.2655561E-013  0.7246155E+02  0.7816164E-02  0.1226708E+00
        -11   -1    0    0    0    0  0.00000000000E+00  0.00000000000E+00  0.45593999997E+02  0.45594000000E+02  0.51100000000E-03 0.  1.
         11   -1    0    0    0    0 -0.00000000000E+00 -0.00000000000E+00 -0.45593999997E+02  0.45594000000E+02  0.51100000000E-03 0. -1.
    9900012    2    1    2    0    0  0.20413229375E+01 -0.17938584741E+02 -0.49719199407E+01  0.72461553200E+02  0.69999977731E+02 0.  0.
        -12    1    1    2    0    0 -0.20413229375E+01  0.17938584741E+02  0.49719199407E+01  0.18726446800E+02  0.00000000000E+00 0.  1.
         11    1    3    3    0    0  0.28693484562E+01 -0.18207774324E+02 -0.18012301299E+02  0.25772062485E+02  0.51100000000E-03 0. -1.
        -11    1    3    3    0    0  0.10970973446E+02 -0.18165777602E+02  0.12834762790E+02  0.24800985270E+02  0.51100000000E-03 0.  1.
         12    1    3    3    0    0 -0.11798998965E+02  0.18434967184E+02  0.20561856826E+00  0.21888505445E+02  0.00000000000E+00 0. -1.
</event>
<event>
 7    1  0.2655561E-013  0.7246160E+02  0.7816164E-02  0.1226708E+00
        -11   -1    0    0    0    0  0.00000000000E+00  0.00000000000E+00  0.45593999997E+02  0.45594000000E+02  0.51100000000E-03 0.  1.
         11   -1    0    0    0    0 -0.00000000000E+00 -0.00000000000E+00 -0.45593999997E+02  0.45594000000E+02  0.51100000000E-03 0. -1.
    9900012    2    1    2    0    0  0.14369802564E+02  0.10093959509E+02 -0.65037664975E+01  0.72461595568E+02  0.70000032923E+02 0.  0.
        -12    1    1    2    0    0 -0.14369802564E+02 -0.10093959509E+02  0.65037664975E+01  0.18726404432E+02  0.00000000000E+00 0.  1.
         11    1    3    3    0    0  0.18686380318E+02  0.81822515450E+01 -0.27841623096E+02  0.34515011613E+02  0.51100000000E-03 0. -1.
        -11    1    3    3    0    0  0.62474648891E+01 -0.53823892266E+00 -0.59120206433E+01  0.86181498609E+01  0.51100000000E-03 0.  1.
        -12    1    3    3    0    0 -0.10564042643E+02  0.24499468872E+01  0.27249877242E+02  0.29328434094E+02  0.00000000000E+00 0.  1.
</event>
<event>
 7    1  0.2655561E-013  0.7246161E+02  0.7816164E-02  0.1226708E+00
        -11   -1    0    0    0    0  0.00000000000E+00  0.00000000000E+00  0.45593999997E+02  0.45594000000E+02  0.51100000000E-03 0.  1.
         11   -1    0    0    0    0 -0.00000000000E+00 -0.00000000000E+00 -0.45593999997E+02  0.45594000000E+02  0.51100000000E-03 0. -1.
    9900012    2    1    2    0    0 -0.63002076654E+01 -0.10057190253E+02 -0.14485790880E+02  0.72461606064E+02  0.70000046597E+02 0.  0.
        -12    1    1    2    0    0  0.63002076654E+01  0.10057190253E+02  0.14485790880E+02  0.18726393936E+02  0.00000000000E+00 0.  1.
         11    1    3    3    0    0 -0.10829153217E+02  0.51119848233E+01 -0.48983592097E+01  0.12938194288E+02  0.51100000000E-03 0. -1.
        -11    1    3    3    0    0 -0.25367639433E+02 -0.93082155954E+01 -0.10636867765E+02  0.29039679132E+02  0.51100000000E-03 0.  1.
        -12    1    3    3    0    0  0.29896584985E+02 -0.58609594813E+01  0.10494360947E+01  0.30483732644E+02  0.00000000000E+00 0.  1.
</event>
<event>
 7    1  0.2655561E-013  0.7246171E+02  0.7816164E-02  0.1226708E+00
        -11   -1    0    0    0    0  0.00000000000E+00  0.00000000000E+00  0.45593999997E+02  0.45594000000E+02  0.51100000000E-03 0. -1.
         11   -1    0    0    0    0 -0.00000000000E+00 -0.00000000000E+00 -0.45593999997E+02  0.45594000000E+02  0.51100000000E-03 0.  1.
    9900012    2    1    2    0    0 -0.17194200461E+02 -0.34706423682E+01  0.65565264721E+01  0.72461710263E+02  0.70000182335E+02 0.  0.
        -12    1    1    2    0    0  0.17194200461E+02  0.34706423682E+01 -0.65565264721E+01  0.18726289737E+02  0.00000000000E+00 0.  1.
         11    1    3    3    0    0  0.38236251057E+01 -0.14222441194E+02 -0.92876495525E+01  0.17411443850E+02  0.51100000000E-03 0. -1.
        -11    1    3    3    0    0 -0.64659721200E+01 -0.18604363504E+02  0.33228915239E+01  0.19974302121E+02  0.51100000000E-03 0.  1.
        -12    1    3    3    0    0 -0.14551853446E+02  0.29356162330E+02  0.12521284501E+02  0.35075964292E+02  0.00000000000E+00 0.  1.
</event>
<event>
 7    1  0.2655561E-013  0.7246155E+02  0.7816164E-02  0.1226708E+00
        -11   -1    0    0    0    0  0.00000000000E+00  0.00000000000E+00  0.45593999997E+02  0.45594000000E+02  0.51100000000E-03 0.  1.
         11   -1    0    0    0    0 -0.00000000000E+00 -0.00000000000E+00 -0.45593999997E+02  0.45594000000E+02  0.51100000000E-03 0. -1.
    9900012    2    1    2    0    0  0.13357306689E+02  0.24015875485E+00 -0.13122670425E+02  0.72461553532E+02  0.69999978164E+02 0.  0.
        -12    1    1    2    0    0 -0.13357306689E+02 -0.24015875485E+00  0.13122670425E+02  0.18726446468E+02  0.00000000000E+00 0.  1.
         11    1    3    3    0    0  0.15736765965E+02 -0.35233783595E+01 -0.21051423592E+02  0.26518341457E+02  0.51100000000E-03 0. -1.
        -11    1    3    3    0    0 -0.70747363932E+01  0.23717818986E+02  0.40272612292E+01  0.25075997801E+02  0.51100000000E-03 0.  1.
         12    1    3    3    0    0  0.46952771176E+01 -0.19954281871E+02  0.39014919376E+01  0.20867214274E+02  0.00000000000E+00 0. -1.
</event>
<event>
 7    1  0.2655561E-013  0.7246155E+02  0.7816164E-02  0.1226708E+00
        -11   -1    0    0    0    0  0.00000000000E+00  0.00000000000E+00  0.45593999997E+02  0.45594000000E+02  0.51100000000E-03 0.  1.
         11   -1    0    0    0    0 -0.00000000000E+00 -0.00000000000E+00 -0.45593999997E+02  0.45594000000E+02  0.51100000000E-03 0. -1.
    9900012    2    1    2    0    0 -0.10416991786E+02  0.12386363756E+02 -0.94204077859E+01  0.72461553252E+02  0.69999977799E+02 0.  0.
        -12    1    1    2    0    0  0.10416991786E+02 -0.12386363756E+02  0.94204077859E+01  0.18726446748E+02  0.00000000000E+00 0.  1.
         11    1    3    3    0    0 -0.42008644049E+01 -0.25784708787E+02 -0.16250102990E+01  0.26175162420E+02  0.51100000000E-03 0. -1.
        -11    1    3    3    0    0  0.44056662473E+00 -0.34473989115E+01 -0.71830316519E+00  0.35488896720E+01  0.51100000000E-03 0.  1.
        -12    1    3    3    0    0 -0.66566940062E+01  0.41618471455E+02 -0.70770943216E+01  0.42737501159E+02  0.00000000000E+00 0.  1.
</event>
<event>
 7    1  0.2655561E-013  0.7246156E+02  0.7816164E-02  0.1226708E+00
        -11   -1    0    0    0    0  0.00000000000E+00  0.00000000000E+00  0.45593999997E+02  0.45594000000E+02  0.51100000000E-03 0. -1.
         11   -1    0    0    0    0 -0.00000000000E+00 -0.00000000000E+00 -0.45593999997E+02  0.45594000000E+02  0.51100000000E-03 0.  1.
    9900012    2    1    2    0    0  0.52046181498E+01 -0.16454404267E+02 -0.72694032816E+01  0.72461556293E+02  0.69999981760E+02 0.  0.
        -12    1    1    2    0    0 -0.52046181498E+01  0.16454404267E+02  0.72694032816E+01  0.18726443707E+02  0.00000000000E+00 0.  1.
         11    1    3    3    0    0 -0.87519805886E+01 -0.10698525110E+02  0.28309952000E+02  0.31504110625E+02  0.51100000000E-03 0. -1.
        -11    1    3    3    0    0  0.27021041004E+00  0.34176365186E+00  0.11820828482E+01  0.12598159312E+01  0.51100000000E-03 0.  1.
        -12    1    3    3    0    0  0.13686388328E+02 -0.60976428089E+01 -0.36761438130E+02  0.39697629736E+02  0.00000000000E+00 0.  1.
</event>
<event>
 7    1  0.2655561E-013  0.7246158E+02  0.7816164E-02  0.1226708E+00
        -11   -1    0    0    0    0  0.00000000000E+00  0.00000000000E+00  0.45593999997E+02  0.45594000000E+02  0.51100000000E-03 0. -1.
         11   -1    0    0    0    0 -0.00000000000E+00 -0.00000000000E+00 -0.45593999997E+02  0.45594000000E+02  0.51100000000E-03 0.  1.
    9900012    2    1    2    0    0  0.36678039271E+00  0.14145724324E+02  0.12265511333E+02  0.72461579820E+02  0.70000012408E+02 0.  0.
        -12    1    1    2    0    0 -0.36678039271E+00 -0.14145724324E+02 -0.12265511333E+02  0.18726420180E+02  0.00000000000E+00 0.  1.
         11    1    3    3    0    0  0.23722361120E+02  0.83917117439E+01 -0.60451714963E+01  0.25878858974E+02  0.51100000000E-03 0. -1.
        -11    1    3    3    0    0  0.61606528210E+01  0.85671970618E+01 -0.18698161508E+01  0.10716656259E+02  0.51100000000E-03 0.  1.
        -12    1    3    3    0    0 -0.29516233549E+02 -0.28131844817E+01  0.20180498980E+02  0.35866064586E+02  0.00000000000E+00 0.  1.
</event>
<event>
 7    1  0.2655561E-013  0.7246157E+02  0.7816164E-02  0.1226708E+00
        -11   -1    0    0    0    0  0.00000000000E+00  0.00000000000E+00  0.45593999997E+02  0.45594000000E+02  0.51100000000E-03 0.  1.
         11   -1    0    0    0    0 -0.00000000000E+00 -0.00000000000E+00 -0.45593999997E+02  0.45594000000E+02  0.51100000000E-03 0. -1.
    9900012    2    1    2    0    0 -0.10734030116E+01 -0.18688294652E+02  0.52400094370E+00  0.72461571403E+02  0.70000001444E+02 0.  0.
        -12    1    1    2    0    0  0.10734030116E+01  0.18688294652E+02 -0.52400094370E+00  0.18726428597E+02  0.00000000000E+00 0.  1.
         11    1    3    3    0    0 -0.39981176413E+01 -0.26121031025E+02 -0.13588592714E+02  0.29714357788E+02  0.51100000000E-03 0. -1.
        -11    1    3    3    0    0  0.12790225134E+02  0.13716821740E+01 -0.98050181148E+01  0.16174354747E+02  0.51100000000E-03 0.  1.
        -12    1    3    3    0    0 -0.98655105047E+01  0.60610541997E+01  0.23917611773E+02  0.26572858869E+02  0.00000000000E+00 0.  1.
</event>
<event>
 7    1  0.2655561E-013  0.7246161E+02  0.7816164E-02  0.1226708E+00
        -11   -1    0    0    0    0  0.00000000000E+00  0.00000000000E+00  0.45593999997E+02  0.45594000000E+02  0.51100000000E-03 0. -1.
         11   -1    0    0    0    0 -0.00000000000E+00 -0.00000000000E+00 -0.45593999997E+02  0.45594000000E+02  0.51100000000E-03 0.  1.
    9900012    2    1    2    0    0 -0.63730229703E+01 -0.16497253365E+02 -0.61565438159E+01  0.72461606270E+02  0.70000046865E+02 0.  0.
        -12    1    1    2    0    0  0.63730229703E+01  0.16497253365E+02  0.61565438159E+01  0.18726393730E+02  0.00000000000E+00 0.  1.
         11    1    3    3    0    0 -0.13898575465E+02  0.10255499051E+01  0.10348040314E+02  0.17358113122E+02  0.51100000000E-03 0. -1.
        -11    1    3    3    0    0 -0.16269122535E+02 -0.15952012179E+01 -0.20470415250E+02  0.26196696657E+02  0.51100000000E-03 0.  1.
         12    1    3    3    0    0  0.23794675029E+02 -0.15927602053E+02  0.39658311200E+01  0.28906796491E+02  0.00000000000E+00 0. -1.
</event>
<event>
 7    1  0.2655561E-013  0.7246157E+02  0.7816164E-02  0.1226708E+00
        -11   -1    0    0    0    0  0.00000000000E+00  0.00000000000E+00  0.45593999997E+02  0.45594000000E+02  0.51100000000E-03 0.  1.
         11   -1    0    0    0    0 -0.00000000000E+00 -0.00000000000E+00 -0.45593999997E+02  0.45594000000E+02  0.51100000000E-03 0. -1.
    9900012    2    1    2    0    0  0.10913108652E+02 -0.14950555355E+02 -0.28397264680E+01  0.72461572357E+02  0.70000002687E+02 0.  0.
        -12    1    1    2    0    0 -0.10913108652E+02  0.14950555355E+02  0.28397264680E+01  0.18726427643E+02  0.00000000000E+00 0.  1.
         11    1    3    3    0    0  0.10361855677E+02 -0.87923569597E+01 -0.16231669526E+01  0.13686060982E+02  0.51100000000E-03 0. -1.
        -11    1    3    3    0    0  0.22335310996E+02 -0.11261945366E+02  0.16730182118E+02  0.30093130855E+02  0.51100000000E-03 0.  1.
         12    1    3    3    0    0 -0.21784058021E+02  0.51037469712E+01 -0.17946741634E+02  0.28682380520E+02  0.00000000000E+00 0. -1.
</event>
<event>
 7    1  0.2655561E-013  0.7246158E+02  0.7816164E-02  0.1226708E+00
        -11   -1    0    0    0    0  0.00000000000E+00  0.00000000000E+00  0.45593999997E+02  0.45594000000E+02  0.51100000000E-03 0.  1.
         11   -1    0    0    0    0 -0.00000000000E+00 -0.00000000000E+00 -0.45593999997E+02  0.45594000000E+02  0.51100000000E-03 0. -1.
    9900012    2    1    2    0    0 -0.68751974478E+01  0.16508485167E+02 -0.55570091470E+01  0.72461580878E+02  0.70000013787E+02 0.  0.
        -12    1    1    2    0    0  0.68751974478E+01 -0.16508485167E+02  0.55570091470E+01  0.18726419122E+02  0.00000000000E+00 0.  1.
         11    1    3    3    0    0 -0.33132768826E+01  0.89582777413E+01 -0.18830796614E+02  0.21114626333E+02  0.51100000000E-03 0. -1.
        -11    1    3    3    0    0 -0.44911367132E+01  0.28386333707E+02  0.80627320029E+01  0.29848984872E+02  0.51100000000E-03 0.  1.
        -12    1    3    3    0    0  0.92921614794E+00 -0.20836126280E+02  0.52110554642E+01  0.21497969673E+02  0.00000000000E+00 0.  1.
</event>
<event>
 7    1  0.2655561E-013  0.7246204E+02  0.7816164E-02  0.1226707E+00
        -11   -1    0    0    0    0  0.00000000000E+00  0.00000000000E+00  0.45593999997E+02  0.45594000000E+02  0.51100000000E-03 0. -1.
         11   -1    0    0    0    0 -0.00000000000E+00 -0.00000000000E+00 -0.45593999997E+02  0.45594000000E+02  0.51100000000E-03 0.  1.
    9900012    2    1    2    0    0  0.12492906091E+02  0.66872057665E+01  0.12242148653E+02  0.72462038685E+02  0.70000610163E+02 0.  0.
        -12    1    1    2    0    0 -0.12492906091E+02 -0.66872057665E+01 -0.12242148653E+02  0.18725961315E+02  0.00000000000E+00 0.  1.
         11    1    3    3    0    0  0.15150795255E+02  0.10556354149E+02  0.13794514566E+01  0.18517183813E+02  0.51100000000E-03 0. -1.
        -11    1    3    3    0    0  0.97995247690E+01 -0.13443588142E+02 -0.15834686143E+02  0.22967325342E+02  0.51100000000E-03 0.  1.
        -12    1    3    3    0    0 -0.12457413934E+02  0.95744397590E+01  0.26697383339E+02  0.30977529530E+02  0.00000000000E+00 0.  1.
</event>
<event>
 7    1  0.2655561E-013  0.7246157E+02  0.7816164E-02  0.1226708E+00
        -11   -1    0    0    0    0  0.00000000000E+00  0.00000000000E+00  0.45593999997E+02  0.45594000000E+02  0.51100000000E-03 0.  1.
         11   -1    0    0    0    0 -0.00000000000E+00 -0.00000000000E+00 -0.45593999997E+02  0.45594000000E+02  0.51100000000E-03 0. -1.
    9900012    2    1    2    0    0  0.12561402572E+02 -0.66090254744E+01 -0.12215205494E+02  0.72461566876E+02  0.69999995547E+02 0.  0.
        -12    1    1    2    0    0 -0.12561402572E+02  0.66090254744E+01  0.12215205494E+02  0.18726433124E+02  0.00000000000E+00 0.  1.
         11    1    3    3    0    0 -0.16062684559E+02 -0.26763689125E+01  0.53250282980E+01  0.17132679663E+02  0.51100000000E-03 0. -1.
        -11    1    3    3    0    0  0.20783945510E+01 -0.13319935263E+02  0.93408003698E+01  0.16400943605E+02  0.51100000000E-03 0.  1.
        -12    1    3    3    0    0  0.26545692580E+02  0.93872787008E+01 -0.26881034162E+02  0.38927943608E+02  0.00000000000E+00 0.  1.
</event>
<event>
 7    1  0.2655561E-013  0.7246156E+02  0.7816164E-02  0.1226708E+00
        -11   -1    0    0    0    0  0.00000000000E+00  0.00000000000E+00  0.45593999997E+02  0.45594000000E+02  0.51100000000E-03 0.  1.
         11   -1    0    0    0    0 -0.00000000000E+00 -0.00000000000E+00 -0.45593999997E+02  0.45594000000E+02  0.51100000000E-03 0. -1.
    9900012    2    1    2    0    0  0.76415269797E+01  0.15393258163E+00 -0.17095696672E+02  0.72461562151E+02  0.69999989392E+02 0.  0.
        -12    1    1    2    0    0 -0.76415269797E+01 -0.15393258163E+00  0.17095696672E+02  0.18726437849E+02  0.00000000000E+00 0.  1.
         11    1    3    3    0    0  0.84302714766E+01 -0.11660358916E+02  0.43911904840E+01  0.15043802755E+02  0.51100000000E-03 0. -1.
        -11    1    3    3    0    0 -0.60016795999E+01  0.48650632080E+01  0.16622804959E+02  0.18330483981E+02  0.51100000000E-03 0.  1.
         12    1    3    3    0    0  0.52129351030E+01  0.69492282895E+01 -0.38109692115E+02  0.39087275414E+02  0.00000000000E+00 0. -1.
</event>
<event>
 7    1  0.2655561E-013  0.7246163E+02  0.7816164E-02  0.1226708E+00
        -11   -1    0    0    0    0  0.00000000000E+00  0.00000000000E+00  0.45593999997E+02  0.45594000000E+02  0.51100000000E-03 0.  1.
         11   -1    0    0    0    0 -0.00000000000E+00 -0.00000000000E+00 -0.45593999997E+02  0.45594000000E+02  0.51100000000E-03 0. -1.
    9900012    2    1    2    0    0  0.94061974049E-01  0.30646214097E+01 -0.18473657664E+02  0.72461634108E+02  0.70000083129E+02 0.  0.
        -12    1    1    2    0    0 -0.94061974049E-01 -0.30646214097E+01  0.18473657664E+02  0.18726365892E+02  0.00000000000E+00 0.  1.
         11    1    3    3    0    0  0.96574002346E+01  0.16048609024E+00 -0.30177312695E+02  0.31685348930E+02  0.51100000000E-03 0. -1.
        -11    1    3    3    0    0  0.10571996822E+02 -0.93811303196E+01 -0.65140397992E+00  0.14149100688E+02  0.51100000000E-03 0.  1.
        -12    1    3    3    0    0 -0.20135335082E+02  0.12285265639E+02  0.12355059010E+02  0.26627184490E+02  0.00000000000E+00 0.  1.
</event>
<event>
 7    1  0.2655561E-013  0.7246158E+02  0.7816164E-02  0.1226708E+00
        -11   -1    0    0    0    0  0.00000000000E+00  0.00000000000E+00  0.45593999997E+02  0.45594000000E+02  0.51100000000E-03 0.  1.
         11   -1    0    0    0    0 -0.00000000000E+00 -0.00000000000E+00 -0.45593999997E+02  0.45594000000E+02  0.51100000000E-03 0. -1.
    9900012    2    1    2    0    0  0.40011574422E+01  0.18026944308E+02 -0.31142661000E+01  0.72461584558E+02  0.70000018582E+02 0.  0.
        -12    1    1    2    0    0 -0.40011574422E+01 -0.18026944308E+02  0.31142661000E+01  0.18726415442E+02  0.00000000000E+00 0.  1.
         11    1    3    3    0    0 -0.13890480302E+02 -0.97393340093E+01 -0.19425493342E+01  0.17075525413E+02  0.51100000000E-03 0. -1.
        -11    1    3    3    0    0 -0.46230149394E+01  0.57444637908E+00 -0.16318785573E+02  0.16970710610E+02  0.51100000000E-03 0.  1.
        -12    1    3    3    0    0  0.22514652684E+02  0.27191831938E+02  0.15147068807E+02  0.38415348535E+02  0.00000000000E+00 0.  1.
</event>
<event>
 7    1  0.2655561E-013  0.7246173E+02  0.7816164E-02  0.1226708E+00
        -11   -1    0    0    0    0  0.00000000000E+00  0.00000000000E+00  0.45593999997E+02  0.45594000000E+02  0.51100000000E-03 0.  1.
         11   -1    0    0    0    0 -0.00000000000E+00 -0.00000000000E+00 -0.45593999997E+02  0.45594000000E+02  0.51100000000E-03 0. -1.
    9900012    2    1    2    0    0 -0.17315444221E+02  0.11876938583E+00 -0.71298269668E+01  0.72461731089E+02  0.70000209465E+02 0.  0.
        -12    1    1    2    0    0  0.17315444221E+02 -0.11876938583E+00  0.71298269668E+01  0.18726268911E+02  0.00000000000E+00 0.  1.
         11    1    3    3    0    0  0.19981209477E+01 -0.89984878420E+01  0.45789564889E+01  0.10292332756E+02  0.51100000000E-03 0. -1.
        -11    1    3    3    0    0 -0.11221475819E+02  0.16262174096E+02  0.20336897541E+02  0.28354351126E+02  0.51100000000E-03 0.  1.
         12    1    3    3    0    0 -0.80920893499E+01 -0.71449168682E+01 -0.32045680997E+02  0.33815047208E+02  0.00000000000E+00 0. -1.
</event>
<event>
 7    1  0.2655561E-013  0.7246154E+02  0.7816164E-02  0.1226708E+00
        -11   -1    0    0    0    0  0.00000000000E+00  0.00000000000E+00  0.45593999997E+02  0.45594000000E+02  0.51100000000E-03 0. -1.
         11   -1    0    0    0    0 -0.00000000000E+00 -0.00000000000E+00 -0.45593999997E+02  0.45594000000E+02  0.51100000000E-03 0.  1.
    9900012    2    1    2    0    0 -0.14059983121E+02  0.12276627067E+02  0.15105225606E+01  0.72461538083E+02  0.69999958039E+02 0.  0.
        -12    1    1    2    0    0  0.14059983121E+02 -0.12276627067E+02 -0.15105225606E+01  0.18726461917E+02  0.00000000000E+00 0.  1.
         11    1    3    3    0    0 -0.31503652627E+02  0.51569614913E+01  0.12603357405E+02  0.34320824565E+02  0.51100000000E-03 0. -1.
        -11    1    3    3    0    0 -0.74170220441E+01 -0.36162816542E+01 -0.68627782199E+01  0.10732540900E+02  0.51100000000E-03 0.  1.
        -12    1    3    3    0    0  0.24860691550E+02  0.10735947230E+02 -0.42300566247E+01  0.27408172619E+02  0.00000000000E+00 0.  1.
</event>
<event>
 7    1  0.2655561E-013  0.7246143E+02  0.7816164E-02  0.1226708E+00
        -11   -1    0    0    0    0  0.00000000000E+00  0.00000000000E+00  0.45593999997E+02  0.45594000000E+02  0.51100000000E-03 0.  1.
         11   -1    0    0    0    0 -0.00000000000E+00 -0.00000000000E+00 -0.45593999997E+02  0.45594000000E+02  0.51100000000E-03 0. -1.
    9900012    2    1    2    0    0 -0.55521341147E+01  0.15383720329E+02 -0.91213622211E+01  0.72461433493E+02  0.69999821790E+02 0.  0.
        -12    1    1    2    0    0  0.55521341147E+01 -0.15383720329E+02  0.91213622211E+01  0.18726566507E+02  0.00000000000E+00 0.  1.
         11    1    3    3    0    0  0.28270741246E+01  0.77541561344E+00  0.10564311604E+01  0.31160334622E+01  0.51100000000E-03 0. -1.
        -11    1    3    3    0    0 -0.10858944648E+02  0.37870966296E+02  0.73963791223E+01  0.40085323891E+02  0.51100000000E-03 0.  1.
         12    1    3    3    0    0  0.24797364087E+01 -0.23262661581E+02 -0.17574172504E+02  0.29260076139E+02  0.00000000000E+00 0. -1.
</event>
<event>
 7    1  0.2655561E-013  0.7246170E+02  0.7816164E-02  0.1226708E+00
        -11   -1    0    0    0    0  0.00000000000E+00  0.00000000000E+00  0.45593999997E+02  0.45594000000E+02  0.51100000000E-03 0.  1.
         11   -1    0    0    0    0 -0.00000000000E+00 -0.00000000000E+00 -0.45593999997E+02  0.45594000000E+02  0.51100000000E-03 0. -1.
    9900012    2    1    2    0    0 -0.15890143196E+02 -0.90458483049E+01 -0.40435408807E+01  0.72461701776E+02  0.70000171279E+02 0.  0.
        -12    1    1    2    0    0  0.15890143196E+02  0.90458483049E+01  0.40435408807E+01  0.18726298224E+02  0.00000000000E+00 0.  1.
         11    1    3    3    0    0  0.11191057947E+02 -0.14722942665E+02 -0.14924399977E+02  0.23764312185E+02  0.51100000000E-03 0. -1.
        -11    1    3    3    0    0 -0.96904137347E+01 -0.13463194814E+02  0.15175329183E+02  0.22482267435E+02  0.51100000000E-03 0.  1.
         12    1    3    3    0    0 -0.17390787408E+02  0.19140289174E+02 -0.42944700867E+01  0.26215122156E+02  0.00000000000E+00 0. -1.
</event>
<event>
 7    1  0.2655561E-013  0.7246153E+02  0.7816164E-02  0.1226708E+00
        -11   -1    0    0    0    0  0.00000000000E+00  0.00000000000E+00  0.45593999997E+02  0.45594000000E+02  0.51100000000E-03 0. -1.
         11   -1    0    0    0    0 -0.00000000000E+00 -0.00000000000E+00 -0.45593999997E+02  0.45594000000E+02  0.51100000000E-03 0.  1.
    9900012    2    1    2    0    0  0.94870828366E+01  0.15307463181E+02  0.51339427524E+01  0.72461533756E+02  0.69999952402E+02 0.  0.
        -12    1    1    2    0    0 -0.94870828366E+01 -0.15307463181E+02 -0.51339427524E+01  0.18726466244E+02  0.00000000000E+00 0.  1.
         11    1    3    3    0    0 -0.57466077711E+01 -0.49504956446E+00  0.40716233743E+01  0.70602189845E+01  0.51100000000E-03 0. -1.
        -11    1    3    3    0    0  0.10663120585E+02 -0.21158172805E+02  0.12037247074E+02  0.26575660564E+02  0.51100000000E-03 0.  1.
         12    1    3    3    0    0  0.45705700229E+01  0.36960685551E+02 -0.10974927696E+02  0.38825654207E+02  0.00000000000E+00 0. -1.
</event>
<event>
 7    1  0.2655561E-013  0.7246160E+02  0.7816164E-02  0.1226708E+00
        -11   -1    0    0    0    0  0.00000000000E+00  0.00000000000E+00  0.45593999997E+02  0.45594000000E+02  0.51100000000E-03 0. -1.
         11   -1    0    0    0    0 -0.00000000000E+00 -0.00000000000E+00 -0.45593999997E+02  0.45594000000E+02  0.51100000000E-03 0.  1.
    9900012    2    1    2    0    0  0.10772135075E+02  0.46238727807E+01  0.14603394082E+02  0.72461595853E+02  0.70000033295E+02 0.  0.
        -12    1    1    2    0    0 -0.10772135075E+02 -0.46238727807E+01 -0.14603394082E+02  0.18726404147E+02  0.00000000000E+00 0.  1.
         11    1    3    3    0    0  0.22113333900E+02  0.83615500118E+01  0.16141984028E+02  0.28626538446E+02  0.51100000000E-03 0. -1.
        -11    1    3    3    0    0 -0.92845488832E+01 -0.67204382977E+01  0.19428443634E+02  0.22557295077E+02  0.51100000000E-03 0.  1.
        -12    1    3    3    0    0 -0.20566499416E+01  0.29827610666E+01 -0.20967033581E+02  0.21277762330E+02  0.00000000000E+00 0.  1.
</event>
<event>
 7    1  0.2655561E-013  0.7246153E+02  0.7816164E-02  0.1226708E+00
        -11   -1    0    0    0    0  0.00000000000E+00  0.00000000000E+00  0.45593999997E+02  0.45594000000E+02  0.51100000000E-03 0. -1.
         11   -1    0    0    0    0 -0.00000000000E+00 -0.00000000000E+00 -0.45593999997E+02  0.45594000000E+02  0.51100000000E-03 0.  1.
    9900012    2    1    2    0    0 -0.15268806004E+02 -0.48850385664E+01  0.96788819210E+01  0.72461526925E+02  0.69999943504E+02 0.  0.
        -12    1    1    2    0    0  0.15268806004E+02  0.48850385664E+01 -0.96788819210E+01  0.18726473075E+02  0.00000000000E+00 0.  1.
         11    1    3    3    0    0 -0.70375281036E+01 -0.51284801588E+00 -0.69992445682E+01  0.99387745564E+01  0.51100000000E-03 0. -1.
        -11    1    3    3    0    0 -0.21688841307E+02 -0.75851653487E+01 -0.15350870296E+02  0.27633128482E+02  0.51100000000E-03 0.  1.
         12    1    3    3    0    0  0.13457563407E+02  0.32129747981E+01  0.32028996785E+02  0.34889623887E+02  0.00000000000E+00 0. -1.
</event>
<event>
 7    1  0.2655561E-013  0.7246160E+02  0.7816164E-02  0.1226708E+00
        -11   -1    0    0    0    0  0.00000000000E+00  0.00000000000E+00  0.45593999997E+02  0.45594000000E+02  0.51100000000E-03 0.  1.
         11   -1    0    0    0    0 -0.00000000000E+00 -0.00000000000E+00 -0.45593999997E+02  0.45594000000E+02  0.51100000000E-03 0. -1.
    9900012    2    1    2    0    0 -0.15389006806E+02  0.51570766723E+01  0.93413603056E+01  0.72461601984E+02  0.70000041282E+02 0.  0.
        -12    1    1    2    0    0  0.15389006806E+02 -0.51570766723E+01 -0.93413603056E+01  0.18726398016E+02  0.00000000000E+00 0.  1.
         11    1    3    3    0    0 -0.26258178310E+02 -0.19381334421E+02  0.19970160556E+02  0.38261408299E+02  0.51100000000E-03 0. -1.
        -11    1    3    3    0    0  0.26830053133E+00  0.44569821011E+01 -0.10589552987E+02  0.11492402157E+02  0.51100000000E-03 0.  1.
        -12    1    3    3    0    0  0.10600870972E+02  0.20081428992E+02 -0.39247263974E-01  0.22707791528E+02  0.00000000000E+00 0.  1.
</event>
<event>
 7    1  0.2655561E-013  0.7246154E+02  0.7816164E-02  0.1226708E+00
        -11   -1    0    0    0    0  0.00000000000E+00  0.00000000000E+00  0.45593999997E+02  0.45594000000E+02  0.51100000000E-03 0. -1.
         11   -1    0    0    0    0 -0.00000000000E+00 -0.00000000000E+00 -0.45593999997E+02  0.45594000000E+02  0.51100000000E-03 0.  1.
    9900012    2    1    2    0    0 -0.12491856696E+02 -0.10340028393E+02  0.93657769041E+01  0.72461536161E+02  0.69999955535E+02 0.  0.
        -12    1    1    2    0    0  0.12491856696E+02  0.10340028393E+02 -0.93657769041E+01  0.18726463839E+02  0.00000000000E+00 0.  1.
         11    1    3    3    0    0  0.17542048654E+01  0.12130208797E+02  0.67675030476E+01  0.14000653482E+02  0.51100000000E-03 0. -1.
        -11    1    3    3    0    0  0.46276946648E+01  0.87302471079E+01  0.16667269087E+02  0.19376032400E+02  0.51100000000E-03 0.  1.
        -12    1    3    3    0    0 -0.18873756227E+02 -0.31200484298E+02 -0.14068995231E+02  0.39084850279E+02  0.00000000000E+00 0.  1.
</event>
<event>
 7    1  0.2655561E-013  0.7246154E+02  0.7816164E-02  0.1226708E+00
        -11   -1    0    0    0    0  0.00000000000E+00  0.00000000000E+00  0.45593999997E+02  0.45594000000E+02  0.51100000000E-03 0. -1.
         11   -1    0    0    0    0 -0.00000000000E+00 -0.00000000000E+00 -0.45593999997E+02  0.45594000000E+02  0.51100000000E-03 0.  1.
    9900012    2    1    2    0    0  0.94662044302E+01  0.21924567657E+01  0.16008255246E+02  0.72461544676E+02  0.69999966627E+02 0.  0.
        -12    1    1    2    0    0 -0.94662044302E+01 -0.21924567657E+01 -0.16008255246E+02  0.18726455324E+02  0.00000000000E+00 0.  1.
         11    1    3    3    0    0  0.23275921255E+02 -0.14449813162E+02 -0.24426174510E+01  0.27505126630E+02  0.51100000000E-03 0. -1.
        -11    1    3    3    0    0  0.85454989072E+01 -0.49121449514E+01  0.32268884063E+01  0.10371476686E+02  0.51100000000E-03 0.  1.
        -12    1    3    3    0    0 -0.22355215732E+02  0.21554414879E+02  0.15223984290E+02  0.34584941360E+02  0.00000000000E+00 0.  1.
</event>
<event>
 7    1  0.2655561E-013  0.7246160E+02  0.7816164E-02  0.1226708E+00
        -11   -1    0    0    0    0  0.00000000000E+00  0.00000000000E+00  0.45593999997E+02  0.45594000000E+02  0.51100000000E-03 0.  1.
         11   -1    0    0    0    0 -0.00000000000E+00 -0.00000000000E+00 -0.45593999997E+02  0.45594000000E+02  0.51100000000E-03 0. -1.
    9900012    2    1    2    0    0 -0.16284753283E+02  0.51283240468E+01 -0.76932002232E+01  0.72461595468E+02  0.70000032793E+02 0.  0.
        -12    1    1    2    0    0  0.16284753283E+02 -0.51283240468E+01  0.76932002232E+01  0.18726404532E+02  0.00000000000E+00 0.  1.
         11    1    3    3    0    0  0.43888225385E+01 -0.13467947904E+01  0.52584768450E+01  0.69804869796E+01  0.51100000000E-03 0. -1.
        -11    1    3    3    0    0  0.20617121185E+02  0.96231767830E+01 -0.54602889699E+01  0.23398418178E+02  0.51100000000E-03 0.  1.
         12    1    3    3    0    0 -0.41290697006E+02 -0.31480579459E+01 -0.74913880984E+01  0.42082690310E+02  0.00000000000E+00 0. -1.
</event>
<event>
 7    1  0.2655561E-013  0.7246157E+02  0.7816164E-02  0.1226708E+00
        -11   -1    0    0    0    0  0.00000000000E+00  0.00000000000E+00  0.45593999997E+02  0.45594000000E+02  0.51100000000E-03 0. -1.
         11   -1    0    0    0    0 -0.00000000000E+00 -0.00000000000E+00 -0.45593999997E+02  0.45594000000E+02  0.51100000000E-03 0.  1.
    9900012    2    1    2    0    0 -0.16103230068E+02 -0.53211512065E+01  0.79404365284E+01  0.72461569452E+02  0.69999998903E+02 0.  0.
        -12    1    1    2    0    0  0.16103230068E+02  0.53211512065E+01 -0.79404365284E+01  0.18726430548E+02  0.00000000000E+00 0.  1.
         11    1    3    3    0    0 -0.95919125049E+01  0.55676106118E+01  0.17747473865E+02  0.20927873811E+02  0.51100000000E-03 0. -1.
        -11    1    3    3    0    0 -0.16281074193E+02 -0.11763675350E+02  0.14861586899E+02  0.24986480345E+02  0.51100000000E-03 0.  1.
        -12    1    3    3    0    0  0.97697566298E+01  0.87491353163E+00 -0.24668624235E+02  0.26547215296E+02  0.00000000000E+00 0.  1.
</event>
<event>
 7    1  0.2655561E-013  0.7246158E+02  0.7816164E-02  0.1226708E+00
        -11   -1    0    0    0    0  0.00000000000E+00  0.00000000000E+00  0.45593999997E+02  0.45594000000E+02  0.51100000000E-03 0.  1.
         11   -1    0    0    0    0 -0.00000000000E+00 -0.00000000000E+00 -0.45593999997E+02  0.45594000000E+02  0.51100000000E-03 0. -1.
    9900012    2    1    2    0    0  0.58893423954E+01 -0.13569916213E+02 -0.11482683151E+02  0.72461575028E+02  0.70000006167E+02 0.  0.
        -12    1    1    2    0    0 -0.58893423954E+01  0.13569916213E+02  0.11482683151E+02  0.18726424972E+02  0.00000000000E+00 0.  1.
         11    1    3    3    0    0 -0.81840586236E+01  0.16236373378E+01  0.32615701749E+01  0.89583957284E+01  0.51100000000E-03 0. -1.
        -11    1    3    3    0    0 -0.16051620248E+02 -0.29853234102E+01  0.12919471112E+02  0.20820168168E+02  0.51100000000E-03 0.  1.
         12    1    3    3    0    0  0.30125021267E+02 -0.12208230141E+02 -0.27663724438E+02  0.42683011132E+02  0.00000000000E+00 0. -1.
</event>
<event>
 7    1  0.2655561E-013  0.7246154E+02  0.7816164E-02  0.1226708E+00
        -11   -1    0    0    0    0  0.00000000000E+00  0.00000000000E+00  0.45593999997E+02  0.45594000000E+02  0.51100000000E-03 0. -1.
         11   -1    0    0    0    0 -0.00000000000E+00 -0.00000000000E+00 -0.45593999997E+02  0.45594000000E+02  0.51100000000E-03 0.  1.
    9900012    2    1    2    0    0 -0.14470500635E+02 -0.40443394136E+01  0.11177130078E+02  0.72461539931E+02  0.69999960446E+02 0.  0.
        -12    1    1    2    0    0  0.14470500635E+02  0.40443394136E+01 -0.11177130078E+02  0.18726460069E+02  0.00000000000E+00 0.  1.
         11    1    3    3    0    0 -0.48737858462E+01 -0.69057417237E+01  0.25417408860E+02  0.26785961448E+02  0.51100000000E-03 0. -1.
        -11    1    3    3    0    0 -0.19917307168E+02 -0.11712594811E+02 -0.44612640741E+00  0.23110236499E+02  0.51100000000E-03 0.  1.
        -12    1    3    3    0    0  0.10320592379E+02  0.14573997121E+02 -0.13794152375E+02  0.22565341984E+02  0.00000000000E+00 0.  1.
</event>
<event>
 7    1  0.3184703E-013  0.7246159E+02  0.7816164E-02  0.1226708E+00
        -11   -1    0    0    0    0  0.00000000000E+00  0.00000000000E+00  0.45593999997E+02  0.45594000000E+02  0.51100000000E-03 0. -1.
         11   -1    0    0    0    0 -0.00000000000E+00 -0.00000000000E+00 -0.45593999997E+02  0.45594000000E+02  0.51100000000E-03 0.  1.
    9900012    2    1    2    0    0  0.10247526884E+02  0.14641674495E+02  0.55935806510E+01  0.72461585935E+02  0.70000020375E+02 0.  0.
        -12    1    1    2    0    0 -0.10247526884E+02 -0.14641674495E+02 -0.55935806510E+01  0.18726414065E+02  0.00000000000E+00 0.  1.
         11    1    3    3    0    0  0.16425135536E+02  0.61519542394E+01  0.15312293755E+02  0.23282997200E+02  0.51100000000E-03 0. -1.
        -11    1    3    3    0    0  0.10865654901E+02 -0.14996937545E+02 -0.78040257463E+01  0.20096601958E+02  0.51100000000E-03 0.  1.
        -12    1    3    3    0    0 -0.17043263553E+02  0.23486657801E+02 -0.19146873574E+01  0.29081986776E+02  0.00000000000E+00 0.  1.
</event>
<event>
 7    1  0.2655561E-013  0.7246156E+02  0.7816164E-02  0.1226708E+00
        -11   -1    0    0    0    0  0.00000000000E+00  0.00000000000E+00  0.45593999997E+02  0.45594000000E+02  0.51100000000E-03 0. -1.
         11   -1    0    0    0    0 -0.00000000000E+00 -0.00000000000E+00 -0.45593999997E+02  0.45594000000E+02  0.51100000000E-03 0.  1.
    9900012    2    1    2    0    0 -0.18548888173E+02 -0.23889888468E+01  0.95449550541E+00  0.72461559285E+02  0.69999985658E+02 0.  0.
        -12    1    1    2    0    0  0.18548888173E+02  0.23889888468E+01 -0.95449550541E+00  0.18726440715E+02  0.00000000000E+00 0.  1.
         11    1    3    3    0    0  0.38500216070E+01 -0.92672020497E+01  0.25316327870E+02  0.27232703819E+02  0.51100000000E-03 0. -1.
        -11    1    3    3    0    0  0.75419546591E+00  0.50858218523E+01  0.54151429993E+01  0.74671392566E+01  0.51100000000E-03 0.  1.
        -12    1    3    3    0    0 -0.23153105246E+02  0.17923913507E+01 -0.29776975364E+02  0.37761716210E+02  0.00000000000E+00 0.  1.
</event>
<event>
 7    1  0.2655561E-013  0.7246172E+02  0.7816164E-02  0.1226708E+00
        -11   -1    0    0    0    0  0.00000000000E+00  0.00000000000E+00  0.45593999997E+02  0.45594000000E+02  0.51100000000E-03 0. -1.
         11   -1    0    0    0    0 -0.00000000000E+00 -0.00000000000E+00 -0.45593999997E+02  0.45594000000E+02  0.51100000000E-03 0.  1.
    9900012    2    1    2    0    0 -0.33853189577E+01  0.82326049294E+01  0.16475353525E+02  0.72461723217E+02  0.70000199210E+02 0.  0.
        -12    1    1    2    0    0  0.33853189577E+01 -0.82326049294E+01 -0.16475353525E+02  0.18726276783E+02  0.00000000000E+00 0.  1.
         11    1    3    3    0    0  0.55650732975E+01 -0.11410761963E+02 -0.58025121305E+00  0.12708745851E+02  0.51100000000E-03 0. -1.
        -11    1    3    3    0    0 -0.22015614554E+02  0.25388191083E+01 -0.10716623935E+02  0.24616638996E+02  0.51100000000E-03 0.  1.
        -12    1    3    3    0    0  0.13065222298E+02  0.17104547784E+02  0.27772228673E+02  0.35136338370E+02  0.00000000000E+00 0.  1.
</event>
<event>
 7    1  0.2655561E-013  0.7246156E+02  0.7816164E-02  0.1226708E+00
        -11   -1    0    0    0    0  0.00000000000E+00  0.00000000000E+00  0.45593999997E+02  0.45594000000E+02  0.51100000000E-03 0. -1.
         11   -1    0    0    0    0 -0.00000000000E+00 -0.00000000000E+00 -0.45593999997E+02  0.45594000000E+02  0.51100000000E-03 0.  1.
    9900012    2    1    2    0    0  0.32602007723E+01  0.17116259506E+02  0.68618028428E+01  0.72461559152E+02  0.69999985485E+02 0.  0.
        -12    1    1    2    0    0 -0.32602007723E+01 -0.17116259506E+02 -0.68618028428E+01  0.18726440848E+02  0.00000000000E+00 0.  1.
         11    1    3    3    0    0 -0.21050317554E+02 -0.97140712374E+00  0.12815569889E+02  0.24663704765E+02  0.51100000000E-03 0. -1.
        -11    1    3    3    0    0 -0.70953429179E+01  0.14072086618E+02 -0.22848842232E+01  0.15924453180E+02  0.51100000000E-03 0.  1.
        -12    1    3    3    0    0  0.31405861244E+02  0.40155800118E+01 -0.36688828227E+01  0.31873401207E+02  0.00000000000E+00 0.  1.
</event>
<event>
 7    1  0.2655561E-013  0.7246158E+02  0.7816164E-02  0.1226708E+00
        -11   -1    0    0    0    0  0.00000000000E+00  0.00000000000E+00  0.45593999997E+02  0.45594000000E+02  0.51100000000E-03 0.  1.
         11   -1    0    0    0    0 -0.00000000000E+00 -0.00000000000E+00 -0.45593999997E+02  0.45594000000E+02  0.51100000000E-03 0. -1.
    9900012    2    1    2    0    0  0.62177366288E+01  0.45345970622E+01 -0.17072085706E+02  0.72461576698E+02  0.70000008343E+02 0.  0.
        -12    1    1    2    0    0 -0.62177366288E+01 -0.45345970622E+01  0.17072085706E+02  0.18726423302E+02  0.00000000000E+00 0.  1.
         11    1    3    3    0    0  0.28100077901E+01  0.25159873370E+02  0.39891733384E+01  0.25628672926E+02  0.51100000000E-03 0. -1.
        -11    1    3    3    0    0  0.53351444689E+01 -0.24967732501E+01  0.95404369125E+01  0.11212385112E+02  0.51100000000E-03 0.  1.
         12    1    3    3    0    0 -0.19274156301E+01 -0.18128503058E+02 -0.30601695957E+02  0.35620518660E+02  0.00000000000E+00 0. -1.
</event>
<event>
 7    1  0.2655561E-013  0.7246154E+02  0.7816164E-02  0.1226708E+00
        -11   -1    0    0    0    0  0.00000000000E+00  0.00000000000E+00  0.45593999997E+02  0.45594000000E+02  0.51100000000E-03 0.  1.
         11   -1    0    0    0    0 -0.00000000000E+00 -0.00000000000E+00 -0.45593999997E+02  0.45594000000E+02  0.51100000000E-03 0. -1.
    9900012    2    1    2    0    0  0.63533834614E+01 -0.12651364888E+01 -0.17570263274E+02  0.72461542694E+02  0.69999964045E+02 0.  0.
        -12    1    1    2    0    0 -0.63533834614E+01  0.12651364888E+01  0.17570263274E+02  0.18726457306E+02  0.00000000000E+00 0.  1.
         11    1    3    3    0    0  0.16336316613E+01  0.11737193537E+02 -0.51066392192E+01  0.12903806760E+02  0.51100000000E-03 0. -1.
        -11    1    3    3    0    0 -0.24289624199E+02 -0.11151253066E+02 -0.14520297040E+02  0.30416694677E+02  0.51100000000E-03 0.  1.
         12    1    3    3    0    0  0.29009375999E+02 -0.18510769597E+01  0.20566729857E+01  0.29141041257E+02  0.00000000000E+00 0. -1.
</event>
<event>
 7    1  0.2655561E-013  0.7246159E+02  0.7816164E-02  0.1226708E+00
        -11   -1    0    0    0    0  0.00000000000E+00  0.00000000000E+00  0.45593999997E+02  0.45594000000E+02  0.51100000000E-03 0.  1.
         11   -1    0    0    0    0 -0.00000000000E+00 -0.00000000000E+00 -0.45593999997E+02  0.45594000000E+02  0.51100000000E-03 0. -1.
    9900012    2    1    2    0    0  0.25706680298E+01  0.18015354171E+02 -0.44177976889E+01  0.72461594674E+02  0.70000031759E+02 0.  0.
        -12    1    1    2    0    0 -0.25706680298E+01 -0.18015354171E+02  0.44177976889E+01  0.18726405326E+02  0.00000000000E+00 0.  1.
         11    1    3    3    0    0 -0.17906347217E+02  0.21123419572E+02 -0.21889648911E+02  0.35298623979E+02  0.51100000000E-03 0. -1.
        -11    1    3    3    0    0  0.33463330925E+01  0.62659627950E+01 -0.39894234309E+01  0.81471304449E+01  0.51100000000E-03 0.  1.
        -12    1    3    3    0    0  0.17130682154E+02 -0.93740281968E+01  0.21461274653E+02  0.29015840250E+02  0.00000000000E+00 0.  1.
</event>
<event>
 7    1  0.2655561E-013  0.7246155E+02  0.7816164E-02  0.1226708E+00
        -11   -1    0    0    0    0  0.00000000000E+00  0.00000000000E+00  0.45593999997E+02  0.45594000000E+02  0.51100000000E-03 0.  1.
         11   -1    0    0    0    0 -0.00000000000E+00 -0.00000000000E+00 -0.45593999997E+02  0.45594000000E+02  0.51100000000E-03 0. -1.
    9900012    2    1    2    0    0 -0.63162133352E+01  0.16076683525E+02 -0.72336431412E+01  0.72461550866E+02  0.69999974691E+02 0.  0.
        -12    1    1    2    0    0  0.63162133352E+01 -0.16076683525E+02  0.72336431412E+01  0.18726449134E+02  0.00000000000E+00 0.  1.
         11    1    3    3    0    0 -0.21101580823E+02 -0.16287616025E+02 -0.15822081777E+02  0.30998409976E+02  0.51100000000E-03 0. -1.
        -11    1    3    3    0    0 -0.34054062873E+01  0.72906208480E-01 -0.52327507770E-01  0.34065885760E+01  0.51100000000E-03 0.  1.
        -12    1    3    3    0    0  0.18190773775E+02  0.32291393342E+02  0.86407661431E+01  0.38056552314E+02  0.00000000000E+00 0.  1.
</event>
<event>
 7    1  0.2655561E-013  0.7246162E+02  0.7816164E-02  0.1226708E+00
        -11   -1    0    0    0    0  0.00000000000E+00  0.00000000000E+00  0.45593999997E+02  0.45594000000E+02  0.51100000000E-03 0.  1.
         11   -1    0    0    0    0 -0.00000000000E+00 -0.00000000000E+00 -0.45593999997E+02  0.45594000000E+02  0.51100000000E-03 0. -1.
    9900012    2    1    2    0    0  0.14321041693E+02  0.10470200948E+02 -0.59966781036E+01  0.72461615102E+02  0.70000058371E+02 0.  0.
        -12    1    1    2    0    0 -0.14321041693E+02 -0.10470200948E+02  0.59966781036E+01  0.18726384898E+02  0.00000000000E+00 0.  1.
         11    1    3    3    0    0  0.16585554520E+02  0.13980121025E+02 -0.21518402516E+02  0.30554313111E+02  0.51100000000E-03 0. -1.
        -11    1    3    3    0    0  0.10782828335E+02  0.12935414448E+02  0.11861189092E+02  0.20598110127E+02  0.51100000000E-03 0.  1.
        -12    1    3    3    0    0 -0.13047341162E+02 -0.16445334526E+02  0.36605353205E+01  0.21309191864E+02  0.00000000000E+00 0.  1.
</event>
<event>
 7    1  0.2655561E-013  0.7246179E+02  0.7816164E-02  0.1226707E+00
        -11   -1    0    0    0    0  0.00000000000E+00  0.00000000000E+00  0.45593999997E+02  0.45594000000E+02  0.51100000000E-03 0.  1.
         11   -1    0    0    0    0 -0.00000000000E+00 -0.00000000000E+00 -0.45593999997E+02  0.45594000000E+02  0.51100000000E-03 0. -1.
    9900012    2    1    2    0    0 -0.86487180059E+01 -0.76947872698E+01 -0.14719406582E+02  0.72461788306E+02  0.70000284000E+02 0.  0.
        -12    1    1    2    0    0  0.86487180059E+01  0.76947872698E+01  0.14719406582E+02  0.18726211694E+02  0.00000000000E+00 0.  1.
         11    1    3    3    0    0  0.36899108625E+00 -0.40712779825E+01 -0.73803037331E+01  0.84368443323E+01  0.51100000000E-03 0. -1.
        -11    1    3    3    0    0 -0.72029007645E+01  0.29120822456E+02 -0.85978754841E+01  0.31206210008E+02  0.51100000000E-03 0.  1.
         12    1    3    3    0    0 -0.18148083277E+01 -0.32744331743E+02  0.12587726348E+01  0.32818733966E+02  0.00000000000E+00 0. -1.
</event>
<event>
 7    1  0.2655561E-013  0.7246156E+02  0.7816164E-02  0.1226708E+00
        -11   -1    0    0    0    0  0.00000000000E+00  0.00000000000E+00  0.45593999997E+02  0.45594000000E+02  0.51100000000E-03 0. -1.
         11   -1    0    0    0    0 -0.00000000000E+00 -0.00000000000E+00 -0.45593999997E+02  0.45594000000E+02  0.51100000000E-03 0.  1.
    9900012    2    1    2    0    0 -0.43372618659E+01  0.66804892751E+01  0.16948118708E+02  0.72461561332E+02  0.69999988324E+02 0.  0.
        -12    1    1    2    0    0  0.43372618659E+01 -0.66804892751E+01 -0.16948118708E+02  0.18726438668E+02  0.00000000000E+00 0.  1.
         11    1    3    3    0    0  0.49538317917E+01  0.59067299651E+01  0.25767894372E+01  0.81283302323E+01  0.51100000000E-03 0. -1.
        -11    1    3    3    0    0 -0.32673257494E+02  0.14328083682E+02  0.85328930682E+01  0.36683047878E+02  0.51100000000E-03 0.  1.
         12    1    3    3    0    0  0.23382163837E+02 -0.13554324372E+02  0.58384362028E+01  0.27650183221E+02  0.00000000000E+00 0. -1.
</event>
<event>
 7    1  0.2655561E-013  0.7246158E+02  0.7816164E-02  0.1226708E+00
        -11   -1    0    0    0    0  0.00000000000E+00  0.00000000000E+00  0.45593999997E+02  0.45594000000E+02  0.51100000000E-03 0.  1.
         11   -1    0    0    0    0 -0.00000000000E+00 -0.00000000000E+00 -0.45593999997E+02  0.45594000000E+02  0.51100000000E-03 0. -1.
    9900012    2    1    2    0    0  0.23876669049E+01  0.17683225486E+02 -0.56816550087E+01  0.72461584954E+02  0.70000019096E+02 0.  0.
        -12    1    1    2    0    0 -0.23876669049E+01 -0.17683225486E+02  0.56816550087E+01  0.18726415046E+02  0.00000000000E+00 0.  1.
         11    1    3    3    0    0 -0.13384627978E+01 -0.18240396432E+01  0.98279228529E+01  0.10084972541E+02  0.51100000000E-03 0. -1.
        -11    1    3    3    0    0  0.66399336989E+01  0.16923438489E+02  0.19784382295E+02  0.26868443812E+02  0.51100000000E-03 0.  1.
         12    1    3    3    0    0 -0.29138039962E+01  0.25838266409E+01 -0.35293960157E+02  0.35508168601E+02  0.00000000000E+00 0. -1.
</event>
<event>
 7    1  0.2655561E-013  0.7246157E+02  0.7816164E-02  0.1226708E+00
        -11   -1    0    0    0    0  0.00000000000E+00  0.00000000000E+00  0.45593999997E+02  0.45594000000E+02  0.51100000000E-03 0.  1.
         11   -1    0    0    0    0 -0.00000000000E+00 -0.00000000000E+00 -0.45593999997E+02  0.45594000000E+02  0.51100000000E-03 0. -1.
    9900012    2    1    2    0    0  0.74684260352E+01 -0.70929203156E+01 -0.15639441763E+02  0.72461573627E+02  0.70000004341E+02 0.  0.
        -12    1    1    2    0    0 -0.74684260352E+01  0.70929203156E+01  0.15639441763E+02  0.18726426373E+02  0.00000000000E+00 0.  1.
         11    1    3    3    0    0  0.52360775258E+01  0.24623957635E+02 -0.10869191090E+02  0.27420705911E+02  0.51100000000E-03 0. -1.
        -11    1    3    3    0    0  0.25522939056E+01  0.18147455105E+01 -0.10557325137E+02  0.11012021602E+02  0.51100000000E-03 0.  1.
        -12    1    3    3    0    0 -0.31994539622E+00 -0.33531623461E+02  0.57870744635E+01  0.34028846114E+02  0.00000000000E+00 0.  1.
</event>
<event>
 7    1  0.2655561E-013  0.7246159E+02  0.7816164E-02  0.1226708E+00
        -11   -1    0    0    0    0  0.00000000000E+00  0.00000000000E+00  0.45593999997E+02  0.45594000000E+02  0.51100000000E-03 0. -1.
         11   -1    0    0    0    0 -0.00000000000E+00 -0.00000000000E+00 -0.45593999997E+02  0.45594000000E+02  0.51100000000E-03 0.  1.
    9900012    2    1    2    0    0  0.11498687744E+01 -0.18687624774E+02  0.35921674806E+00  0.72461586714E+02  0.70000021390E+02 0.  0.
        -12    1    1    2    0    0 -0.11498687744E+01  0.18687624774E+02 -0.35921674806E+00  0.18726413286E+02  0.00000000000E+00 0.  1.
         11    1    3    3    0    0  0.16964952606E+02  0.16071021187E+02  0.98318046950E+01  0.25352548643E+02  0.51100000000E-03 0. -1.
        -11    1    3    3    0    0 -0.91998211391E+01 -0.46589985813E+01 -0.12428443660E+02  0.16149587885E+02  0.51100000000E-03 0.  1.
        -12    1    3    3    0    0 -0.66152626920E+01 -0.30099647379E+02  0.29558557135E+01  0.30959450186E+02  0.00000000000E+00 0.  1.
</event>
<event>
 7    1  0.2655561E-013  0.7246163E+02  0.7816164E-02  0.1226708E+00
        -11   -1    0    0    0    0  0.00000000000E+00  0.00000000000E+00  0.45593999997E+02  0.45594000000E+02  0.51100000000E-03 0. -1.
         11   -1    0    0    0    0 -0.00000000000E+00 -0.00000000000E+00 -0.45593999997E+02  0.45594000000E+02  0.51100000000E-03 0.  1.
    9900012    2    1    2    0    0  0.13902921245E+01  0.27467918547E+01  0.18471578623E+02  0.72461628368E+02  0.70000075651E+02 0.  0.
        -12    1    1    2    0    0 -0.13902921245E+01 -0.27467918547E+01 -0.18471578623E+02  0.18726371632E+02  0.00000000000E+00 0.  1.
         11    1    3    3    0    0 -0.25733124991E+01  0.14322600636E+02  0.80481413682E+01  0.16629233474E+02  0.51100000000E-03 0. -1.
        -11    1    3    3    0    0  0.16617765454E+02  0.13067978239E+02  0.17267956120E+02  0.27296602220E+02  0.51100000000E-03 0.  1.
        -12    1    3    3    0    0 -0.12654160831E+02 -0.24643787020E+02 -0.68445188650E+01  0.28535792674E+02  0.00000000000E+00 0.  1.
</event>
<event>
 7    1  0.2655561E-013  0.7246157E+02  0.7816164E-02  0.1226708E+00
        -11   -1    0    0    0    0  0.00000000000E+00  0.00000000000E+00  0.45593999997E+02  0.45594000000E+02  0.51100000000E-03 0.  1.
         11   -1    0    0    0    0 -0.00000000000E+00 -0.00000000000E+00 -0.45593999997E+02  0.45594000000E+02  0.51100000000E-03 0. -1.
    9900012    2    1    2    0    0  0.87824155219E+01 -0.16236786859E+02 -0.31488417111E+01  0.72461567504E+02  0.69999996366E+02 0.  0.
        -12    1    1    2    0    0 -0.87824155219E+01  0.16236786859E+02  0.31488417111E+01  0.18726432496E+02  0.00000000000E+00 0.  1.
         11    1    3    3    0    0  0.22376762824E+02 -0.63558194749E+01  0.17183436022E+01  0.23325279434E+02  0.51100000000E-03 0. -1.
        -11    1    3    3    0    0 -0.17594508607E+02 -0.20286808633E+02  0.11598617136E+02  0.29251482995E+02  0.51100000000E-03 0.  1.
         12    1    3    3    0    0  0.40001613049E+01  0.10405841250E+02 -0.16465802450E+02  0.19884805075E+02  0.00000000000E+00 0. -1.
</event>
<event>
 7    1  0.2655561E-013  0.7246154E+02  0.7816164E-02  0.1226708E+00
        -11   -1    0    0    0    0  0.00000000000E+00  0.00000000000E+00  0.45593999997E+02  0.45594000000E+02  0.51100000000E-03 0.  1.
         11   -1    0    0    0    0 -0.00000000000E+00 -0.00000000000E+00 -0.45593999997E+02  0.45594000000E+02  0.51100000000E-03 0. -1.
    9900012    2    1    2    0    0  0.91760977177E+00 -0.49248380066E+01 -0.18043955653E+02  0.72461538169E+02  0.69999958151E+02 0.  0.
        -12    1    1    2    0    0 -0.91760977177E+00  0.49248380066E+01  0.18043955653E+02  0.18726461831E+02  0.00000000000E+00 0.  1.
         11    1    3    3    0    0  0.89785411029E+01 -0.38498412637E+01 -0.28047246532E+02  0.29699890848E+02  0.51100000000E-03 0. -1.
        -11    1    3    3    0    0 -0.14800635344E+02  0.11754247024E+02 -0.72380514217E+01  0.20238836882E+02  0.51100000000E-03 0.  1.
        -12    1    3    3    0    0  0.67397040127E+01 -0.12829243767E+02  0.17241342300E+02  0.22522810440E+02  0.00000000000E+00 0.  1.
</event>
<event>
 7    1  0.2704819E-013  0.7246154E+02  0.7816164E-02  0.1226708E+00
        -11   -1    0    0    0    0  0.00000000000E+00  0.00000000000E+00  0.45593999997E+02  0.45594000000E+02  0.51100000000E-03 0. -1.
         11   -1    0    0    0    0 -0.00000000000E+00 -0.00000000000E+00 -0.45593999997E+02  0.45594000000E+02  0.51100000000E-03 0.  1.
    9900012    2    1    2    0    0  0.79973394599E+01 -0.24101027413E+01  0.16760497722E+02  0.72461539642E+02  0.69999960070E+02 0.  0.
        -12    1    1    2    0    0 -0.79973394599E+01  0.24101027413E+01 -0.16760497722E+02  0.18726460358E+02  0.00000000000E+00 0.  1.
         11    1    3    3    0    0 -0.38876315052E+01  0.18294678670E+02  0.34786872259E+02  0.39496017877E+02  0.51100000000E-03 0. -1.
        -11    1    3    3    0    0  0.57271452422E+01 -0.90200191636E+01 -0.82792133746E-01  0.10684932996E+02  0.51100000000E-03 0.  1.
        -12    1    3    3    0    0  0.61578257229E+01 -0.11684762248E+02 -0.17943582403E+02  0.22280588769E+02  0.00000000000E+00 0.  1.
</event>
<event>
 7    1  0.2655561E-013  0.7246163E+02  0.7816164E-02  0.1226708E+00
        -11   -1    0    0    0    0  0.00000000000E+00  0.00000000000E+00  0.45593999997E+02  0.45594000000E+02  0.51100000000E-03 0.  1.
         11   -1    0    0    0    0 -0.00000000000E+00 -0.00000000000E+00 -0.45593999997E+02  0.45594000000E+02  0.51100000000E-03 0. -1.
    9900012    2    1    2    0    0  0.95130148758E+00 -0.13059014388E+02  0.13387830802E+02  0.72461632362E+02  0.70000080855E+02 0.  0.
        -12    1    1    2    0    0 -0.95130148758E+00  0.13059014388E+02 -0.13387830802E+02  0.18726367638E+02  0.00000000000E+00 0.  1.
         11    1    3    3    0    0 -0.21505597500E+02  0.73044115867E+01 -0.58773874586E+01  0.23460367347E+02  0.51100000000E-03 0. -1.
        -11    1    3    3    0    0 -0.63911465295E+01 -0.91796648605E+01 -0.21271352714E+01  0.11385855507E+02  0.51100000000E-03 0.  1.
        -12    1    3    3    0    0  0.28848045517E+02 -0.11183761114E+02  0.21392353532E+02  0.37615409508E+02  0.00000000000E+00 0.  1.
</event>
<event>
 7    1  0.2655561E-013  0.7246159E+02  0.7816164E-02  0.1226708E+00
        -11   -1    0    0    0    0  0.00000000000E+00  0.00000000000E+00  0.45593999997E+02  0.45594000000E+02  0.51100000000E-03 0.  1.
         11   -1    0    0    0    0 -0.00000000000E+00 -0.00000000000E+00 -0.45593999997E+02  0.45594000000E+02  0.51100000000E-03 0. -1.
    9900012    2    1    2    0    0 -0.12571345998E+02 -0.12276616261E+02 -0.64749035555E+01  0.72461590225E+02  0.70000025963E+02 0.  0.
        -12    1    1    2    0    0  0.12571345998E+02  0.12276616261E+02  0.64749035555E+01  0.18726409775E+02  0.00000000000E+00 0.  1.
         11    1    3    3    0    0 -0.36830478126E+01 -0.10320991302E+01 -0.27980617103E+02  0.28240839286E+02  0.51100000000E-03 0. -1.
        -11    1    3    3    0    0 -0.35235989871E+01  0.15450356115E+01 -0.95026951340E+01  0.10252029064E+02  0.51100000000E-03 0.  1.
        -12    1    3    3    0    0 -0.53646991983E+01 -0.12789552742E+02  0.31008408682E+02  0.33968721875E+02  0.00000000000E+00 0.  1.
</event>
<event>
 7    1  0.2655561E-013  0.7246158E+02  0.7816164E-02  0.1226708E+00
        -11   -1    0    0    0    0  0.00000000000E+00  0.00000000000E+00  0.45593999997E+02  0.45594000000E+02  0.51100000000E-03 0. -1.
         11   -1    0    0    0    0 -0.00000000000E+00 -0.00000000000E+00 -0.45593999997E+02  0.45594000000E+02  0.51100000000E-03 0.  1.
    9900012    2    1    2    0    0 -0.17910653455E+02 -0.20996249072E+01  0.50476628285E+01  0.72461579307E+02  0.70000011740E+02 0.  0.
        -12    1    1    2    0    0  0.17910653455E+02  0.20996249072E+01 -0.50476628285E+01  0.18726420693E+02  0.00000000000E+00 0.  1.
         11    1    3    3    0    0 -0.18625324331E+02  0.21681505870E+02 -0.21078031113E+02  0.35514416778E+02  0.51100000000E-03 0. -1.
        -11    1    3    3    0    0  0.37655841753E+01 -0.87158059869E+01  0.15788513879E+02  0.18423410893E+02  0.51100000000E-03 0.  1.
        -12    1    3    3    0    0 -0.30509132996E+01 -0.15065324790E+02  0.10337180062E+02  0.18523751635E+02  0.00000000000E+00 0.  1.
</event>
<event>
 7    1  0.2655561E-013  0.7246158E+02  0.7816164E-02  0.1226708E+00
        -11   -1    0    0    0    0  0.00000000000E+00  0.00000000000E+00  0.45593999997E+02  0.45594000000E+02  0.51100000000E-03 0.  1.
         11   -1    0    0    0    0 -0.00000000000E+00 -0.00000000000E+00 -0.45593999997E+02  0.45594000000E+02  0.51100000000E-03 0. -1.
    9900012    2    1    2    0    0  0.12462229435E+02  0.51294291708E+01  0.13002324175E+02  0.72461584431E+02  0.70000018416E+02 0.  0.
        -12    1    1    2    0    0 -0.12462229435E+02 -0.51294291708E+01 -0.13002324175E+02  0.18726415569E+02  0.00000000000E+00 0.  1.
         11    1    3    3    0    0  0.70094522947E+01  0.19205943705E+02  0.50820200568E+01  0.21067216788E+02  0.51100000000E-03 0. -1.
        -11    1    3    3    0    0  0.14064399960E+02 -0.10661057987E+02 -0.17185726858E+02  0.24633609389E+02  0.51100000000E-03 0.  1.
        -12    1    3    3    0    0 -0.86116228191E+01 -0.34154565469E+01  0.25106030975E+02  0.26760758254E+02  0.00000000000E+00 0.  1.
</event>
<event>
 7    1  0.2655561E-013  0.7246179E+02  0.7816164E-02  0.1226707E+00
        -11   -1    0    0    0    0  0.00000000000E+00  0.00000000000E+00  0.45593999997E+02  0.45594000000E+02  0.51100000000E-03 0.  1.
         11   -1    0    0    0    0 -0.00000000000E+00 -0.00000000000E+00 -0.45593999997E+02  0.45594000000E+02  0.51100000000E-03 0. -1.
    9900012    2    1    2    0    0  0.10763550933E+02  0.13572063596E+02 -0.71144808389E+01  0.72461794390E+02  0.70000291926E+02 0.  0.
        -12    1    1    2    0    0 -0.10763550933E+02 -0.13572063596E+02  0.71144808389E+01  0.18726205610E+02  0.00000000000E+00 0.  1.
         11    1    3    3    0    0  0.21809091052E+01  0.19426186275E+02 -0.22976752947E+02  0.30167271238E+02  0.51100000000E-03 0. -1.
        -11    1    3    3    0    0  0.21432106345E+02  0.52392472119E+01  0.70138681605E+01  0.23151225466E+02  0.51100000000E-03 0.  1.
        -12    1    3    3    0    0 -0.12849464517E+02 -0.11093369891E+02  0.88484039473E+01  0.19143297687E+02  0.00000000000E+00 0.  1.
</event>
<event>
 7    1  0.2655561E-013  0.7246157E+02  0.7816164E-02  0.1226708E+00
        -11   -1    0    0    0    0  0.00000000000E+00  0.00000000000E+00  0.45593999997E+02  0.45594000000E+02  0.51100000000E-03 0.  1.
         11   -1    0    0    0    0 -0.00000000000E+00 -0.00000000000E+00 -0.45593999997E+02  0.45594000000E+02  0.51100000000E-03 0. -1.
    9900012    2    1    2    0    0 -0.14079980824E+02 -0.11900748237E+02  0.32871737531E+01  0.72461570017E+02  0.69999999639E+02 0.  0.
        -12    1    1    2    0    0  0.14079980824E+02  0.11900748237E+02 -0.32871737531E+01  0.18726429983E+02  0.00000000000E+00 0.  1.
         11    1    3    3    0    0  0.52996104909E+00  0.94810866032E+00  0.20372312720E+01  0.23086966588E+01  0.51100000000E-03 0. -1.
        -11    1    3    3    0    0  0.17094910367E+02 -0.92907146859E+01  0.24053417467E+02  0.30937359809E+02  0.51100000000E-03 0.  1.
         12    1    3    3    0    0 -0.31704852240E+02 -0.35581422117E+01 -0.22803474986E+02  0.39215513550E+02  0.00000000000E+00 0. -1.
</event>
<event>
 7    1  0.2655561E-013  0.7246156E+02  0.7816164E-02  0.1226708E+00
        -11   -1    0    0    0    0  0.00000000000E+00  0.00000000000E+00  0.45593999997E+02  0.45594000000E+02  0.51100000000E-03 0. -1.
         11   -1    0    0    0    0 -0.00000000000E+00 -0.00000000000E+00 -0.45593999997E+02  0.45594000000E+02  0.51100000000E-03 0.  1.
    9900012    2    1    2    0    0  0.42413016195E+01 -0.61687801538E+01  0.17164991449E+02  0.72461563621E+02  0.69999991306E+02 0.  0.
        -12    1    1    2    0    0 -0.42413016195E+01  0.61687801538E+01 -0.17164991449E+02  0.18726436379E+02  0.00000000000E+00 0.  1.
         11    1    3    3    0    0 -0.99618701176E+01 -0.51660190012E+01  0.16345654736E+02  0.19826927084E+02  0.51100000000E-03 0. -1.
        -11    1    3    3    0    0 -0.86428362495E+01  0.17036601641E+02  0.10697553020E+02  0.21894795153E+02  0.51100000000E-03 0.  1.
         12    1    3    3    0    0  0.22846007987E+02 -0.18039362793E+02 -0.98782163076E+01  0.30739841384E+02  0.00000000000E+00 0. -1.
</event>
<event>
 7    1  0.2655561E-013  0.7246156E+02  0.7816164E-02  0.1226708E+00
        -11   -1    0    0    0    0  0.00000000000E+00  0.00000000000E+00  0.45593999997E+02  0.45594000000E+02  0.51100000000E-03 0. -1.
         11   -1    0    0    0    0 -0.00000000000E+00 -0.00000000000E+00 -0.45593999997E+02  0.45594000000E+02  0.51100000000E-03 0.  1.
    9900012    2    1    2    0    0  0.10496119272E+02 -0.15507566321E+02  0.16231442586E+00  0.72461562032E+02  0.69999989237E+02 0.  0.
        -12    1    1    2    0    0 -0.10496119272E+02  0.15507566321E+02 -0.16231442586E+00  0.18726437968E+02  0.00000000000E+00 0.  1.
         11    1    3    3    0    0 -0.14668267339E+02 -0.89107896987E+01 -0.20754085856E+01  0.17287786465E+02  0.51100000000E-03 0. -1.
        -11    1    3    3    0    0  0.21447481814E+02  0.69342132252E+01 -0.19161272743E+02  0.29584322919E+02  0.51100000000E-03 0.  1.
         12    1    3    3    0    0  0.37169047979E+01 -0.13530989848E+02  0.21398995754E+02  0.25589452648E+02  0.00000000000E+00 0. -1.
</event>
<event>
 7    1  0.2655561E-013  0.7246151E+02  0.7816164E-02  0.1226708E+00
        -11   -1    0    0    0    0  0.00000000000E+00  0.00000000000E+00  0.45593999997E+02  0.45594000000E+02  0.51100000000E-03 0. -1.
         11   -1    0    0    0    0 -0.00000000000E+00 -0.00000000000E+00 -0.45593999997E+02  0.45594000000E+02  0.51100000000E-03 0.  1.
    9900012    2    1    2    0    0 -0.13736414515E+00  0.16587982724E+02 -0.86891528288E+01  0.72461510296E+02  0.69999921841E+02 0.  0.
        -12    1    1    2    0    0  0.13736414515E+00 -0.16587982724E+02  0.86891528288E+01  0.18726489704E+02  0.00000000000E+00 0.  1.
         11    1    3    3    0    0 -0.22483334079E+01  0.40912637216E+00  0.78594717234E+01  0.81849669232E+01  0.51100000000E-03 0. -1.
        -11    1    3    3    0    0  0.14142650731E+02 -0.19503658898E+02 -0.98574461571E+01  0.26030300135E+02  0.51100000000E-03 0.  1.
        -12    1    3    3    0    0 -0.12031681468E+02  0.35682515250E+02 -0.66911783951E+01  0.38246243238E+02  0.00000000000E+00 0.  1.
</event>
<event>
 7    1  0.2655561E-013  0.7246154E+02  0.7816164E-02  0.1226708E+00
        -11   -1    0    0    0    0  0.00000000000E+00  0.00000000000E+00  0.45593999997E+02  0.45594000000E+02  0.51100000000E-03 0. -1.
         11   -1    0    0    0    0 -0.00000000000E+00 -0.00000000000E+00 -0.45593999997E+02  0.45594000000E+02  0.51100000000E-03 0.  1.
    9900012    2    1    2    0    0 -0.19802121295E+01  0.12886388594E+02  0.13442470729E+02  0.72461540902E+02  0.69999961710E+02 0.  0.
        -12    1    1    2    0    0  0.19802121295E+01 -0.12886388594E+02 -0.13442470729E+02  0.18726459098E+02  0.00000000000E+00 0.  1.
         11    1    3    3    0    0 -0.19101485263E+01  0.85474286485E+01  0.73944924112E+01  0.11462361108E+02  0.51100000000E-03 0. -1.
        -11    1    3    3    0    0  0.92976278155E+01 -0.26662332418E+02  0.12958215795E+01  0.28266676614E+02  0.51100000000E-03 0.  1.
         12    1    3    3    0    0 -0.93676914187E+01  0.31001292364E+02  0.47521567381E+01  0.32732503179E+02  0.00000000000E+00 0. -1.
</event>
<event>
 7    1  0.2655561E-013  0.7246157E+02  0.7816164E-02  0.1226708E+00
        -11   -1    0    0    0    0  0.00000000000E+00  0.00000000000E+00  0.45593999997E+02  0.45594000000E+02  0.51100000000E-03 0.  1.
         11   -1    0    0    0    0 -0.00000000000E+00 -0.00000000000E+00 -0.45593999997E+02  0.45594000000E+02  0.51100000000E-03 0. -1.
    9900012    2    1    2    0    0 -0.80458863022E+01  0.92739970136E+01 -0.14139863716E+02  0.72461573408E+02  0.70000004056E+02 0.  0.
        -12    1    1    2    0    0  0.80458863022E+01 -0.92739970136E+01  0.14139863716E+02  0.18726426592E+02  0.00000000000E+00 0.  1.
         11    1    3    3    0    0  0.15146770012E+02  0.69235353208E+01  0.26540849389E+00  0.16656242825E+02  0.51100000000E-03 0. -1.
        -11    1    3    3    0    0  0.30372272767E+01  0.20455291984E+02 -0.11843848901E+02  0.23831082157E+02  0.51100000000E-03 0.  1.
         12    1    3    3    0    0 -0.26229883591E+02 -0.18104830291E+02 -0.25614233085E+01  0.31974248426E+02  0.00000000000E+00 0. -1.
</event>
<event>
 7    1  0.2655561E-013  0.7246156E+02  0.7816164E-02  0.1226708E+00
        -11   -1    0    0    0    0  0.00000000000E+00  0.00000000000E+00  0.45593999997E+02  0.45594000000E+02  0.51100000000E-03 0.  1.
         11   -1    0    0    0    0 -0.00000000000E+00 -0.00000000000E+00 -0.45593999997E+02  0.45594000000E+02  0.51100000000E-03 0. -1.
    9900012    2    1    2    0    0 -0.19113846712E+01  0.17529494576E+02  0.63042113053E+01  0.72461557422E+02  0.69999983231E+02 0.  0.
        -12    1    1    2    0    0  0.19113846712E+01 -0.17529494576E+02 -0.63042113053E+01  0.18726442578E+02  0.00000000000E+00 0.  1.
         11    1    3    3    0    0  0.12283217368E+02  0.52555169095E+01 -0.11291736579E+02  0.17492890045E+02  0.51100000000E-03 0. -1.
        -11    1    3    3    0    0 -0.18630941130E+02 -0.13374859782E+02 -0.10356529957E+01  0.22958036044E+02  0.51100000000E-03 0.  1.
        -12    1    3    3    0    0  0.44363390911E+01  0.25648837448E+02  0.18631600880E+02  0.32010631333E+02  0.00000000000E+00 0.  1.
</event>
<event>
 7    1  0.2655561E-013  0.7246158E+02  0.7816164E-02  0.1226708E+00
        -11   -1    0    0    0    0  0.00000000000E+00  0.00000000000E+00  0.45593999997E+02  0.45594000000E+02  0.51100000000E-03 0. -1.
         11   -1    0    0    0    0 -0.00000000000E+00 -0.00000000000E+00 -0.45593999997E+02  0.45594000000E+02  0.51100000000E-03 0.  1.
    9900012    2    1    2    0    0 -0.37451653874E+01 -0.11991169284E+02 -0.13887569404E+02  0.72461575127E+02  0.70000006295E+02 0.  0.
        -12    1    1    2    0    0  0.37451653874E+01  0.11991169284E+02  0.13887569404E+02  0.18726424873E+02  0.00000000000E+00 0.  1.
         11    1    3    3    0    0  0.16521536560E+01  0.35599158277E+01 -0.94216490042E+00  0.40361228133E+01  0.51100000000E-03 0. -1.
        -11    1    3    3    0    0  0.17242797656E+02  0.14635149173E+02  0.94895501503E+01  0.24526582001E+02  0.51100000000E-03 0.  1.
         12    1    3    3    0    0 -0.22640116700E+02 -0.30186234284E+02 -0.22434954654E+02  0.43898870313E+02  0.00000000000E+00 0. -1.
</event>
<event>
 7    1  0.2655561E-013  0.7246161E+02  0.7816164E-02  0.1226708E+00
        -11   -1    0    0    0    0  0.00000000000E+00  0.00000000000E+00  0.45593999997E+02  0.45594000000E+02  0.51100000000E-03 0.  1.
         11   -1    0    0    0    0 -0.00000000000E+00 -0.00000000000E+00 -0.45593999997E+02  0.45594000000E+02  0.51100000000E-03 0. -1.
    9900012    2    1    2    0    0  0.65423568160E+01 -0.86965578533E+01 -0.15239596257E+02  0.72461605652E+02  0.70000046060E+02 0.  0.
        -12    1    1    2    0    0 -0.65423568160E+01  0.86965578533E+01  0.15239596257E+02  0.18726394348E+02  0.00000000000E+00 0.  1.
         11    1    3    3    0    0  0.64007641463E+01 -0.15988315312E+02 -0.79927274478E+01  0.18986302971E+02  0.51100000000E-03 0. -1.
        -11    1    3    3    0    0  0.26282372252E+02  0.42331292972E+01 -0.47057511733E+01  0.27033804194E+02  0.51100000000E-03 0.  1.
         12    1    3    3    0    0 -0.26140779582E+02  0.30586281619E+01 -0.25411176361E+01  0.26441498487E+02  0.00000000000E+00 0. -1.
</event>
<event>
 7    1  0.2655561E-013  0.7246152E+02  0.7816164E-02  0.1226708E+00
        -11   -1    0    0    0    0  0.00000000000E+00  0.00000000000E+00  0.45593999997E+02  0.45594000000E+02  0.51100000000E-03 0.  1.
         11   -1    0    0    0    0 -0.00000000000E+00 -0.00000000000E+00 -0.45593999997E+02  0.45594000000E+02  0.51100000000E-03 0. -1.
    9900012    2    1    2    0    0 -0.50265706089E+01 -0.40969192063E+01 -0.17567861175E+02  0.72461523948E+02  0.69999939625E+02 0.  0.
        -12    1    1    2    0    0  0.50265706089E+01  0.40969192063E+01  0.17567861175E+02  0.18726476052E+02  0.00000000000E+00 0.  1.
         11    1    3    3    0    0  0.24569726517E+01 -0.21565824639E+00  0.82887904213E+00  0.26019730625E+01  0.51100000000E-03 0. -1.
        -11    1    3    3    0    0  0.44341924014E+01 -0.56474670150E+00  0.24659534884E+02  0.25061397847E+02  0.51100000000E-03 0.  1.
         12    1    3    3    0    0 -0.11917735662E+02 -0.33165142584E+01 -0.43056275101E+02  0.44798153039E+02  0.00000000000E+00 0. -1.
</event>
<event>
 7    1  0.2655561E-013  0.7246146E+02  0.7816164E-02  0.1226708E+00
        -11   -1    0    0    0    0  0.00000000000E+00  0.00000000000E+00  0.45593999997E+02  0.45594000000E+02  0.51100000000E-03 0.  1.
         11   -1    0    0    0    0 -0.00000000000E+00 -0.00000000000E+00 -0.45593999997E+02  0.45594000000E+02  0.51100000000E-03 0. -1.
    9900012    2    1    2    0    0 -0.12327994679E+02 -0.58534572428E+01 -0.12823453442E+02  0.72461458069E+02  0.69999853806E+02 0.  0.
        -12    1    1    2    0    0  0.12327994679E+02  0.58534572428E+01  0.12823453442E+02  0.18726541931E+02  0.00000000000E+00 0.  1.
         11    1    3    3    0    0 -0.21300511421E+02 -0.43794755426E+01 -0.19589556717E+02  0.29268452734E+02  0.51100000000E-03 0. -1.
        -11    1    3    3    0    0  0.16755658215E+02  0.10260569751E+02 -0.93778318021E+01  0.21770969280E+02  0.51100000000E-03 0.  1.
         12    1    3    3    0    0 -0.77831414729E+01 -0.11734551452E+02  0.16143935077E+02  0.21422036054E+02  0.00000000000E+00 0. -1.
</event>
<event>
 7    1  0.2655561E-013  0.7246152E+02  0.7816164E-02  0.1226708E+00
        -11   -1    0    0    0    0  0.00000000000E+00  0.00000000000E+00  0.45593999997E+02  0.45594000000E+02  0.51100000000E-03 0. -1.
         11   -1    0    0    0    0 -0.00000000000E+00 -0.00000000000E+00 -0.45593999997E+02  0.45594000000E+02  0.51100000000E-03 0.  1.
    9900012    2    1    2    0    0  0.41769366896E+01  0.88864360674E+01  0.15945710540E+02  0.72461515260E+02  0.69999928308E+02 0.  0.
        -12    1    1    2    0    0 -0.41769366896E+01 -0.88864360674E+01 -0.15945710540E+02  0.18726484740E+02  0.00000000000E+00 0.  1.
         11    1    3    3    0    0 -0.11682010394E+00  0.67493288623E+01 -0.61199895438E+01  0.91116057479E+01  0.51100000000E-03 0. -1.
        -11    1    3    3    0    0 -0.12825542702E+02 -0.11813294076E+02 -0.13110703201E+02  0.21816026247E+02  0.51100000000E-03 0.  1.
         12    1    3    3    0    0  0.17119299496E+02  0.13950401281E+02  0.35176403284E+02  0.41533883266E+02  0.00000000000E+00 0. -1.
</event>
<event>
 7    1  0.2655561E-013  0.7246156E+02  0.7816164E-02  0.1226708E+00
        -11   -1    0    0    0    0  0.00000000000E+00  0.00000000000E+00  0.45593999997E+02  0.45594000000E+02  0.51100000000E-03 0.  1.
         11   -1    0    0    0    0 -0.00000000000E+00 -0.00000000000E+00 -0.45593999997E+02  0.45594000000E+02  0.51100000000E-03 0. -1.
    9900012    2    1    2    0    0 -0.91493114283E+01 -0.15051944315E+02  0.63567640394E+01  0.72461564773E+02  0.69999992807E+02 0.  0.
        -12    1    1    2    0    0  0.91493114283E+01  0.15051944315E+02 -0.63567640394E+01  0.18726435227E+02  0.00000000000E+00 0.  1.
         11    1    3    3    0    0  0.77093725840E+01  0.10434717612E+02 -0.41756129393E+00  0.12980451263E+02  0.51100000000E-03 0. -1.
        -11    1    3    3    0    0 -0.60012085457E+00  0.30579176623E+00  0.24302973892E+02  0.24312305401E+02  0.51100000000E-03 0.  1.
         12    1    3    3    0    0 -0.16258563158E+02 -0.25792453694E+02 -0.17528648559E+02  0.35168808109E+02  0.00000000000E+00 0. -1.
</event>
<event>
 7    1  0.2655561E-013  0.7246164E+02  0.7816164E-02  0.1226708E+00
        -11   -1    0    0    0    0  0.00000000000E+00  0.00000000000E+00  0.45593999997E+02  0.45594000000E+02  0.51100000000E-03 0.  1.
         11   -1    0    0    0    0 -0.00000000000E+00 -0.00000000000E+00 -0.45593999997E+02  0.45594000000E+02  0.51100000000E-03 0. -1.
    9900012    2    1    2    0    0 -0.18122318616E+01 -0.75786787327E+01 -0.17028089385E+02  0.72461644675E+02  0.70000096895E+02 0.  0.
        -12    1    1    2    0    0  0.18122318616E+01  0.75786787327E+01  0.17028089385E+02  0.18726355325E+02  0.00000000000E+00 0.  1.
         11    1    3    3    0    0  0.10046095883E+02 -0.10491070956E+02 -0.63696894936E+01  0.15860629142E+02  0.51100000000E-03 0. -1.
        -11    1    3    3    0    0 -0.95578263335E+01 -0.23480887344E+02  0.49805198577E+01  0.25836208952E+02  0.51100000000E-03 0.  1.
         12    1    3    3    0    0 -0.23005014108E+01  0.26393279567E+02 -0.15638919749E+02  0.30764806581E+02  0.00000000000E+00 0. -1.
</event>
<event>
 7    1  0.2655561E-013  0.7246154E+02  0.7816164E-02  0.1226708E+00
        -11   -1    0    0    0    0  0.00000000000E+00  0.00000000000E+00  0.45593999997E+02  0.45594000000E+02  0.51100000000E-03 0.  1.
         11   -1    0    0    0    0 -0.00000000000E+00 -0.00000000000E+00 -0.45593999997E+02  0.45594000000E+02  0.51100000000E-03 0. -1.
    9900012    2    1    2    0    0  0.17342165005E+02  0.70110373701E+01 -0.88030832332E+00  0.72461540783E+02  0.69999961556E+02 0.  0.
        -12    1    1    2    0    0 -0.17342165005E+02 -0.70110373701E+01  0.88030832332E+00  0.18726459217E+02  0.00000000000E+00 0.  1.
         11    1    3    3    0    0  0.16016427369E+02  0.26912903669E+01  0.43102930735E+00  0.16246685078E+02  0.51100000000E-03 0. -1.
        -11    1    3    3    0    0  0.20212032549E+02 -0.43386018325E+01  0.18326550618E+02  0.27626295145E+02  0.51100000000E-03 0.  1.
        -12    1    3    3    0    0 -0.18886294912E+02  0.86583488357E+01 -0.19637888249E+02  0.28588560561E+02  0.00000000000E+00 0.  1.
</event>
<event>
 7    1  0.2655561E-013  0.7246162E+02  0.7816164E-02  0.1226708E+00
        -11   -1    0    0    0    0  0.00000000000E+00  0.00000000000E+00  0.45593999997E+02  0.45594000000E+02  0.51100000000E-03 0. -1.
         11   -1    0    0    0    0 -0.00000000000E+00 -0.00000000000E+00 -0.45593999997E+02  0.45594000000E+02  0.51100000000E-03 0.  1.
    9900012    2    1    2    0    0 -0.63487851274E+01  0.15956695901E+02  0.74668550781E+01  0.72461624445E+02  0.70000070541E+02 0.  0.
        -12    1    1    2    0    0  0.63487851274E+01 -0.15956695901E+02 -0.74668550781E+01  0.18726375555E+02  0.00000000000E+00 0.  1.
         11    1    3    3    0    0  0.24516381509E+02  0.54195638070E+01 -0.55959243945E+01  0.25724288216E+02  0.51100000000E-03 0. -1.
        -11    1    3    3    0    0  0.45397672706E+01 -0.34387313787E+01 -0.16498855345E+01  0.59292902529E+01  0.51100000000E-03 0.  1.
        -12    1    3    3    0    0 -0.35404933907E+02  0.13975863473E+02  0.14712665007E+02  0.40808045976E+02  0.00000000000E+00 0.  1.
</event>
<event>
 7    1  0.2655561E-013  0.7246160E+02  0.7816164E-02  0.1226708E+00
        -11   -1    0    0    0    0  0.00000000000E+00  0.00000000000E+00  0.45593999997E+02  0.45594000000E+02  0.51100000000E-03 0.  1.
         11   -1    0    0    0    0 -0.00000000000E+00 -0.00000000000E+00 -0.45593999997E+02  0.45594000000E+02  0.51100000000E-03 0. -1.
    9900012    2    1    2    0    0 -0.11756918915E+02 -0.10028196877E+02 -0.10577715773E+02  0.72461602963E+02  0.70000042558E+02 0.  0.
        -12    1    1    2    0    0  0.11756918915E+02  0.10028196877E+02  0.10577715773E+02  0.18726397037E+02  0.00000000000E+00 0.  1.
         11    1    3    3    0    0  0.40274960575E+01  0.15907856137E+02 -0.21999408574E+02  0.27445483949E+02  0.51100000000E-03 0. -1.
        -11    1    3    3    0    0  0.38431202576E+01  0.46976873552E+01 -0.17601884414E+01  0.63195018326E+01  0.51100000000E-03 0.  1.
        -12    1    3    3    0    0 -0.19627535230E+02 -0.30633740369E+02  0.13181881242E+02  0.38696617181E+02  0.00000000000E+00 0.  1.
</event>
<event>
 7    1  0.2655561E-013  0.7246159E+02  0.7816164E-02  0.1226708E+00
        -11   -1    0    0    0    0  0.00000000000E+00  0.00000000000E+00  0.45593999997E+02  0.45594000000E+02  0.51100000000E-03 0. -1.
         11   -1    0    0    0    0 -0.00000000000E+00 -0.00000000000E+00 -0.45593999997E+02  0.45594000000E+02  0.51100000000E-03 0.  1.
    9900012    2    1    2    0    0 -0.68433232099E+01  0.15195448606E+02  0.85408207134E+01  0.72461592193E+02  0.70000028527E+02 0.  0.
        -12    1    1    2    0    0  0.68433232099E+01 -0.15195448606E+02 -0.85408207134E+01  0.18726407807E+02  0.00000000000E+00 0.  1.
         11    1    3    3    0    0 -0.14742202364E+02  0.65094293907E+01  0.29861515186E+02  0.33932510827E+02  0.51100000000E-03 0. -1.
        -11    1    3    3    0    0 -0.96162513411E+01 -0.10846093801E+01 -0.14326140417E+02  0.17288347719E+02  0.51100000000E-03 0.  1.
         12    1    3    3    0    0  0.17515130495E+02  0.97706285956E+01 -0.69945540565E+01  0.21240733647E+02  0.00000000000E+00 0. -1.
</event>
<event>
 7    1  0.4181007E-013  0.7246164E+02  0.7816164E-02  0.1226708E+00
        -11   -1    0    0    0    0  0.00000000000E+00  0.00000000000E+00  0.45593999997E+02  0.45594000000E+02  0.51100000000E-03 0. -1.
         11   -1    0    0    0    0 -0.00000000000E+00 -0.00000000000E+00 -0.45593999997E+02  0.45594000000E+02  0.51100000000E-03 0.  1.
    9900012    2    1    2    0    0 -0.13232319531E+02 -0.32580114345E+01  0.12843979004E+02  0.72461635822E+02  0.70000085362E+02 0.  0.
        -12    1    1    2    0    0  0.13232319531E+02  0.32580114345E+01 -0.12843979004E+02  0.18726364178E+02  0.00000000000E+00 0.  1.
         11    1    3    3    0    0 -0.27002348563E+02 -0.24668184085E+02  0.16909597652E+02  0.40293679740E+02  0.51100000000E-03 0. -1.
        -11    1    3    3    0    0 -0.46201496694E+00 -0.22306712215E+01 -0.39658702778E+01  0.45735630803E+01  0.51100000000E-03 0.  1.
        -12    1    3    3    0    0  0.14232043999E+02  0.23640843872E+02 -0.99748370024E-01  0.27594393001E+02  0.00000000000E+00 0.  1.
</event>
<event>
 7    1  0.2655561E-013  0.7246105E+02  0.7816164E-02  0.1226709E+00
        -11   -1    0    0    0    0  0.00000000000E+00  0.00000000000E+00  0.45593999997E+02  0.45594000000E+02  0.51100000000E-03 0.  1.
         11   -1    0    0    0    0 -0.00000000000E+00 -0.00000000000E+00 -0.45593999997E+02  0.45594000000E+02  0.51100000000E-03 0. -1.
    9900012    2    1    2    0    0  0.10393257557E+02  0.12319275717E+02  0.95349023872E+01  0.72461048290E+02  0.69999319989E+02 0.  0.
        -12    1    1    2    0    0 -0.10393257557E+02 -0.12319275717E+02 -0.95349023872E+01  0.18726951710E+02  0.00000000000E+00 0.  1.
         11    1    3    3    0    0 -0.61246203042E+01  0.35797994947E+01 -0.22726860329E+02  0.23808320373E+02  0.51100000000E-03 0. -1.
        -11    1    3    3    0    0  0.65616546348E+01  0.76333674431E+00 -0.56246928025E+01  0.86761260891E+01  0.51100000000E-03 0.  1.
        -12    1    3    3    0    0  0.99562232266E+01  0.79761394776E+01  0.37886455519E+02  0.39976601828E+02  0.00000000000E+00 0.  1.
</event>
<event>
 7    1  0.2655561E-013  0.7246158E+02  0.7816164E-02  0.1226708E+00
        -11   -1    0    0    0    0  0.00000000000E+00  0.00000000000E+00  0.45593999997E+02  0.45594000000E+02  0.51100000000E-03 0. -1.
         11   -1    0    0    0    0 -0.00000000000E+00 -0.00000000000E+00 -0.45593999997E+02  0.45594000000E+02  0.51100000000E-03 0.  1.
    9900012    2    1    2    0    0  0.88328225929E+01 -0.16498326473E+02  0.68202326517E+00  0.72461583175E+02  0.70000016780E+02 0.  0.
        -12    1    1    2    0    0 -0.88328225929E+01  0.16498326473E+02 -0.68202326517E+00  0.18726416825E+02  0.00000000000E+00 0.  1.
         11    1    3    3    0    0 -0.71075767908E+01 -0.33245867032E+02  0.74115707916E+01  0.34795642031E+02  0.51100000000E-03 0. -1.
        -11    1    3    3    0    0 -0.83772925352E+01  0.42322054156E+01  0.42850588700E+00  0.93954356183E+01  0.51100000000E-03 0.  1.
        -12    1    3    3    0    0  0.24317691919E+02  0.12515335143E+02 -0.71580534134E+01  0.28270505526E+02  0.00000000000E+00 0.  1.
</event>
<event>
 7    1  0.2655561E-013  0.7246163E+02  0.7816164E-02  0.1226708E+00
        -11   -1    0    0    0    0  0.00000000000E+00  0.00000000000E+00  0.45593999997E+02  0.45594000000E+02  0.51100000000E-03 0.  1.
         11   -1    0    0    0    0 -0.00000000000E+00 -0.00000000000E+00 -0.45593999997E+02  0.45594000000E+02  0.51100000000E-03 0. -1.
    9900012    2    1    2    0    0 -0.12711401947E+02 -0.13575662868E+02  0.21905968790E+01  0.72461626180E+02  0.70000072801E+02 0.  0.
        -12    1    1    2    0    0  0.12711401947E+02  0.13575662868E+02 -0.21905968790E+01  0.18726373820E+02  0.00000000000E+00 0.  1.
         11    1    3    3    0    0 -0.48277063103E+00  0.33926686350E+01 -0.11779721277E+01  0.36236565157E+01  0.51100000000E-03 0. -1.
        -11    1    3    3    0    0 -0.16098753498E+02  0.20028978372E+02  0.15134327273E+02  0.29822436203E+02  0.51100000000E-03 0.  1.
         12    1    3    3    0    0  0.38701221812E+01 -0.36997309875E+02 -0.11765758266E+02  0.39015533461E+02  0.00000000000E+00 0. -1.
</event>
<event>
 7    1  0.2655561E-013  0.7246152E+02  0.7816164E-02  0.1226708E+00
        -11   -1    0    0    0    0  0.00000000000E+00  0.00000000000E+00  0.45593999997E+02  0.45594000000E+02  0.51100000000E-03 0. -1.
         11   -1    0    0    0    0 -0.00000000000E+00 -0.00000000000E+00 -0.45593999997E+02  0.45594000000E+02  0.51100000000E-03 0.  1.
    9900012    2    1    2    0    0 -0.17562017050E+02  0.49400770496E+01  0.42252001718E+01  0.72461518200E+02  0.69999932137E+02 0.  0.
        -12    1    1    2    0    0  0.17562017050E+02 -0.49400770496E+01 -0.42252001718E+01  0.18726481800E+02  0.00000000000E+00 0.  1.
         11    1    3    3    0    0 -0.26844626055E+01  0.72957354728E+01 -0.61150390633E+01  0.98907936272E+01  0.51100000000E-03 0. -1.
        -11    1    3    3    0    0 -0.99604222884E+01  0.28420805997E+02  0.87602920506E+01  0.31363911471E+02  0.51100000000E-03 0.  1.
         12    1    3    3    0    0 -0.49171321561E+01 -0.30776464420E+02  0.15799471845E+01  0.31206813102E+02  0.00000000000E+00 0. -1.
</event>
<event>
 7    1  0.2655561E-013  0.7246146E+02  0.7816164E-02  0.1226708E+00
        -11   -1    0    0    0    0  0.00000000000E+00  0.00000000000E+00  0.45593999997E+02  0.45594000000E+02  0.51100000000E-03 0.  1.
         11   -1    0    0    0    0 -0.00000000000E+00 -0.00000000000E+00 -0.45593999997E+02  0.45594000000E+02  0.51100000000E-03 0. -1.
    9900012    2    1    2    0    0 -0.43597067910E+01 -0.31318054519E+00 -0.18209292857E+02  0.72461455425E+02  0.69999850361E+02 0.  0.
        -12    1    1    2    0    0  0.43597067910E+01  0.31318054519E+00  0.18209292857E+02  0.18726544575E+02  0.00000000000E+00 0.  1.
         11    1    3    3    0    0  0.16993474789E+01 -0.18167281414E+02 -0.14191037554E+02  0.23115437330E+02  0.51100000000E-03 0. -1.
        -11    1    3    3    0    0 -0.53072431096E+01  0.16100954200E+02 -0.23939086149E+02  0.29334065546E+02  0.51100000000E-03 0.  1.
        -12    1    3    3    0    0 -0.75181116025E+00  0.17531466693E+01  0.19920830845E+02  0.20011952549E+02  0.00000000000E+00 0.  1.
</event>
<event>
 7    1  0.2655561E-013  0.7246160E+02  0.7816164E-02  0.1226708E+00
        -11   -1    0    0    0    0  0.00000000000E+00  0.00000000000E+00  0.45593999997E+02  0.45594000000E+02  0.51100000000E-03 0.  1.
         11   -1    0    0    0    0 -0.00000000000E+00 -0.00000000000E+00 -0.45593999997E+02  0.45594000000E+02  0.51100000000E-03 0. -1.
    9900012    2    1    2    0    0  0.11587137599E+02 -0.26364186316E+01 -0.14472928858E+02  0.72461598032E+02  0.70000036133E+02 0.  0.
        -12    1    1    2    0    0 -0.11587137599E+02  0.26364186316E+01  0.14472928858E+02  0.18726401968E+02  0.00000000000E+00 0.  1.
         11    1    3    3    0    0  0.32191031474E+02 -0.21746739625E+01 -0.11463295458E+02  0.34240310413E+02  0.51100000000E-03 0. -1.
        -11    1    3    3    0    0 -0.61337169297E+01 -0.15477537909E+02  0.20179998588E+01  0.16770479623E+02  0.51100000000E-03 0.  1.
        -12    1    3    3    0    0 -0.14470176945E+02  0.15015793240E+02 -0.50276332591E+01  0.21450807995E+02  0.00000000000E+00 0.  1.
</event>
<event>
 7    1  0.2655561E-013  0.7246162E+02  0.7816164E-02  0.1226708E+00
        -11   -1    0    0    0    0  0.00000000000E+00  0.00000000000E+00  0.45593999997E+02  0.45594000000E+02  0.51100000000E-03 0.  1.
         11   -1    0    0    0    0 -0.00000000000E+00 -0.00000000000E+00 -0.45593999997E+02  0.45594000000E+02  0.51100000000E-03 0. -1.
    9900012    2    1    2    0    0  0.20489364726E+01 -0.28394072768E+01 -0.18396107101E+02  0.72461624728E+02  0.70000070910E+02 0.  0.
        -12    1    1    2    0    0 -0.20489364726E+01  0.28394072768E+01  0.18396107101E+02  0.18726375272E+02  0.00000000000E+00 0.  1.
         11    1    3    3    0    0  0.56794222252E+01 -0.16544461082E+02 -0.27147606004E+02  0.32295007994E+02  0.51100000000E-03 0. -1.
        -11    1    3    3    0    0  0.12908839660E+01 -0.77048790902E+01 -0.90035887491E+01  0.11920409130E+02  0.51100000000E-03 0.  1.
        -12    1    3    3    0    0 -0.49213697187E+01  0.21409932895E+02  0.17755087652E+02  0.28246207604E+02  0.00000000000E+00 0.  1.
</event>
<event>
 7    1  0.2655561E-013  0.7246158E+02  0.7816164E-02  0.1226708E+00
        -11   -1    0    0    0    0  0.00000000000E+00  0.00000000000E+00  0.45593999997E+02  0.45594000000E+02  0.51100000000E-03 0.  1.
         11   -1    0    0    0    0 -0.00000000000E+00 -0.00000000000E+00 -0.45593999997E+02  0.45594000000E+02  0.51100000000E-03 0. -1.
    9900012    2    1    2    0    0  0.11212806341E+02  0.46252254147E+01 -0.14267407652E+02  0.72461583971E+02  0.70000017817E+02 0.  0.
        -12    1    1    2    0    0 -0.11212806341E+02 -0.46252254147E+01  0.14267407652E+02  0.18726416029E+02  0.00000000000E+00 0.  1.
         11    1    3    3    0    0 -0.15046687853E+02  0.23943471597E+01 -0.28679431245E+02  0.32475305856E+02  0.51100000000E-03 0. -1.
        -11    1    3    3    0    0  0.10746431847E+02 -0.77561705072E+01 -0.40775498714E+01  0.13866159944E+02  0.51100000000E-03 0.  1.
        -12    1    3    3    0    0  0.15513062347E+02  0.99870487621E+01  0.18489573465E+02  0.26120118171E+02  0.00000000000E+00 0.  1.
</event>
<event>
 7    1  0.2655561E-013  0.7246160E+02  0.7816164E-02  0.1226708E+00
        -11   -1    0    0    0    0  0.00000000000E+00  0.00000000000E+00  0.45593999997E+02  0.45594000000E+02  0.51100000000E-03 0.  1.
         11   -1    0    0    0    0 -0.00000000000E+00 -0.00000000000E+00 -0.45593999997E+02  0.45594000000E+02  0.51100000000E-03 0. -1.
    9900012    2    1    2    0    0  0.11340174432E+02 -0.14788449731E+02 -0.18385039013E+01  0.72461604239E+02  0.70000044219E+02 0.  0.
        -12    1    1    2    0    0 -0.11340174432E+02  0.14788449731E+02  0.18385039013E+01  0.18726395761E+02  0.00000000000E+00 0.  1.
         11    1    3    3    0    0 -0.64620615122E+01  0.11751050098E+02 -0.21685710386E+02  0.25497361679E+02  0.51100000000E-03 0. -1.
        -11    1    3    3    0    0 -0.44862868412E+01  0.30177922020E+01  0.13099434887E+01  0.55632536883E+01  0.51100000000E-03 0.  1.
        -12    1    3    3    0    0  0.22288522786E+02 -0.29557292031E+02  0.18537262996E+02  0.41400988872E+02  0.00000000000E+00 0.  1.
</event>
<event>
 7    1  0.2655561E-013  0.7246158E+02  0.7816164E-02  0.1226708E+00
        -11   -1    0    0    0    0  0.00000000000E+00  0.00000000000E+00  0.45593999997E+02  0.45594000000E+02  0.51100000000E-03 0.  1.
         11   -1    0    0    0    0 -0.00000000000E+00 -0.00000000000E+00 -0.45593999997E+02  0.45594000000E+02  0.51100000000E-03 0. -1.
    9900012    2    1    2    0    0 -0.94918972623E+01  0.84724473737E+01 -0.13740466927E+02  0.72461577237E+02  0.70000009044E+02 0.  0.
        -12    1    1    2    0    0  0.94918972623E+01 -0.84724473737E+01  0.13740466927E+02  0.18726422763E+02  0.00000000000E+00 0.  1.
         11    1    3    3    0    0 -0.34065485933E+02  0.18124933910E+01 -0.86335958524E+01  0.35189223376E+02  0.51100000000E-03 0. -1.
        -11    1    3    3    0    0 -0.31785833348E+01  0.44937434407E+01  0.52162138413E+01  0.75832716703E+01  0.51100000000E-03 0.  1.
         12    1    3    3    0    0  0.27752172006E+02  0.21662105419E+01 -0.10323084916E+02  0.29689082191E+02  0.00000000000E+00 0. -1.
</event>
<event>
 7    1  0.2655561E-013  0.7246156E+02  0.7816164E-02  0.1226708E+00
        -11   -1    0    0    0    0  0.00000000000E+00  0.00000000000E+00  0.45593999997E+02  0.45594000000E+02  0.51100000000E-03 0.  1.
         11   -1    0    0    0    0 -0.00000000000E+00 -0.00000000000E+00 -0.45593999997E+02  0.45594000000E+02  0.51100000000E-03 0. -1.
    9900012    2    1    2    0    0 -0.18469014864E+02 -0.21696167016E+01  0.22063395681E+01  0.72461556638E+02  0.69999982210E+02 0.  0.
        -12    1    1    2    0    0  0.18469014864E+02  0.21696167016E+01 -0.22063395681E+01  0.18726443362E+02  0.00000000000E+00 0.  1.
         11    1    3    3    0    0  0.62101875088E+01 -0.16577211796E+01 -0.30906426158E+01  0.71320782696E+01  0.51100000000E-03 0. -1.
        -11    1    3    3    0    0 -0.14471923615E+02  0.23184897657E+02  0.21576514776E+02  0.34821287206E+02  0.51100000000E-03 0.  1.
         12    1    3    3    0    0 -0.10207278758E+02 -0.23696793179E+02 -0.16279532592E+02  0.30508191163E+02  0.00000000000E+00 0. -1.
</event>
<event>
 7    1  0.2655561E-013  0.7246158E+02  0.7816164E-02  0.1226708E+00
        -11   -1    0    0    0    0  0.00000000000E+00  0.00000000000E+00  0.45593999997E+02  0.45594000000E+02  0.51100000000E-03 0.  1.
         11   -1    0    0    0    0 -0.00000000000E+00 -0.00000000000E+00 -0.45593999997E+02  0.45594000000E+02  0.51100000000E-03 0. -1.
    9900012    2    1    2    0    0 -0.14455508537E+02  0.60019514842E+01 -0.10280747543E+02  0.72461576991E+02  0.70000008724E+02 0.  0.
        -12    1    1    2    0    0  0.14455508537E+02 -0.60019514842E+01  0.10280747543E+02  0.18726423009E+02  0.00000000000E+00 0.  1.
         11    1    3    3    0    0 -0.20012440400E+02  0.93319843318E+01  0.14398359689E+02  0.26360888913E+02  0.51100000000E-03 0.  1.
        -11    1    3    3    0    0 -0.91504323115E+01  0.12952607203E+02 -0.15933032338E+02  0.22480257218E+02  0.51100000000E-03 0. -1.
        -12    1    3    3    0    0  0.14707364174E+02 -0.16282640050E+02 -0.87460748929E+01  0.23620430860E+02  0.00000000000E+00 0.  1.
</event>
<event>
 7    1  0.2655561E-013  0.7246158E+02  0.7816164E-02  0.1226708E+00
        -11   -1    0    0    0    0  0.00000000000E+00  0.00000000000E+00  0.45593999997E+02  0.45594000000E+02  0.51100000000E-03 0.  1.
         11   -1    0    0    0    0 -0.00000000000E+00 -0.00000000000E+00 -0.45593999997E+02  0.45594000000E+02  0.51100000000E-03 0. -1.
    9900012    2    1    2    0    0 -0.13187055992E+02  0.23658753036E+01 -0.13083695794E+02  0.72461577295E+02  0.70000009120E+02 0.  0.
        -12    1    1    2    0    0  0.13187055992E+02 -0.23658753036E+01  0.13083695794E+02  0.18726422705E+02  0.00000000000E+00 0.  1.
         11    1    3    3    0    0  0.33548398520E+01  0.44727142142E+01 -0.15702845766E+02  0.16668517879E+02  0.51100000000E-03 0. -1.
        -11    1    3    3    0    0  0.11222325298E+02  0.15470517359E+01 -0.17825384019E+02  0.21120565093E+02  0.51100000000E-03 0.  1.
         12    1    3    3    0    0 -0.27764221142E+02 -0.36538906465E+01  0.20444533991E+02  0.34672494323E+02  0.00000000000E+00 0. -1.
</event>
<event>
 7    1  0.2655561E-013  0.7246154E+02  0.7816164E-02  0.1226708E+00
        -11   -1    0    0    0    0  0.00000000000E+00  0.00000000000E+00  0.45593999997E+02  0.45594000000E+02  0.51100000000E-03 0. -1.
         11   -1    0    0    0    0 -0.00000000000E+00 -0.00000000000E+00 -0.45593999997E+02  0.45594000000E+02  0.51100000000E-03 0.  1.
    9900012    2    1    2    0    0  0.88977804670E+00  0.82062843244E+01  0.16809087507E+02  0.72461541974E+02  0.69999963107E+02 0.  0.
        -12    1    1    2    0    0 -0.88977804670E+00 -0.82062843244E+01 -0.16809087507E+02  0.18726458026E+02  0.00000000000E+00 0.  1.
         11    1    3    3    0    0  0.17049143298E+01  0.77667230437E+01 -0.53519940063E+00  0.79696397892E+01  0.51100000000E-03 0. -1.
        -11    1    3    3    0    0 -0.30868987481E+02 -0.14026239796E+01  0.27264391198E+01  0.31020883492E+02  0.51100000000E-03 0.  1.
        -12    1    3    3    0    0  0.30053851198E+02  0.18421852604E+01  0.14617847788E+02  0.33471018692E+02  0.00000000000E+00 0.  1.
</event>
<event>
 7    1  0.2655561E-013  0.7246158E+02  0.7816164E-02  0.1226708E+00
        -11   -1    0    0    0    0  0.00000000000E+00  0.00000000000E+00  0.45593999997E+02  0.45594000000E+02  0.51100000000E-03 0.  1.
         11   -1    0    0    0    0 -0.00000000000E+00 -0.00000000000E+00 -0.45593999997E+02  0.45594000000E+02  0.51100000000E-03 0. -1.
    9900012    2    1    2    0    0  0.28003717788E+01  0.34683566569E+01 -0.18188105072E+02  0.72461581600E+02  0.70000014727E+02 0.  0.
        -12    1    1    2    0    0 -0.28003717788E+01 -0.34683566569E+01  0.18188105072E+02  0.18726418400E+02  0.00000000000E+00 0.  1.
         11    1    3    3    0    0 -0.20914817204E+02  0.19096713676E+02 -0.72817925060E+01  0.29242752166E+02  0.51100000000E-03 0. -1.
        -11    1    3    3    0    0 -0.69131312325E+01 -0.20658701137E+01 -0.59607056256E+01  0.93589109719E+01  0.51100000000E-03 0.  1.
        -12    1    3    3    0    0  0.30628320215E+02 -0.13562486905E+02 -0.49456069401E+01  0.33859918462E+02  0.00000000000E+00 0.  1.
</event>
<event>
 7    1  0.2655561E-013  0.7246149E+02  0.7816164E-02  0.1226708E+00
        -11   -1    0    0    0    0  0.00000000000E+00  0.00000000000E+00  0.45593999997E+02  0.45594000000E+02  0.51100000000E-03 0.  1.
         11   -1    0    0    0    0 -0.00000000000E+00 -0.00000000000E+00 -0.45593999997E+02  0.45594000000E+02  0.51100000000E-03 0. -1.
    9900012    2    1    2    0    0 -0.31748781565E+01  0.11256722238E+02 -0.14624926836E+02  0.72461491201E+02  0.69999896966E+02 0.  0.
        -12    1    1    2    0    0  0.31748781565E+01 -0.11256722238E+02  0.14624926836E+02  0.18726508799E+02  0.00000000000E+00 0.  1.
         11    1    3    3    0    0  0.38455515764E+01  0.13474620022E+01  0.41914822607E+01  0.58457201932E+01  0.51100000000E-03 0. -1.
        -11    1    3    3    0    0  0.24072393334E+01  0.10117371505E+02  0.22207494885E+02  0.24522007192E+02  0.51100000000E-03 0.  1.
         12    1    3    3    0    0 -0.94276690662E+01 -0.20811126899E+00 -0.41023903982E+02  0.42093763816E+02  0.00000000000E+00 0. -1.
</event>
<event>
 7    1  0.2655561E-013  0.7246159E+02  0.7816164E-02  0.1226708E+00
        -11   -1    0    0    0    0  0.00000000000E+00  0.00000000000E+00  0.45593999997E+02  0.45594000000E+02  0.51100000000E-03 0. -1.
         11   -1    0    0    0    0 -0.00000000000E+00 -0.00000000000E+00 -0.45593999997E+02  0.45594000000E+02  0.51100000000E-03 0.  1.
    9900012    2    1    2    0    0  0.10628607430E+02 -0.14688393553E+02  0.46863851476E+01  0.72461590659E+02  0.70000026529E+02 0.  0.
        -12    1    1    2    0    0 -0.10628607430E+02  0.14688393553E+02 -0.46863851476E+01  0.18726409341E+02  0.00000000000E+00 0.  1.
         11    1    3    3    0    0  0.11501785633E+02  0.46603270912E+01  0.53826958000E+01  0.13527125921E+02  0.51100000000E-03 0. -1.
        -11    1    3    3    0    0 -0.52389015094E+01 -0.24859162808E+01 -0.26873225124E+02  0.27491745991E+02  0.51100000000E-03 0.  1.
         12    1    3    3    0    0  0.43657233062E+01 -0.16862804363E+02  0.26176914472E+02  0.31442718748E+02  0.00000000000E+00 0. -1.
</event>
<event>
 7    1  0.2655561E-013  0.7246152E+02  0.7816164E-02  0.1226708E+00
        -11   -1    0    0    0    0  0.00000000000E+00  0.00000000000E+00  0.45593999997E+02  0.45594000000E+02  0.51100000000E-03 0.  1.
         11   -1    0    0    0    0 -0.00000000000E+00 -0.00000000000E+00 -0.45593999997E+02  0.45594000000E+02  0.51100000000E-03 0. -1.
    9900012    2    1    2    0    0  0.17949130267E+02 -0.35395180567E+01  0.39976878326E+01  0.72461522130E+02  0.69999937256E+02 0.  0.
        -12    1    1    2    0    0 -0.17949130267E+02  0.35395180567E+01 -0.39976878326E+01  0.18726477870E+02  0.00000000000E+00 0.  1.
         11    1    3    3    0    0  0.16112565044E+02 -0.10988665683E+02  0.17619832774E+02  0.26283531593E+02  0.51100000000E-03 0. -1.
        -11    1    3    3    0    0  0.19029160817E+02  0.13201746165E+01  0.53907113953E+01  0.19821997680E+02  0.51100000000E-03 0.  1.
        -12    1    3    3    0    0 -0.17192595593E+02  0.61289730098E+01 -0.19012856336E+02  0.26355992857E+02  0.00000000000E+00 0.  1.
</event>
<event>
 7    1  0.2655561E-013  0.7246158E+02  0.7816164E-02  0.1226708E+00
        -11   -1    0    0    0    0  0.00000000000E+00  0.00000000000E+00  0.45593999997E+02  0.45594000000E+02  0.51100000000E-03 0. -1.
         11   -1    0    0    0    0 -0.00000000000E+00 -0.00000000000E+00 -0.45593999997E+02  0.45594000000E+02  0.51100000000E-03 0.  1.
    9900012    2    1    2    0    0  0.32082377107E+01 -0.12755458543E+02  0.13329825095E+02  0.72461581525E+02  0.70000014630E+02 0.  0.
        -12    1    1    2    0    0 -0.32082377107E+01  0.12755458543E+02 -0.13329825095E+02  0.18726418475E+02  0.00000000000E+00 0.  1.
         11    1    3    3    0    0  0.13203543601E+02  0.57873200965E+00  0.28272029772E+02  0.31208591158E+02  0.51100000000E-03 0. -1.
        -11    1    3    3    0    0  0.67443984847E+01  0.85332832344E+01 -0.50396402163E+01  0.11987568871E+02  0.51100000000E-03 0.  1.
         12    1    3    3    0    0 -0.16739704375E+02 -0.21867473787E+02 -0.99025644611E+01  0.29265421495E+02  0.00000000000E+00 0. -1.
</event>
<event>
 7    1  0.2655561E-013  0.7246156E+02  0.7816164E-02  0.1226708E+00
        -11   -1    0    0    0    0  0.00000000000E+00  0.00000000000E+00  0.45593999997E+02  0.45594000000E+02  0.51100000000E-03 0.  1.
         11   -1    0    0    0    0 -0.00000000000E+00 -0.00000000000E+00 -0.45593999997E+02  0.45594000000E+02  0.51100000000E-03 0. -1.
    9900012    2    1    2    0    0  0.13450929938E+02  0.46164188712E+01 -0.12183619690E+02  0.72461563389E+02  0.69999991004E+02 0.  0.
        -12    1    1    2    0    0 -0.13450929938E+02 -0.46164188712E+01  0.12183619690E+02  0.18726436611E+02  0.00000000000E+00 0.  1.
         11    1    3    3    0    0 -0.11389071224E+02 -0.22920825312E+02 -0.25264744752E+01  0.25718830647E+02  0.51100000000E-03 0.  1.
        -11    1    3    3    0    0  0.10067533017E+02  0.46102014106E+00 -0.12164661390E+02  0.15797048700E+02  0.51100000000E-03 0. -1.
         12    1    3    3    0    0  0.14772468145E+02  0.27076224042E+02  0.25075161750E+01  0.30945684042E+02  0.00000000000E+00 0. -1.
</event>
<event>
 8    1  0.2655561E-013  0.7246166E+02  0.7816164E-02  0.1226708E+00
        -11   -1    0    0    0    0  0.00000000000E+00  0.00000000000E+00  0.45593999997E+02  0.45594000000E+02  0.51100000000E-03 0. -1.
         11   -1    0    0    0    0 -0.00000000000E+00 -0.00000000000E+00 -0.45593999997E+02  0.45594000000E+02  0.51100000000E-03 0.  1.
    9900012    2    1    2    0    0 -0.15705278684E+02  0.13778703122E+01 -0.10105527159E+02  0.72461655340E+02  0.70000110788E+02 0.  0.
         23    2    3    3    0    0 -0.79972158145E+00 -0.16865994438E+01 -0.14096942727E+02  0.56729586002E+02  0.54918466488E+02 0.  0.
        -12    1    1    2    0    0  0.15705278684E+02 -0.13778703122E+01  0.10105527159E+02  0.18726344660E+02  0.00000000000E+00 0.  1.
         11    1    4    4    0    0 -0.82062266673E+01  0.12195983389E+02  0.16637723086E+02  0.22201306193E+02  0.51100000000E-03 0. -1.
        -11    1    4    4    0    0  0.74065050858E+01 -0.13882582833E+02 -0.30734665812E+02  0.34528279809E+02  0.51100000000E-03 0.  1.
         12    1    3    3    0    0 -0.14905557103E+02  0.30644697560E+01  0.39914155678E+01  0.15732069338E+02  0.00000000000E+00 0. -1.
</event>
<event>
 7    1  0.2655561E-013  0.7246161E+02  0.7816164E-02  0.1226708E+00
        -11   -1    0    0    0    0  0.00000000000E+00  0.00000000000E+00  0.45593999997E+02  0.45594000000E+02  0.51100000000E-03 0. -1.
         11   -1    0    0    0    0 -0.00000000000E+00 -0.00000000000E+00 -0.45593999997E+02  0.45594000000E+02  0.51100000000E-03 0.  1.
    9900012    2    1    2    0    0 -0.61062345477E+01  0.98917572593E+01  0.14681439464E+02  0.72461611487E+02  0.70000053661E+02 0.  0.
        -12    1    1    2    0    0  0.61062345477E+01 -0.98917572593E+01 -0.14681439464E+02  0.18726388513E+02  0.00000000000E+00 0.  1.
         11    1    3    3    0    0 -0.15044036865E+02 -0.61142754413E+01  0.37153954558E+01  0.16658678610E+02  0.51100000000E-03 0. -1.
        -11    1    3    3    0    0 -0.18405039340E+02 -0.59955564307E+01  0.65267033960E+01  0.20427677976E+02  0.51100000000E-03 0.  1.
         12    1    3    3    0    0  0.27342841658E+02  0.22001589131E+02  0.44393406118E+01  0.35375254901E+02  0.00000000000E+00 0. -1.
</event>
<event>
 7    1  0.2655561E-013  0.7246163E+02  0.7816164E-02  0.1226708E+00
        -11   -1    0    0    0    0  0.00000000000E+00  0.00000000000E+00  0.45593999997E+02  0.45594000000E+02  0.51100000000E-03 0.  1.
         11   -1    0    0    0    0 -0.00000000000E+00 -0.00000000000E+00 -0.45593999997E+02  0.45594000000E+02  0.51100000000E-03 0. -1.
    9900012    2    1    2    0    0  0.50901155861E+01 -0.17816906055E+02 -0.27065958494E+01  0.72461626108E+02  0.70000072708E+02 0.  0.
        -12    1    1    2    0    0 -0.50901155861E+01  0.17816906055E+02  0.27065958494E+01  0.18726373892E+02  0.00000000000E+00 0.  1.
         11    1    3    3    0    0  0.14090849860E+02 -0.13839078401E+02 -0.25183771499E+02  0.32004601043E+02  0.51100000000E-03 0. -1.
        -11    1    3    3    0    0 -0.13787032588E+01  0.70977527946E+01 -0.57194191474E+01  0.92190386188E+01  0.51100000000E-03 0.  1.
        -12    1    3    3    0    0 -0.76220310155E+01 -0.11075580448E+02  0.28196594797E+02  0.31237986446E+02  0.00000000000E+00 0.  1.
</event>
<event>
 7    1  0.2655561E-013  0.7246193E+02  0.7816164E-02  0.1226707E+00
        -11   -1    0    0    0    0  0.00000000000E+00  0.00000000000E+00  0.45593999997E+02  0.45594000000E+02  0.51100000000E-03 0. -1.
         11   -1    0    0    0    0 -0.00000000000E+00 -0.00000000000E+00 -0.45593999997E+02  0.45594000000E+02  0.51100000000E-03 0.  1.
    9900012    2    1    2    0    0  0.12656237171E+02  0.70226785577E+00  0.13783767378E+02  0.72461928266E+02  0.70000466323E+02 0.  0.
        -12    1    1    2    0    0 -0.12656237171E+02 -0.70226785577E+00 -0.13783767378E+02  0.18726071734E+02  0.00000000000E+00 0.  1.
         11    1    3    3    0    0 -0.56045907592E+01 -0.15380638067E+01  0.19398461167E+01  0.61269960886E+01  0.51100000000E-03 0. -1.
        -11    1    3    3    0    0 -0.20422238820E+02  0.65820283125E+01 -0.76766105461E+01  0.22788621829E+02  0.51100000000E-03 0.  1.
         12    1    3    3    0    0  0.38683066749E+02 -0.43416966500E+01  0.19520531807E+02  0.43546310349E+02  0.00000000000E+00 0. -1.
</event>
<event>
 7    1  0.2655561E-013  0.7246159E+02  0.7816164E-02  0.1226708E+00
        -11   -1    0    0    0    0  0.00000000000E+00  0.00000000000E+00  0.45593999997E+02  0.45594000000E+02  0.51100000000E-03 0.  1.
         11   -1    0    0    0    0 -0.00000000000E+00 -0.00000000000E+00 -0.45593999997E+02  0.45594000000E+02  0.51100000000E-03 0. -1.
    9900012    2    1    2    0    0 -0.35400349723E+01  0.10347110279E+02 -0.15201443211E+02  0.72461590455E+02  0.70000026263E+02 0.  0.
        -12    1    1    2    0    0  0.35400349723E+01 -0.10347110279E+02  0.15201443211E+02  0.18726409545E+02  0.00000000000E+00 0.  1.
         11    1    3    3    0    0  0.27350965670E+01  0.14405280622E+02 -0.93266893586E+01  0.17377571685E+02  0.51100000000E-03 0. -1.
        -11    1    3    3    0    0  0.18416481867E+02  0.11758696770E+02  0.71610831003E+01  0.22993800588E+02  0.51100000000E-03 0.  1.
         12    1    3    3    0    0 -0.24691613406E+02 -0.15816867113E+02 -0.13035836953E+02  0.32090218181E+02  0.00000000000E+00 0. -1.
</event>
<event>
 7    1  0.2655561E-013  0.7246158E+02  0.7816164E-02  0.1226708E+00
        -11   -1    0    0    0    0  0.00000000000E+00  0.00000000000E+00  0.45593999997E+02  0.45594000000E+02  0.51100000000E-03 0. -1.
         11   -1    0    0    0    0 -0.00000000000E+00 -0.00000000000E+00 -0.45593999997E+02  0.45594000000E+02  0.51100000000E-03 0.  1.
    9900012    2    1    2    0    0 -0.12197212330E+01  0.62462490309E+01 -0.17611802461E+02  0.72461576616E+02  0.70000008235E+02 0.  0.
        -12    1    1    2    0    0  0.12197212330E+01 -0.62462490309E+01  0.17611802461E+02  0.18726423384E+02  0.00000000000E+00 0.  1.
         11    1    3    3    0    0 -0.85820418022E+01 -0.75168449297E+01  0.96497122626E+01  0.14942267104E+02  0.51100000000E-03 0. -1.
        -11    1    3    3    0    0 -0.79245031038E+00  0.16056615889E+02  0.10248253698E+02  0.19064878584E+02  0.51100000000E-03 0.  1.
        -12    1    3    3    0    0  0.81547708796E+01 -0.22935219281E+01 -0.37509768422E+02  0.38454430928E+02  0.00000000000E+00 0.  1.
</event>
<event>
 7    1  0.2655561E-013  0.7246134E+02  0.7816164E-02  0.1226709E+00
        -11   -1    0    0    0    0  0.00000000000E+00  0.00000000000E+00  0.45593999997E+02  0.45594000000E+02  0.51100000000E-03 0.  1.
         11   -1    0    0    0    0 -0.00000000000E+00 -0.00000000000E+00 -0.45593999997E+02  0.45594000000E+02  0.51100000000E-03 0. -1.
    9900012    2    1    2    0    0  0.11559516892E+02 -0.84343161022E+01 -0.12080050216E+02  0.72461341672E+02  0.69999702177E+02 0.  0.
        -12    1    1    2    0    0 -0.11559516892E+02  0.84343161022E+01  0.12080050216E+02  0.18726658328E+02  0.00000000000E+00 0.  1.
         11    1    3    3    0    0  0.67223479493E+01 -0.65873975694E+00  0.19214101035E+01  0.70225150100E+01  0.51100000000E-03 0. -1.
        -11    1    3    3    0    0  0.15635702513E+02 -0.25817626333E+02  0.11576921221E+02  0.32327235078E+02  0.51100000000E-03 0.  1.
         12    1    3    3    0    0 -0.10798533571E+02  0.18042049987E+02 -0.25578381541E+02  0.33111591585E+02  0.00000000000E+00 0. -1.
</event>
<event>
 7    1  0.2655561E-013  0.7246150E+02  0.7816164E-02  0.1226708E+00
        -11   -1    0    0    0    0  0.00000000000E+00  0.00000000000E+00  0.45593999997E+02  0.45594000000E+02  0.51100000000E-03 0.  1.
         11   -1    0    0    0    0 -0.00000000000E+00 -0.00000000000E+00 -0.45593999997E+02  0.45594000000E+02  0.51100000000E-03 0. -1.
    9900012    2    1    2    0    0 -0.52175443523E+01  0.10476563056E+02 -0.14618500229E+02  0.72461502958E+02  0.69999912281E+02 0.  0.
        -12    1    1    2    0    0  0.52175443523E+01 -0.10476563056E+02  0.14618500229E+02  0.18726497042E+02  0.00000000000E+00 0.  1.
         11    1    3    3    0    0 -0.13965980595E+02  0.96111092968E+01  0.77212546312E+01  0.18629004516E+02  0.51100000000E-03 0. -1.
        -11    1    3    3    0    0 -0.13571037887E+02  0.13210332688E+02  0.13966037004E+01  0.18990430780E+02  0.51100000000E-03 0.  1.
         12    1    3    3    0    0  0.22319474130E+02 -0.12344878929E+02 -0.23736358560E+02  0.34842067661E+02  0.00000000000E+00 0. -1.
</event>
<event>
 7    1  0.2655561E-013  0.7246155E+02  0.7816164E-02  0.1226708E+00
        -11   -1    0    0    0    0  0.00000000000E+00  0.00000000000E+00  0.45593999997E+02  0.45594000000E+02  0.51100000000E-03 0.  1.
         11   -1    0    0    0    0 -0.00000000000E+00 -0.00000000000E+00 -0.45593999997E+02  0.45594000000E+02  0.51100000000E-03 0. -1.
    9900012    2    1    2    0    0  0.30512766515E+01 -0.61232041697E+00 -0.18466039892E+02  0.72461551997E+02  0.69999976165E+02 0.  0.
        -12    1    1    2    0    0 -0.30512766515E+01  0.61232041697E+00  0.18466039892E+02  0.18726448003E+02  0.00000000000E+00 0.  1.
         11    1    3    3    0    0  0.26380818441E+01 -0.25384537528E+02  0.80400299109E+01  0.26757733510E+02  0.51100000000E-03 0. -1.
        -11    1    3    3    0    0  0.28511915233E+01  0.16236036232E+00  0.49352743816E+01  0.57019810130E+01  0.51100000000E-03 0.  1.
        -12    1    3    3    0    0 -0.24379967160E+01  0.24609856749E+02 -0.31441344185E+02  0.40001837475E+02  0.00000000000E+00 0.  1.
</event>
<event>
 7    1  0.2655561E-013  0.7246094E+02  0.7816164E-02  0.1226710E+00
        -11   -1    0    0    0    0  0.00000000000E+00  0.00000000000E+00  0.45593999997E+02  0.45594000000E+02  0.51100000000E-03 0.  1.
         11   -1    0    0    0    0 -0.00000000000E+00 -0.00000000000E+00 -0.45593999997E+02  0.45594000000E+02  0.51100000000E-03 0. -1.
    9900012    2    1    2    0    0  0.81679687263E+01  0.10282596742E+02 -0.13351229371E+02  0.72460938442E+02  0.69999176890E+02 0.  0.
        -12    1    1    2    0    0 -0.81679687263E+01 -0.10282596742E+02  0.13351229371E+02  0.18727061558E+02  0.00000000000E+00 0.  1.
         11    1    3    3    0    0 -0.12273920006E+01 -0.41447232949E+01 -0.94051600425E+00  0.44237758679E+01  0.51100000000E-03 0. -1.
        -11    1    3    3    0    0 -0.16396312412E+02 -0.14189642444E+02 -0.19147881641E+02  0.28927951621E+02  0.51100000000E-03 0.  1.
         12    1    3    3    0    0  0.25791673139E+02  0.28616962482E+02  0.67371682737E+01  0.39109210953E+02  0.00000000000E+00 0. -1.
</event>
<event>
 7    1  0.2655561E-013  0.7246157E+02  0.7816164E-02  0.1226708E+00
        -11   -1    0    0    0    0  0.00000000000E+00  0.00000000000E+00  0.45593999997E+02  0.45594000000E+02  0.51100000000E-03 0. -1.
         11   -1    0    0    0    0 -0.00000000000E+00 -0.00000000000E+00 -0.45593999997E+02  0.45594000000E+02  0.51100000000E-03 0.  1.
    9900012    2    1    2    0    0  0.90722026414E+01 -0.15771681820E+02 -0.44303804445E+01  0.72461572709E+02  0.70000003145E+02 0.  0.
        -12    1    1    2    0    0 -0.90722026414E+01  0.15771681820E+02  0.44303804445E+01  0.18726427291E+02  0.00000000000E+00 0.  1.
         11    1    3    3    0    0  0.54741268883E+01  0.14023136859E+02  0.78084524579E+01  0.16958371461E+02  0.51100000000E-03 0. -1.
        -11    1    3    3    0    0  0.64888903714E+01 -0.10082169567E+02  0.16584245929E+02  0.20464433897E+02  0.51100000000E-03 0.  1.
        -12    1    3    3    0    0 -0.28908146184E+01 -0.19712649112E+02 -0.28823078831E+02  0.35038767351E+02  0.00000000000E+00 0.  1.
</event>
<event>
 7    1  0.2655561E-013  0.7246157E+02  0.7816164E-02  0.1226708E+00
        -11   -1    0    0    0    0  0.00000000000E+00  0.00000000000E+00  0.45593999997E+02  0.45594000000E+02  0.51100000000E-03 0. -1.
         11   -1    0    0    0    0 -0.00000000000E+00 -0.00000000000E+00 -0.45593999997E+02  0.45594000000E+02  0.51100000000E-03 0.  1.
    9900012    2    1    2    0    0  0.14758652039E+02  0.24864060437E+01  0.11255184400E+02  0.72461569457E+02  0.69999998909E+02 0.  0.
        -12    1    1    2    0    0 -0.14758652039E+02 -0.24864060437E+01 -0.11255184400E+02  0.18726430543E+02  0.00000000000E+00 0.  1.
         11    1    3    3    0    0  0.10795140710E+02  0.34173061000E+01  0.21711663769E+02  0.24486922791E+02  0.51100000000E-03 0. -1.
        -11    1    3    3    0    0 -0.25892017406E+01 -0.21475086715E+02  0.40215748379E+01  0.22001281315E+02  0.51100000000E-03 0.  1.
        -12    1    3    3    0    0  0.65527130697E+01  0.20544186658E+02 -0.14478054207E+02  0.25973365351E+02  0.00000000000E+00 0.  1.
</event>
<event>
 7    1  0.2655561E-013  0.7246129E+02  0.7816164E-02  0.1226709E+00
        -11   -1    0    0    0    0  0.00000000000E+00  0.00000000000E+00  0.45593999997E+02  0.45594000000E+02  0.51100000000E-03 0.  1.
         11   -1    0    0    0    0 -0.00000000000E+00 -0.00000000000E+00 -0.45593999997E+02  0.45594000000E+02  0.51100000000E-03 0. -1.
    9900012    2    1    2    0    0 -0.17308032231E+02 -0.71080651914E+01  0.77271955691E+00  0.72461290038E+02  0.69999634913E+02 0.  0.
        -12    1    1    2    0    0  0.17308032231E+02  0.71080651914E+01 -0.77271955691E+00  0.18726709962E+02  0.00000000000E+00 0.  1.
         11    1    3    3    0    0 -0.17714949992E+02 -0.18568583174E+02 -0.19383594263E+02  0.32161086131E+02  0.51100000000E-03 0. -1.
        -11    1    3    3    0    0 -0.80885840470E+01 -0.10693587019E+01 -0.59665890798E+01  0.10107863544E+02  0.51100000000E-03 0.  1.
        -12    1    3    3    0    0  0.84955018082E+01  0.12529876685E+02  0.26122902899E+02  0.30192340363E+02  0.00000000000E+00 0.  1.
</event>
<event>
 7    1  0.2655561E-013  0.7246118E+02  0.7816164E-02  0.1226709E+00
        -11   -1    0    0    0    0  0.00000000000E+00  0.00000000000E+00  0.45593999997E+02  0.45594000000E+02  0.51100000000E-03 0.  1.
         11   -1    0    0    0    0 -0.00000000000E+00 -0.00000000000E+00 -0.45593999997E+02  0.45594000000E+02  0.51100000000E-03 0. -1.
    9900012    2    1    2    0    0 -0.15180525172E+01  0.54244030159E+01 -0.17859592069E+02  0.72461183389E+02  0.69999495982E+02 0.  0.
        -12    1    1    2    0    0  0.15180525172E+01 -0.54244030159E+01  0.17859592069E+02  0.18726816611E+02  0.00000000000E+00 0.  1.
         11    1    3    3    0    0  0.61790742930E+01  0.23679263801E+01  0.41866809865E+01  0.78304745963E+01  0.51100000000E-03 0. -1.
        -11    1    3    3    0    0  0.67838522541E+00  0.27649000981E+02  0.38794252651E+01  0.27928075523E+02  0.51100000000E-03 0.  1.
         12    1    3    3    0    0 -0.83755120356E+01 -0.24592524345E+02 -0.25925698321E+02  0.36702633270E+02  0.00000000000E+00 0. -1.
</event>
<event>
 7    1  0.2655561E-013  0.7246156E+02  0.7816164E-02  0.1226708E+00
        -11   -1    0    0    0    0  0.00000000000E+00  0.00000000000E+00  0.45593999997E+02  0.45594000000E+02  0.51100000000E-03 0.  1.
         11   -1    0    0    0    0 -0.00000000000E+00 -0.00000000000E+00 -0.45593999997E+02  0.45594000000E+02  0.51100000000E-03 0. -1.
    9900012    2    1    2    0    0 -0.10090935373E+02 -0.15393302449E+02 -0.34494677318E+01  0.72461559746E+02  0.69999986258E+02 0.  0.
        -12    1    1    2    0    0  0.10090935373E+02  0.15393302449E+02  0.34494677318E+01  0.18726440254E+02  0.00000000000E+00 0.  1.
         11    1    3    3    0    0  0.87985599011E+01 -0.10839209948E+02 -0.25219501720E+02  0.28825793934E+02  0.51100000000E-03 0. -1.
        -11    1    3    3    0    0 -0.64862291778E+01 -0.15303533430E+02  0.31721114672E+00  0.16624377509E+02  0.51100000000E-03 0.  1.
        -12    1    3    3    0    0 -0.12403266096E+02  0.10749440930E+02  0.21452822842E+02  0.27011388303E+02  0.00000000000E+00 0.  1.
</event>
<event>
 7    1  0.2655561E-013  0.7246155E+02  0.7816164E-02  0.1226708E+00
        -11   -1    0    0    0    0  0.00000000000E+00  0.00000000000E+00  0.45593999997E+02  0.45594000000E+02  0.51100000000E-03 0.  1.
         11   -1    0    0    0    0 -0.00000000000E+00 -0.00000000000E+00 -0.45593999997E+02  0.45594000000E+02  0.51100000000E-03 0. -1.
    9900012    2    1    2    0    0 -0.18174742447E+02  0.24001368822E+00 -0.45056810726E+01  0.72461547279E+02  0.69999970019E+02 0.  0.
        -12    1    1    2    0    0  0.18174742447E+02 -0.24001368822E+00  0.45056810726E+01  0.18726452721E+02  0.00000000000E+00 0.  1.
         11    1    3    3    0    0 -0.75070525695E+00  0.10894667575E+01 -0.23146586970E+02  0.23184369407E+02  0.51100000000E-03 0. -1.
        -11    1    3    3    0    0 -0.57529663654E+00 -0.17937026561E+02  0.17782995332E+02  0.25264655377E+02  0.51100000000E-03 0.  1.
         12    1    3    3    0    0 -0.16848740553E+02  0.17087573491E+02  0.85791056457E+00  0.24012522495E+02  0.00000000000E+00 0. -1.
</event>
<event>
 7    1  0.2655561E-013  0.7246160E+02  0.7816164E-02  0.1226708E+00
        -11   -1    0    0    0    0  0.00000000000E+00  0.00000000000E+00  0.45593999997E+02  0.45594000000E+02  0.51100000000E-03 0. -1.
         11   -1    0    0    0    0 -0.00000000000E+00 -0.00000000000E+00 -0.45593999997E+02  0.45594000000E+02  0.51100000000E-03 0.  1.
    9900012    2    1    2    0    0  0.54983090537E+01  0.11982102435E+02  0.13299467165E+02  0.72461601305E+02  0.70000040397E+02 0.  0.
        -12    1    1    2    0    0 -0.54983090537E+01 -0.11982102435E+02 -0.13299467165E+02  0.18726398695E+02  0.00000000000E+00 0.  1.
         11    1    3    3    0    0  0.20319892474E+02 -0.18953842460E+02  0.11078722974E+02  0.29914616447E+02  0.51100000000E-03 0. -1.
        -11    1    3    3    0    0  0.36252209731E+01 -0.23958465821E+01 -0.38329972731E+00  0.43622502095E+01  0.51100000000E-03 0.  1.
        -12    1    3    3    0    0 -0.18446804394E+02  0.33331791477E+02  0.26040439189E+01  0.38184734648E+02  0.00000000000E+00 0.  1.
</event>
<event>
 7    1  0.2655561E-013  0.7246159E+02  0.7816164E-02  0.1226708E+00
        -11   -1    0    0    0    0  0.00000000000E+00  0.00000000000E+00  0.45593999997E+02  0.45594000000E+02  0.51100000000E-03 0.  1.
         11   -1    0    0    0    0 -0.00000000000E+00 -0.00000000000E+00 -0.45593999997E+02  0.45594000000E+02  0.51100000000E-03 0. -1.
    9900012    2    1    2    0    0  0.13892439453E+02 -0.12482797624E+02  0.13631410233E+01  0.72461594474E+02  0.70000031499E+02 0.  0.
        -12    1    1    2    0    0 -0.13892439453E+02  0.12482797624E+02 -0.13631410233E+01  0.18726405526E+02  0.00000000000E+00 0.  1.
         11    1    3    3    0    0  0.21566447590E+02 -0.74167695282E+01  0.13130465530E+02  0.26315950623E+02  0.51100000000E-03 0. -1.
        -11    1    3    3    0    0  0.13272257395E+02  0.17527488616E+01  0.87899158233E+01  0.16015229170E+02  0.51100000000E-03 0.  1.
        -12    1    3    3    0    0 -0.20946265532E+02 -0.68187769572E+01 -0.20557240330E+02  0.30130414682E+02  0.00000000000E+00 0.  1.
</event>
<event>
 7    1  0.2655561E-013  0.7246156E+02  0.7816164E-02  0.1226708E+00
        -11   -1    0    0    0    0  0.00000000000E+00  0.00000000000E+00  0.45593999997E+02  0.45594000000E+02  0.51100000000E-03 0. -1.
         11   -1    0    0    0    0 -0.00000000000E+00 -0.00000000000E+00 -0.45593999997E+02  0.45594000000E+02  0.51100000000E-03 0.  1.
    9900012    2    1    2    0    0  0.18038082933E+02 -0.30712179447E+01 -0.39843281798E+01  0.72461556488E+02  0.69999982014E+02 0.  0.
        -12    1    1    2    0    0 -0.18038082933E+02  0.30712179447E+01  0.39843281798E+01  0.18726443512E+02  0.00000000000E+00 0.  1.
         11    1    3    3    0    0  0.19007051548E+02  0.74546619250E+01 -0.66603128524E+01  0.21475561937E+02  0.51100000000E-03 0. -1.
        -11    1    3    3    0    0 -0.81105266356E+01 -0.29430999133E+02  0.36972572480E+01  0.30751163615E+02  0.51100000000E-03 0.  1.
         12    1    3    3    0    0  0.71415580212E+01  0.18905119263E+02 -0.10212725755E+01  0.20234830936E+02  0.00000000000E+00 0. -1.
</event>
<event>
 7    1  0.2655561E-013  0.7246151E+02  0.7816164E-02  0.1226708E+00
        -11   -1    0    0    0    0  0.00000000000E+00  0.00000000000E+00  0.45593999997E+02  0.45594000000E+02  0.51100000000E-03 0. -1.
         11   -1    0    0    0    0 -0.00000000000E+00 -0.00000000000E+00 -0.45593999997E+02  0.45594000000E+02  0.51100000000E-03 0.  1.
    9900012    2    1    2    0    0 -0.13269998193E+02 -0.10305704815E+02  0.82692907371E+01  0.72461506119E+02  0.69999916400E+02 0.  0.
        -12    1    1    2    0    0  0.13269998193E+02  0.10305704815E+02 -0.82692907371E+01  0.18726493881E+02  0.00000000000E+00 0.  1.
         11    1    3    3    0    0 -0.35481324786E+02 -0.16752657643E+02  0.90526305280E+01  0.40268176845E+02  0.51100000000E-03 0. -1.
        -11    1    3    3    0    0 -0.54899728460E+00  0.30945832287E+01  0.71884053286E+01  0.78454454817E+01  0.51100000000E-03 0.  1.
        -12    1    3    3    0    0  0.22760323877E+02  0.33523695989E+01 -0.79717451194E+01  0.24347883793E+02  0.00000000000E+00 0.  1.
</event>
<event>
 7    1  0.3929788E-013  0.7246156E+02  0.7816164E-02  0.1226708E+00
        -11   -1    0    0    0    0  0.00000000000E+00  0.00000000000E+00  0.45593999997E+02  0.45594000000E+02  0.51100000000E-03 0. -1.
         11   -1    0    0    0    0 -0.00000000000E+00 -0.00000000000E+00 -0.45593999997E+02  0.45594000000E+02  0.51100000000E-03 0.  1.
    9900012    2    1    2    0    0 -0.18271708709E+01 -0.77885070259E+01  0.16931630823E+02  0.72461561006E+02  0.69999987900E+02 0.  0.
        -12    1    1    2    0    0  0.18271708709E+01  0.77885070259E+01 -0.16931630823E+02  0.18726438994E+02  0.00000000000E+00 0.  1.
         11    1    3    3    0    0  0.44617265904E+01  0.70534718077E+01  0.29960709445E+02  0.31101488379E+02  0.51100000000E-03 0.  1.
        -11    1    3    3    0    0  0.23714537175E+01 -0.23764044653E+02 -0.76330330729E+00  0.23894272184E+02  0.51100000000E-03 0. -1.
        -12    1    3    3    0    0 -0.86603511788E+01  0.89220658192E+01 -0.12265775315E+02  0.17465800442E+02  0.00000000000E+00 0.  1.
</event>
<event>
 7    1  0.2655561E-013  0.7246157E+02  0.7816164E-02  0.1226708E+00
        -11   -1    0    0    0    0  0.00000000000E+00  0.00000000000E+00  0.45593999997E+02  0.45594000000E+02  0.51100000000E-03 0. -1.
         11   -1    0    0    0    0 -0.00000000000E+00 -0.00000000000E+00 -0.45593999997E+02  0.45594000000E+02  0.51100000000E-03 0.  1.
    9900012    2    1    2    0    0  0.63335534807E+01 -0.16729282816E+02 -0.55404458038E+01  0.72461565664E+02  0.69999993968E+02 0.  0.
        -12    1    1    2    0    0 -0.63335534807E+01  0.16729282816E+02  0.55404458038E+01  0.18726434336E+02  0.00000000000E+00 0.  1.
         11    1    3    3    0    0  0.24067314814E+02 -0.28970403833E+02 -0.56502234412E+01  0.38084707768E+02  0.51100000000E-03 0. -1.
        -11    1    3    3    0    0 -0.89548646489E+00 -0.44898118553E+01 -0.80630295833E+01  0.92721493100E+01  0.51100000000E-03 0.  1.
        -12    1    3    3    0    0 -0.16838274869E+02  0.16730932872E+02  0.81728072206E+01  0.25104708586E+02  0.00000000000E+00 0.  1.
</event>
<event>
 7    1  0.2655561E-013  0.7246151E+02  0.7816164E-02  0.1226708E+00
        -11   -1    0    0    0    0  0.00000000000E+00  0.00000000000E+00  0.45593999997E+02  0.45594000000E+02  0.51100000000E-03 0. -1.
         11   -1    0    0    0    0 -0.00000000000E+00 -0.00000000000E+00 -0.45593999997E+02  0.45594000000E+02  0.51100000000E-03 0.  1.
    9900012    2    1    2    0    0  0.80782020066E+01  0.16198272362E+02  0.48000035472E+01  0.72461510494E+02  0.69999922098E+02 0.  0.
        -12    1    1    2    0    0 -0.80782020066E+01 -0.16198272362E+02 -0.48000035472E+01  0.18726489506E+02  0.00000000000E+00 0.  1.
         11    1    3    3    0    0  0.83436455084E+01  0.20678251438E+02  0.49475340405E+01  0.22840415851E+02  0.51100000000E-03 0. -1.
        -11    1    3    3    0    0  0.18099590010E+02 -0.97413144806E+01 -0.14980978361E+02  0.25434584315E+02  0.51100000000E-03 0.  1.
         12    1    3    3    0    0 -0.18365033512E+02  0.52613354044E+01  0.14833447868E+02  0.24186510327E+02  0.00000000000E+00 0. -1.
</event>
<event>
 7    1  0.2655561E-013  0.7246156E+02  0.7816164E-02  0.1226708E+00
        -11   -1    0    0    0    0  0.00000000000E+00  0.00000000000E+00  0.45593999997E+02  0.45594000000E+02  0.51100000000E-03 0. -1.
         11   -1    0    0    0    0 -0.00000000000E+00 -0.00000000000E+00 -0.45593999997E+02  0.45594000000E+02  0.51100000000E-03 0.  1.
    9900012    2    1    2    0    0  0.14200817245E+02  0.12096885941E+02  0.16375778403E+01  0.72461560907E+02  0.69999987772E+02 0.  0.
        -12    1    1    2    0    0 -0.14200817245E+02 -0.12096885941E+02 -0.16375778403E+01  0.18726439093E+02  0.00000000000E+00 0.  1.
         11    1    3    3    0    0  0.40285687148E+00  0.21678850603E+02 -0.74624399408E+01  0.22930827880E+02  0.51100000000E-03 0. -1.
        -11    1    3    3    0    0 -0.95899851398E+01 -0.15458165756E+02 -0.80971982180E+01  0.19911989422E+02  0.51100000000E-03 0.  1.
         12    1    3    3    0    0  0.23387945514E+02  0.58762010940E+01  0.17197215999E+02  0.29618743605E+02  0.00000000000E+00 0. -1.
</event>
<event>
 7    1  0.2655561E-013  0.7246157E+02  0.7816164E-02  0.1226708E+00
        -11   -1    0    0    0    0  0.00000000000E+00  0.00000000000E+00  0.45593999997E+02  0.45594000000E+02  0.51100000000E-03 0.  1.
         11   -1    0    0    0    0 -0.00000000000E+00 -0.00000000000E+00 -0.45593999997E+02  0.45594000000E+02  0.51100000000E-03 0. -1.
    9900012    2    1    2    0    0  0.31874973948E+01 -0.91451796816E+01 -0.16027625450E+02  0.72461568717E+02  0.69999997945E+02 0.  0.
        -12    1    1    2    0    0 -0.31874973948E+01  0.91451796816E+01  0.16027625450E+02  0.18726431283E+02  0.00000000000E+00 0.  1.
         11    1    3    3    0    0 -0.54637830307E+01 -0.16451868631E+02 -0.13976647703E+02  0.22267994695E+02  0.51100000000E-03 0. -1.
        -11    1    3    3    0    0 -0.88212541468E+00  0.72542919629E+00 -0.24714560637E+02  0.24740935724E+02  0.51100000000E-03 0.  1.
        -12    1    3    3    0    0  0.95334058402E+01  0.65812597532E+01  0.22663582890E+02  0.25452638297E+02  0.00000000000E+00 0.  1.
</event>
<event>
 7    1  0.2655561E-013  0.7246138E+02  0.7816164E-02  0.1226709E+00
        -11   -1    0    0    0    0  0.00000000000E+00  0.00000000000E+00  0.45593999997E+02  0.45594000000E+02  0.51100000000E-03 0.  1.
         11   -1    0    0    0    0 -0.00000000000E+00 -0.00000000000E+00 -0.45593999997E+02  0.45594000000E+02  0.51100000000E-03 0. -1.
    9900012    2    1    2    0    0 -0.50314019054E+01  0.15815070638E+02 -0.86749610496E+01  0.72461376876E+02  0.69999748036E+02 0.  0.
        -12    1    1    2    0    0  0.50314019054E+01 -0.15815070638E+02  0.86749610496E+01  0.18726623124E+02  0.00000000000E+00 0.  1.
         11    1    3    3    0    0  0.76090614228E+01 -0.81846031858E+01 -0.32775722241E+02  0.34628507241E+02  0.51100000000E-03 0. -1.
        -11    1    3    3    0    0 -0.14351138439E+01  0.26511665305E+01 -0.85402314914E+00  0.31333036109E+01  0.51100000000E-03 0.  1.
        -12    1    3    3    0    0 -0.11205349484E+02  0.21348507294E+02  0.24954784341E+02  0.34699566024E+02  0.00000000000E+00 0.  1.
</event>
<event>
 7    1  0.2655561E-013  0.7246157E+02  0.7816164E-02  0.1226708E+00
        -11   -1    0    0    0    0  0.00000000000E+00  0.00000000000E+00  0.45593999997E+02  0.45594000000E+02  0.51100000000E-03 0. -1.
         11   -1    0    0    0    0 -0.00000000000E+00 -0.00000000000E+00 -0.45593999997E+02  0.45594000000E+02  0.51100000000E-03 0.  1.
    9900012    2    1    2    0    0  0.58185076254E+00 -0.44276318294E+01  0.18186163885E+02  0.72461573999E+02  0.70000004826E+02 0.  0.
        -12    1    1    2    0    0 -0.58185076254E+00  0.44276318294E+01 -0.18186163885E+02  0.18726426001E+02  0.00000000000E+00 0.  1.
         11    1    3    3    0    0 -0.15500754997E+02 -0.15964519853E+02  0.83315281062E-01  0.22251881748E+02  0.51100000000E-03 0. -1.
        -11    1    3    3    0    0  0.15847683602E+02  0.16927391950E+02 -0.72453206179E+01  0.24293627660E+02  0.51100000000E-03 0.  1.
         12    1    3    3    0    0  0.23492215734E+00 -0.53905039265E+01  0.25348169222E+02  0.25916064591E+02  0.00000000000E+00 0. -1.
</event>
<event>
 7    1  0.2655561E-013  0.7246154E+02  0.7816164E-02  0.1226708E+00
        -11   -1    0    0    0    0  0.00000000000E+00  0.00000000000E+00  0.45593999997E+02  0.45594000000E+02  0.51100000000E-03 0.  1.
         11   -1    0    0    0    0 -0.00000000000E+00 -0.00000000000E+00 -0.45593999997E+02  0.45594000000E+02  0.51100000000E-03 0. -1.
    9900012    2    1    2    0    0 -0.69819947504E+01  0.17143282271E+02  0.28354952770E+01  0.72461537142E+02  0.69999956813E+02 0.  0.
        -12    1    1    2    0    0  0.69819947504E+01 -0.17143282271E+02 -0.28354952770E+01  0.18726462858E+02  0.00000000000E+00 0.  1.
         11    1    3    3    0    0  0.13861203719E+02 -0.20360379284E+02  0.93830990559E+01  0.26357552263E+02  0.51100000000E-03 0. -1.
        -11    1    3    3    0    0 -0.31804384989E+01  0.35433894193E+01 -0.62078798387E+01  0.78235906063E+01  0.51100000000E-03 0.  1.
        -12    1    3    3    0    0 -0.17662759970E+02  0.33960272136E+02 -0.33972394024E+00  0.38280394273E+02  0.00000000000E+00 0.  1.
</event>
<event>
 7    1  0.2655561E-013  0.7246155E+02  0.7816164E-02  0.1226708E+00
        -11   -1    0    0    0    0  0.00000000000E+00  0.00000000000E+00  0.45593999997E+02  0.45594000000E+02  0.51100000000E-03 0. -1.
         11   -1    0    0    0    0 -0.00000000000E+00 -0.00000000000E+00 -0.45593999997E+02  0.45594000000E+02  0.51100000000E-03 0.  1.
    9900012    2    1    2    0    0  0.52641656221E+01 -0.16953956214E+02 -0.59608491403E+01  0.72461553635E+02  0.69999978298E+02 0.  0.
        -12    1    1    2    0    0 -0.52641656221E+01  0.16953956214E+02  0.59608491403E+01  0.18726446365E+02  0.00000000000E+00 0.  1.
         11    1    3    3    0    0  0.74169266835E+01 -0.16494070754E+02 -0.32626978151E+02  0.37303952538E+02  0.51100000000E-03 0. -1.
        -11    1    3    3    0    0 -0.37797203413E+01  0.52195825598E+01 -0.13000316076E+01  0.65742231783E+01  0.51100000000E-03 0.  1.
        -12    1    3    3    0    0  0.16269592799E+01 -0.56794680200E+01  0.27966160618E+02  0.28583377918E+02  0.00000000000E+00 0.  1.
</event>
<event>
 7    1  0.2655561E-013  0.7246140E+02  0.7816164E-02  0.1226708E+00
        -11   -1    0    0    0    0  0.00000000000E+00  0.00000000000E+00  0.45593999997E+02  0.45594000000E+02  0.51100000000E-03 0.  1.
         11   -1    0    0    0    0 -0.00000000000E+00 -0.00000000000E+00 -0.45593999997E+02  0.45594000000E+02  0.51100000000E-03 0. -1.
    9900012    2    1    2    0    0  0.10703811968E+02  0.95060694355E+01 -0.12072645293E+02  0.72461395633E+02  0.69999772471E+02 0.  0.
        -12    1    1    2    0    0 -0.10703811968E+02 -0.95060694355E+01  0.12072645293E+02  0.18726604367E+02  0.00000000000E+00 0.  1.
         11    1    3    3    0    0 -0.40863928279E+01 -0.10831080387E+02 -0.30460417088E+02  0.32586008012E+02  0.51100000000E-03 0. -1.
        -11    1    3    3    0    0  0.65881102560E+01 -0.24896272268E+01  0.13362140349E+02  0.15104576639E+02  0.51100000000E-03 0.  1.
        -12    1    3    3    0    0  0.82020945395E+01  0.22826777049E+02  0.50256314469E+01  0.24770810983E+02  0.00000000000E+00 0.  1.
</event>
<event>
 7    1  0.2655561E-013  0.7246197E+02  0.7816164E-02  0.1226707E+00
        -11   -1    0    0    0    0  0.00000000000E+00  0.00000000000E+00  0.45593999997E+02  0.45594000000E+02  0.51100000000E-03 0. -1.
         11   -1    0    0    0    0 -0.00000000000E+00 -0.00000000000E+00 -0.45593999997E+02  0.45594000000E+02  0.51100000000E-03 0.  1.
    9900012    2    1    2    0    0 -0.17148983023E+02 -0.75208375994E+01 -0.11713052387E+00  0.72461966344E+02  0.70000515927E+02 0.  0.
        -12    1    1    2    0    0  0.17148983023E+02  0.75208375994E+01  0.11713052387E+00  0.18726033656E+02  0.00000000000E+00 0.  1.
         11    1    3    3    0    0 -0.14886335314E+02  0.52479135411E+01  0.31533841720E+02  0.35263674645E+02  0.51100000000E-03 0. -1.
        -11    1    3    3    0    0 -0.35893146036E+01 -0.18913181437E+01 -0.39408391383E+00  0.40762195766E+01  0.51100000000E-03 0.  1.
        -12    1    3    3    0    0  0.13266668945E+01 -0.10877432997E+02 -0.31256888330E+02  0.33122072123E+02  0.00000000000E+00 0.  1.
</event>
<event>
 7    1  0.2655561E-013  0.7246155E+02  0.7816164E-02  0.1226708E+00
        -11   -1    0    0    0    0  0.00000000000E+00  0.00000000000E+00  0.45593999997E+02  0.45594000000E+02  0.51100000000E-03 0. -1.
         11   -1    0    0    0    0 -0.00000000000E+00 -0.00000000000E+00 -0.45593999997E+02  0.45594000000E+02  0.51100000000E-03 0.  1.
    9900012    2    1    2    0    0 -0.36998378870E+01  0.18347985395E+02  0.58521186119E+00  0.72461552356E+02  0.69999976632E+02 0.  0.
        -12    1    1    2    0    0  0.36998378870E+01 -0.18347985395E+02 -0.58521186119E+00  0.18726447644E+02  0.00000000000E+00 0.  1.
         11    1    3    3    0    0  0.15164762695E+02 -0.64442753753E+01  0.12669597480E+02  0.20785028585E+02  0.51100000000E-03 0. -1.
        -11    1    3    3    0    0 -0.96910378608E+01  0.10407821524E+02  0.14357574754E+02  0.20208387288E+02  0.51100000000E-03 0.  1.
        -12    1    3    3    0    0 -0.91735627208E+01  0.14384439246E+02 -0.26441960373E+02  0.31468136484E+02  0.00000000000E+00 0.  1.
</event>
<event>
 7    1  0.2655561E-013  0.7246157E+02  0.7816164E-02  0.1226708E+00
        -11   -1    0    0    0    0  0.00000000000E+00  0.00000000000E+00  0.45593999997E+02  0.45594000000E+02  0.51100000000E-03 0. -1.
         11   -1    0    0    0    0 -0.00000000000E+00 -0.00000000000E+00 -0.45593999997E+02  0.45594000000E+02  0.51100000000E-03 0.  1.
    9900012    2    1    2    0    0  0.14225382229E+02  0.94653922770E+01  0.76631573933E+01  0.72461571303E+02  0.70000001314E+02 0.  0.
        -12    1    1    2    0    0 -0.14225382229E+02 -0.94653922770E+01 -0.76631573933E+01  0.18726428697E+02  0.00000000000E+00 0.  1.
         11    1    3    3    0    0  0.96055656943E+01  0.47290846970E+01 -0.17189445974E+02  0.20251128056E+02  0.51100000000E-03 0. -1.
        -11    1    3    3    0    0  0.15201818801E+02 -0.15723854514E+02  0.17562944728E+02  0.28049811468E+02  0.51100000000E-03 0.  1.
         12    1    3    3    0    0 -0.10582002267E+02  0.20460162094E+02  0.72896586392E+01  0.24160631779E+02  0.00000000000E+00 0. -1.
</event>
<event>
 7    1  0.2655561E-013  0.7246152E+02  0.7816164E-02  0.1226708E+00
        -11   -1    0    0    0    0  0.00000000000E+00  0.00000000000E+00  0.45593999997E+02  0.45594000000E+02  0.51100000000E-03 0.  1.
         11   -1    0    0    0    0 -0.00000000000E+00 -0.00000000000E+00 -0.45593999997E+02  0.45594000000E+02  0.51100000000E-03 0. -1.
    9900012    2    1    2    0    0 -0.58197076879E+01 -0.14410243443E+02  0.10447817702E+02  0.72461521196E+02  0.69999936040E+02 0.  0.
        -12    1    1    2    0    0  0.58197076879E+01  0.14410243443E+02 -0.10447817702E+02  0.18726478804E+02  0.00000000000E+00 0.  1.
         11    1    3    3    0    0 -0.12684572673E+01 -0.64807196503E+01 -0.22653428909E+02  0.23596324981E+02  0.51100000000E-03 0. -1.
        -11    1    3    3    0    0  0.99162710454E+01  0.52315591335E+01  0.97527872197E+00  0.11254013118E+02  0.51100000000E-03 0.  1.
        -12    1    3    3    0    0 -0.14467521466E+02 -0.13161082926E+02  0.32125967889E+02  0.37611183097E+02  0.00000000000E+00 0.  1.
</event>
<event>
 7    1  0.2655561E-013  0.7246155E+02  0.7816164E-02  0.1226708E+00
        -11   -1    0    0    0    0  0.00000000000E+00  0.00000000000E+00  0.45593999997E+02  0.45594000000E+02  0.51100000000E-03 0. -1.
         11   -1    0    0    0    0 -0.00000000000E+00 -0.00000000000E+00 -0.45593999997E+02  0.45594000000E+02  0.51100000000E-03 0.  1.
    9900012    2    1    2    0    0  0.55973003700E+01 -0.15837893208E+02  0.82771533220E+01  0.72461550795E+02  0.69999974599E+02 0.  0.
        -12    1    1    2    0    0 -0.55973003700E+01  0.15837893208E+02 -0.82771533220E+01  0.18726449205E+02  0.00000000000E+00 0.  1.
         11    1    3    3    0    0  0.11072511260E+02 -0.84121109190E+01 -0.22504651881E+02  0.26454176840E+02  0.51100000000E-03 0.  1.
        -11    1    3    3    0    0  0.82320522054E+01  0.77295665688E+01  0.33069184090E+01  0.11766417997E+02  0.51100000000E-03 0. -1.
         12    1    3    3    0    0 -0.13707263095E+02 -0.15155348858E+02  0.27474886794E+02  0.34240955958E+02  0.00000000000E+00 0. -1.
</event>
<event>
 7    1  0.2655561E-013  0.7246151E+02  0.7816164E-02  0.1226708E+00
        -11   -1    0    0    0    0  0.00000000000E+00  0.00000000000E+00  0.45593999997E+02  0.45594000000E+02  0.51100000000E-03 0.  1.
         11   -1    0    0    0    0 -0.00000000000E+00 -0.00000000000E+00 -0.45593999997E+02  0.45594000000E+02  0.51100000000E-03 0. -1.
    9900012    2    1    2    0    0  0.33204354897E+01 -0.15254519860E+02 -0.10341944969E+02  0.72461508237E+02  0.69999919159E+02 0.  0.
        -12    1    1    2    0    0 -0.33204354897E+01  0.15254519860E+02  0.10341944969E+02  0.18726491763E+02  0.00000000000E+00 0.  1.
         11    1    3    3    0    0 -0.78995177546E+00 -0.10382391087E+01  0.52297544018E+01  0.53900181464E+01  0.51100000000E-03 0. -1.
        -11    1    3    3    0    0 -0.16843655564E+02  0.43456804342E+01  0.16863080886E+02  0.24227198939E+02  0.51100000000E-03 0.  1.
         12    1    3    3    0    0  0.20954042829E+02 -0.18561961186E+02 -0.32434780257E+02  0.42844291152E+02  0.00000000000E+00 0. -1.
</event>
<event>
 7    1  0.2655561E-013  0.7246153E+02  0.7816164E-02  0.1226708E+00
        -11   -1    0    0    0    0  0.00000000000E+00  0.00000000000E+00  0.45593999997E+02  0.45594000000E+02  0.51100000000E-03 0. -1.
         11   -1    0    0    0    0 -0.00000000000E+00 -0.00000000000E+00 -0.45593999997E+02  0.45594000000E+02  0.51100000000E-03 0.  1.
    9900012    2    1    2    0    0 -0.46103669150E+01  0.67288621493E+01  0.16856683823E+02  0.72461525201E+02  0.69999941257E+02 0.  0.
        -12    1    1    2    0    0  0.46103669150E+01 -0.67288621493E+01 -0.16856683823E+02  0.18726474799E+02  0.00000000000E+00 0.  1.
         11    1    3    3    0    0 -0.11016595162E+02 -0.88022470178E+01  0.64854302885E+01  0.15521138097E+02  0.51100000000E-03 0. -1.
        -11    1    3    3    0    0 -0.18227367060E+02 -0.92129433401E+01 -0.31654825816E+00  0.20425852198E+02  0.51100000000E-03 0.  1.
         12    1    3    3    0    0  0.24633595308E+02  0.24744052507E+02  0.10687801792E+02  0.36514534906E+02  0.00000000000E+00 0. -1.
</event>
<event>
 7    1  0.2655561E-013  0.7246170E+02  0.7816164E-02  0.1226708E+00
        -11   -1    0    0    0    0  0.00000000000E+00  0.00000000000E+00  0.45593999997E+02  0.45594000000E+02  0.51100000000E-03 0.  1.
         11   -1    0    0    0    0 -0.00000000000E+00 -0.00000000000E+00 -0.45593999997E+02  0.45594000000E+02  0.51100000000E-03 0. -1.
    9900012    2    1    2    0    0 -0.95352358719E+01  0.15658096064E+02  0.38180553792E+01  0.72461701851E+02  0.70000171377E+02 0.  0.
        -12    1    1    2    0    0  0.95352358719E+01 -0.15658096064E+02 -0.38180553792E+01  0.18726298149E+02  0.00000000000E+00 0.  1.
         11    1    3    3    0    0 -0.14986161402E+02 -0.55958820202E+01  0.14471834764E+02  0.21571576921E+02  0.51100000000E-03 0. -1.
        -11    1    3    3    0    0 -0.49654255192E+01 -0.89842879302E+01  0.87446586159E+01  0.13484878003E+02  0.51100000000E-03 0.  1.
         12    1    3    3    0    0  0.10416351050E+02  0.30238266015E+02 -0.19398438001E+02  0.37405246926E+02  0.00000000000E+00 0. -1.
</event>
<event>
 7    1  0.2655561E-013  0.7246178E+02  0.7816164E-02  0.1226707E+00
        -11   -1    0    0    0    0  0.00000000000E+00  0.00000000000E+00  0.45593999997E+02  0.45594000000E+02  0.51100000000E-03 0.  1.
         11   -1    0    0    0    0 -0.00000000000E+00 -0.00000000000E+00 -0.45593999997E+02  0.45594000000E+02  0.51100000000E-03 0. -1.
    9900012    2    1    2    0    0 -0.10576488370E+02 -0.46334348844E+01 -0.14742472504E+02  0.72461779864E+02  0.70000273003E+02 0.  0.
        -12    1    1    2    0    0  0.10576488370E+02  0.46334348844E+01  0.14742472504E+02  0.18726220136E+02  0.00000000000E+00 0.  1.
         11    1    3    3    0    0 -0.94562163545E+01  0.11321417840E+02 -0.34922549730E+02  0.37910143887E+02  0.51100000000E-03 0. -1.
        -11    1    3    3    0    0 -0.19579823758E+01 -0.56640364125E-02 -0.46404445939E+01  0.50366112968E+01  0.51100000000E-03 0.  1.
        -12    1    3    3    0    0  0.83771036077E+00 -0.15949188688E+02  0.24820521820E+02  0.29515024680E+02  0.00000000000E+00 0.  1.
</event>
<event>
 7    1  0.2655561E-013  0.7246154E+02  0.7816164E-02  0.1226708E+00
        -11   -1    0    0    0    0  0.00000000000E+00  0.00000000000E+00  0.45593999997E+02  0.45594000000E+02  0.51100000000E-03 0.  1.
         11   -1    0    0    0    0 -0.00000000000E+00 -0.00000000000E+00 -0.45593999997E+02  0.45594000000E+02  0.51100000000E-03 0. -1.
    9900012    2    1    2    0    0 -0.18257618939E-01  0.27676844726E+01 -0.18520793089E+02  0.72461543119E+02  0.69999964599E+02 0.  0.
        -12    1    1    2    0    0  0.18257618939E-01 -0.27676844726E+01  0.18520793089E+02  0.18726456881E+02  0.00000000000E+00 0.  1.
         11    1    3    3    0    0  0.30360701499E+01 -0.12416215808E+01 -0.33892444210E+02  0.34050802059E+02  0.51100000000E-03 0. -1.
        -11    1    3    3    0    0  0.33502679692E+01  0.16472670149E+02 -0.10262281950E+01  0.16841208445E+02  0.51100000000E-03 0.  1.
         12    1    3    3    0    0 -0.64045957380E+01 -0.12463364096E+02  0.16397879316E+02  0.21569532615E+02  0.00000000000E+00 0. -1.
</event>
<event>
 7    1  0.2655561E-013  0.7246158E+02  0.7816164E-02  0.1226708E+00
        -11   -1    0    0    0    0  0.00000000000E+00  0.00000000000E+00  0.45593999997E+02  0.45594000000E+02  0.51100000000E-03 0.  1.
         11   -1    0    0    0    0 -0.00000000000E+00 -0.00000000000E+00 -0.45593999997E+02  0.45594000000E+02  0.51100000000E-03 0. -1.
    9900012    2    1    2    0    0  0.12801497966E+02 -0.13261708167E+02 -0.33056928751E+01  0.72461578584E+02  0.70000010799E+02 0.  0.
        -12    1    1    2    0    0 -0.12801497966E+02  0.13261708167E+02  0.33056928751E+01  0.18726421416E+02  0.00000000000E+00 0.  1.
         11    1    3    3    0    0 -0.13039548465E+02 -0.18356618291E+02 -0.12810796966E+02  0.25905825183E+02  0.51100000000E-03 0. -1.
        -11    1    3    3    0    0 -0.35945444633E+01 -0.41517271478E+01  0.14312349141E+02  0.15329739933E+02  0.51100000000E-03 0.  1.
         12    1    3    3    0    0  0.29435590894E+02  0.92466372723E+01 -0.48072450507E+01  0.31226013468E+02  0.00000000000E+00 0. -1.
</event>
<event>
 7    1  0.3063327E-013  0.7246152E+02  0.7816164E-02  0.1226708E+00
        -11   -1    0    0    0    0  0.00000000000E+00  0.00000000000E+00  0.45593999997E+02  0.45594000000E+02  0.51100000000E-03 0. -1.
         11   -1    0    0    0    0 -0.00000000000E+00 -0.00000000000E+00 -0.45593999997E+02  0.45594000000E+02  0.51100000000E-03 0.  1.
    9900012    2    1    2    0    0  0.14434266319E+02 -0.11812599969E+02 -0.16720062835E+01  0.72461516956E+02  0.69999930517E+02 0.  0.
        -12    1    1    2    0    0 -0.14434266319E+02  0.11812599969E+02  0.16720062835E+01  0.18726483044E+02  0.00000000000E+00 0.  1.
         11    1    3    3    0    0  0.24306079474E+02  0.73357122593E+01  0.19180366160E+02  0.31819563480E+02  0.51100000000E-03 0. -1.
        -11    1    3    3    0    0 -0.49306285358E+01 -0.16425471471E+02  0.18500212474E+01  0.17249051849E+02  0.51100000000E-03 0.  1.
        -12    1    3    3    0    0 -0.49411846197E+01 -0.27228407575E+01 -0.22702393691E+02  0.23392901627E+02  0.00000000000E+00 0.  1.
</event>
<event>
 7    1  0.2655561E-013  0.7246161E+02  0.7816164E-02  0.1226708E+00
        -11   -1    0    0    0    0  0.00000000000E+00  0.00000000000E+00  0.45593999997E+02  0.45594000000E+02  0.51100000000E-03 0. -1.
         11   -1    0    0    0    0 -0.00000000000E+00 -0.00000000000E+00 -0.45593999997E+02  0.45594000000E+02  0.51100000000E-03 0.  1.
    9900012    2    1    2    0    0  0.15430779473E+02 -0.17632419727E+01  0.10462291001E+02  0.72461614594E+02  0.70000057709E+02 0.  0.
        -12    1    1    2    0    0 -0.15430779473E+02  0.17632419727E+01 -0.10462291001E+02  0.18726385406E+02  0.00000000000E+00 0.  1.
         11    1    3    3    0    0  0.12657741456E+01 -0.31265546978E+00 -0.38227852398E+00  0.13587033383E+01  0.51100000000E-03 0. -1.
        -11    1    3    3    0    0  0.20362165116E+02  0.13794251905E+02 -0.22871093789E+02  0.33585504093E+02  0.51100000000E-03 0.  1.
         12    1    3    3    0    0 -0.61971597888E+01 -0.15244838408E+02  0.33715663313E+02  0.37517407163E+02  0.00000000000E+00 0. -1.
</event>
<event>
 7    1  0.2655561E-013  0.7246154E+02  0.7816164E-02  0.1226708E+00
        -11   -1    0    0    0    0  0.00000000000E+00  0.00000000000E+00  0.45593999997E+02  0.45594000000E+02  0.51100000000E-03 0. -1.
         11   -1    0    0    0    0 -0.00000000000E+00 -0.00000000000E+00 -0.45593999997E+02  0.45594000000E+02  0.51100000000E-03 0.  1.
    9900012    2    1    2    0    0 -0.18039186318E+02 -0.33686879175E+01  0.37309673524E+01  0.72461536942E+02  0.69999956552E+02 0.  0.
        -12    1    1    2    0    0  0.18039186318E+02  0.33686879175E+01 -0.37309673524E+01  0.18726463058E+02  0.00000000000E+00 0.  1.
         11    1    3    3    0    0  0.58693156353E+01  0.13706860309E+02  0.13957239133E+02  0.20423795192E+02  0.51100000000E-03 0. -1.
        -11    1    3    3    0    0 -0.67333025223E+00 -0.79616374782E+01 -0.22750634616E+02  0.24112909834E+02  0.51100000000E-03 0.  1.
        -12    1    3    3    0    0 -0.23235171701E+02 -0.91139107481E+01  0.12524362835E+02  0.27924831916E+02  0.00000000000E+00 0.  1.
</event>
<event>
 7    1  0.2655561E-013  0.7246156E+02  0.7816164E-02  0.1226708E+00
        -11   -1    0    0    0    0  0.00000000000E+00  0.00000000000E+00  0.45593999997E+02  0.45594000000E+02  0.51100000000E-03 0.  1.
         11   -1    0    0    0    0 -0.00000000000E+00 -0.00000000000E+00 -0.45593999997E+02  0.45594000000E+02  0.51100000000E-03 0. -1.
    9900012    2    1    2    0    0 -0.59425101917E+01  0.40883251350E+00 -0.17753839686E+02  0.72461564274E+02  0.69999992158E+02 0.  0.
        -12    1    1    2    0    0  0.59425101917E+01 -0.40883251350E+00  0.17753839686E+02  0.18726435726E+02  0.00000000000E+00 0.  1.
         11    1    3    3    0    0  0.61434306297E+01 -0.62188970360E+01  0.46090890355E+00  0.87537910373E+01  0.51100000000E-03 0. -1.
        -11    1    3    3    0    0 -0.22587578502E+02 -0.21392951235E+02 -0.99667080479E+01  0.32667909861E+02  0.51100000000E-03 0.  1.
         12    1    3    3    0    0  0.10501637681E+02  0.28020680784E+02 -0.82480405416E+01  0.31039863376E+02  0.00000000000E+00 0. -1.
</event>
<event>
 7    1  0.2655561E-013  0.7246153E+02  0.7816164E-02  0.1226708E+00
        -11   -1    0    0    0    0  0.00000000000E+00  0.00000000000E+00  0.45593999997E+02  0.45594000000E+02  0.51100000000E-03 0. -1.
         11   -1    0    0    0    0 -0.00000000000E+00 -0.00000000000E+00 -0.45593999997E+02  0.45594000000E+02  0.51100000000E-03 0.  1.
    9900012    2    1    2    0    0 -0.11257609589E+02 -0.51758050044E+01 -0.14041291272E+02  0.72461532322E+02  0.69999950534E+02 0.  0.
        -12    1    1    2    0    0  0.11257609589E+02  0.51758050044E+01  0.14041291272E+02  0.18726467678E+02  0.00000000000E+00 0.  1.
         11    1    3    3    0    0 -0.11865411278E+02  0.17569134228E+02  0.69052910278E+01  0.22296760006E+02  0.51100000000E-03 0. -1.
        -11    1    3    3    0    0 -0.12423052799E+02  0.56550809639E+01 -0.10489512210E+02  0.17214588238E+02  0.51100000000E-03 0.  1.
        -12    1    3    3    0    0  0.13030854488E+02 -0.28400020197E+02 -0.10457070090E+02  0.32950184078E+02  0.00000000000E+00 0.  1.
</event>
<event>
 7    1  0.2655561E-013  0.7246158E+02  0.7816164E-02  0.1226708E+00
        -11   -1    0    0    0    0  0.00000000000E+00  0.00000000000E+00  0.45593999997E+02  0.45594000000E+02  0.51100000000E-03 0. -1.
         11   -1    0    0    0    0 -0.00000000000E+00 -0.00000000000E+00 -0.45593999997E+02  0.45594000000E+02  0.51100000000E-03 0.  1.
    9900012    2    1    2    0    0  0.69129075796E+01  0.15938148286E+02 -0.69904276466E+01  0.72461576405E+02  0.70000007960E+02 0.  0.
        -12    1    1    2    0    0 -0.69129075796E+01 -0.15938148286E+02  0.69904276466E+01  0.18726423595E+02  0.00000000000E+00 0.  1.
         11    1    3    3    0    0 -0.44298455658E+01  0.11317216624E+02  0.76644686881E+01  0.14368263792E+02  0.51100000000E-03 0. -1.
        -11    1    3    3    0    0  0.95102629289E+01  0.28215596687E+02 -0.17042252430E+02  0.34307482647E+02  0.51100000000E-03 0.  1.
         12    1    3    3    0    0  0.18324902165E+01 -0.23594665026E+02  0.23873560951E+01  0.23785829966E+02  0.00000000000E+00 0. -1.
</event>
<event>
 7    1  0.2655561E-013  0.7246153E+02  0.7816164E-02  0.1226708E+00
        -11   -1    0    0    0    0  0.00000000000E+00  0.00000000000E+00  0.45593999997E+02  0.45594000000E+02  0.51100000000E-03 0.  1.
         11   -1    0    0    0    0 -0.00000000000E+00 -0.00000000000E+00 -0.45593999997E+02  0.45594000000E+02  0.51100000000E-03 0. -1.
    9900012    2    1    2    0    0 -0.86826706280E+00 -0.11226191452E+02 -0.14963266619E+02  0.72461531830E+02  0.69999949892E+02 0.  0.
        -12    1    1    2    0    0  0.86826706280E+00  0.11226191452E+02  0.14963266619E+02  0.18726468170E+02  0.00000000000E+00 0.  1.
         11    1    3    3    0    0  0.70059264670E+00  0.19838948382E+01 -0.25302369481E+02  0.25389694177E+02  0.51100000000E-03 0. -1.
        -11    1    3    3    0    0 -0.17112230147E+02  0.36533789702E+01 -0.64504080502E+01  0.18648950716E+02  0.51100000000E-03 0.  1.
         12    1    3    3    0    0  0.15543370438E+02 -0.16863465261E+02  0.16789510912E+02  0.28422886937E+02  0.00000000000E+00 0. -1.
</event>
<event>
 7    1  0.2655561E-013  0.7246179E+02  0.7816164E-02  0.1226707E+00
        -11   -1    0    0    0    0  0.00000000000E+00  0.00000000000E+00  0.45593999997E+02  0.45594000000E+02  0.51100000000E-03 0.  1.
         11   -1    0    0    0    0 -0.00000000000E+00 -0.00000000000E+00 -0.45593999997E+02  0.45594000000E+02  0.51100000000E-03 0. -1.
    9900012    2    1    2    0    0  0.64902310536E+01 -0.17319049280E+02  0.29322749259E+01  0.72461793675E+02  0.70000290994E+02 0.  0.
        -12    1    1    2    0    0 -0.64902310536E+01  0.17319049280E+02 -0.29322749259E+01  0.18726206325E+02  0.00000000000E+00 0.  1.
         11    1    3    3    0    0  0.19798114192E+02 -0.62368504177E+01  0.11109073561E+02  0.23543048748E+02  0.51100000000E-03 0. -1.
        -11    1    3    3    0    0 -0.70069063711E+01  0.14012624997E+02  0.88033164831E+01  0.17970775653E+02  0.51100000000E-03 0.  1.
        -12    1    3    3    0    0 -0.63009767676E+01 -0.25094823859E+02 -0.16980115118E+02  0.30947969274E+02  0.00000000000E+00 0.  1.
</event>
<event>
 7    1  0.2655561E-013  0.7246163E+02  0.7816164E-02  0.1226708E+00
        -11   -1    0    0    0    0  0.00000000000E+00  0.00000000000E+00  0.45593999997E+02  0.45594000000E+02  0.51100000000E-03 0. -1.
         11   -1    0    0    0    0 -0.00000000000E+00 -0.00000000000E+00 -0.45593999997E+02  0.45594000000E+02  0.51100000000E-03 0.  1.
    9900012    2    1    2    0    0  0.61468872558E+01 -0.17536067854E+02  0.23192843559E+01  0.72461628791E+02  0.70000076203E+02 0.  0.
        -12    1    1    2    0    0 -0.61468872558E+01  0.17536067854E+02 -0.23192843559E+01  0.18726371209E+02  0.00000000000E+00 0.  1.
         11    1    3    3    0    0  0.25737336002E+02 -0.10381430570E+02  0.41343447411E+01  0.28058463462E+02  0.51100000000E-03 0. -1.
        -11    1    3    3    0    0  0.11093443142E+02  0.11786146884E+01  0.44247254579E+01  0.12001325301E+02  0.51100000000E-03 0.  1.
        -12    1    3    3    0    0 -0.30683891889E+02 -0.83332519723E+01 -0.62397858432E+01  0.32401840028E+02  0.00000000000E+00 0.  1.
</event>
<event>
 7    1  0.2655561E-013  0.7246157E+02  0.7816164E-02  0.1226708E+00
        -11   -1    0    0    0    0  0.00000000000E+00  0.00000000000E+00  0.45593999997E+02  0.45594000000E+02  0.51100000000E-03 0.  1.
         11   -1    0    0    0    0 -0.00000000000E+00 -0.00000000000E+00 -0.45593999997E+02  0.45594000000E+02  0.51100000000E-03 0. -1.
    9900012    2    1    2    0    0 -0.83070573736E+01 -0.16273514452E+02 -0.41042353540E+01  0.72461568875E+02  0.69999998151E+02 0.  0.
        -12    1    1    2    0    0  0.83070573736E+01  0.16273514452E+02  0.41042353540E+01  0.18726431125E+02  0.00000000000E+00 0.  1.
         11    1    3    3    0    0  0.95026857645E+01  0.78187876538E+01 -0.17752120284E+01  0.12433256014E+02  0.51100000000E-03 0. -1.
        -11    1    3    3    0    0  0.63247004792E+01  0.13592768448E+02 -0.29185547062E+01  0.15273609660E+02  0.51100000000E-03 0.  1.
         12    1    3    3    0    0 -0.24134443617E+02 -0.37685070553E+02  0.58953138061E+00  0.44754703201E+02  0.00000000000E+00 0. -1.
</event>
<event>
 7    1  0.2655561E-013  0.7246155E+02  0.7816164E-02  0.1226708E+00
        -11   -1    0    0    0    0  0.00000000000E+00  0.00000000000E+00  0.45593999997E+02  0.45594000000E+02  0.51100000000E-03 0. -1.
         11   -1    0    0    0    0 -0.00000000000E+00 -0.00000000000E+00 -0.45593999997E+02  0.45594000000E+02  0.51100000000E-03 0.  1.
    9900012    2    1    2    0    0 -0.13675329828E+02  0.99389525645E+01  0.80549762672E+01  0.72461546341E+02  0.69999968796E+02 0.  0.
        -12    1    1    2    0    0  0.13675329828E+02 -0.99389525645E+01 -0.80549762672E+01  0.18726453659E+02  0.00000000000E+00 0.  1.
         11    1    3    3    0    0 -0.38867092683E+01  0.25577888278E+02 -0.16377400711E+01  0.25923292046E+02  0.51100000000E-03 0.  1.
        -11    1    3    3    0    0 -0.18464457932E+02  0.67795515403E+01 -0.20655988987E+01  0.19777897383E+02  0.51100000000E-03 0. -1.
         12    1    3    3    0    0  0.86758373723E+01 -0.22418487254E+02  0.11758315237E+02  0.26760356912E+02  0.00000000000E+00 0. -1.
</event>
<event>
 7    1  0.2655561E-013  0.7246155E+02  0.7816164E-02  0.1226708E+00
        -11   -1    0    0    0    0  0.00000000000E+00  0.00000000000E+00  0.45593999997E+02  0.45594000000E+02  0.51100000000E-03 0. -1.
         11   -1    0    0    0    0 -0.00000000000E+00 -0.00000000000E+00 -0.45593999997E+02  0.45594000000E+02  0.51100000000E-03 0.  1.
    9900012    2    1    2    0    0 -0.86349187005E+00 -0.15835771987E+02  0.99580440069E+01  0.72461549907E+02  0.69999973442E+02 0.  0.
        -12    1    1    2    0    0  0.86349187005E+00  0.15835771987E+02 -0.99580440069E+01  0.18726450093E+02  0.00000000000E+00 0.  1.
         11    1    3    3    0    0  0.83835620501E+01  0.11762118537E+02 -0.69300979115E+01  0.16020543139E+02  0.51100000000E-03 0.  1.
        -11    1    3    3    0    0  0.89270045745E+01  0.34900965372E+01  0.18022273343E+02  0.20412606919E+02  0.51100000000E-03 0. -1.
         12    1    3    3    0    0 -0.18174058495E+02 -0.31087987061E+02 -0.11341314243E+01  0.36028399850E+02  0.00000000000E+00 0. -1.
</event>
<event>
 7    1  0.2655561E-013  0.7246158E+02  0.7816164E-02  0.1226708E+00
        -11   -1    0    0    0    0  0.00000000000E+00  0.00000000000E+00  0.45593999997E+02  0.45594000000E+02  0.51100000000E-03 0.  1.
         11   -1    0    0    0    0 -0.00000000000E+00 -0.00000000000E+00 -0.45593999997E+02  0.45594000000E+02  0.51100000000E-03 0. -1.
    9900012    2    1    2    0    0 -0.51744470090E+01 -0.10597032905E+02 -0.14546714648E+02  0.72461577082E+02  0.70000008843E+02 0.  0.
        -12    1    1    2    0    0  0.51744470090E+01  0.10597032905E+02  0.14546714648E+02  0.18726422918E+02  0.00000000000E+00 0.  1.
         11    1    3    3    0    0 -0.17788662884E+02 -0.57857907442E+01 -0.19664231602E+02  0.27140263567E+02  0.51100000000E-03 0. -1.
        -11    1    3    3    0    0 -0.11992908667E+02  0.38188016255E+01 -0.91837022386E+01  0.15580548489E+02  0.51100000000E-03 0.  1.
        -12    1    3    3    0    0  0.24607124542E+02 -0.86300437866E+01  0.14301219193E+02  0.29740765027E+02  0.00000000000E+00 0.  1.
</event>
<event>
 7    1  0.2655561E-013  0.7246156E+02  0.7816164E-02  0.1226708E+00
        -11   -1    0    0    0    0  0.00000000000E+00  0.00000000000E+00  0.45593999997E+02  0.45594000000E+02  0.51100000000E-03 0. -1.
         11   -1    0    0    0    0 -0.00000000000E+00 -0.00000000000E+00 -0.45593999997E+02  0.45594000000E+02  0.51100000000E-03 0.  1.
    9900012    2    1    2    0    0  0.13726294857E+02  0.11904020753E+02 -0.45346118764E+01  0.72461559189E+02  0.69999985533E+02 0.  0.
        -12    1    1    2    0    0 -0.13726294857E+02 -0.11904020753E+02  0.45346118764E+01  0.18726440811E+02  0.00000000000E+00 0.  1.
         11    1    3    3    0    0 -0.16216167759E+01 -0.11170682743E+02 -0.47531646381E+01  0.12247708694E+02  0.51100000000E-03 0.  1.
        -11    1    3    3    0    0  0.20965229250E+02  0.35886454414E+02  0.10482440361E+02  0.42863271039E+02  0.51100000000E-03 0. -1.
         12    1    3    3    0    0 -0.56173176172E+01 -0.12811750919E+02 -0.10263887600E+02  0.17350579456E+02  0.00000000000E+00 0. -1.
</event>
<event>
 7    1  0.2655561E-013  0.7246160E+02  0.7816164E-02  0.1226708E+00
        -11   -1    0    0    0    0  0.00000000000E+00  0.00000000000E+00  0.45593999997E+02  0.45594000000E+02  0.51100000000E-03 0.  1.
         11   -1    0    0    0    0 -0.00000000000E+00 -0.00000000000E+00 -0.45593999997E+02  0.45594000000E+02  0.51100000000E-03 0. -1.
    9900012    2    1    2    0    0 -0.21459374733E+01  0.27939061863E+01 -0.18392043674E+02  0.72461595382E+02  0.70000032681E+02 0.  0.
        -12    1    1    2    0    0  0.21459374733E+01 -0.27939061863E+01  0.18392043674E+02  0.18726404618E+02  0.00000000000E+00 0.  1.
         11    1    3    3    0    0  0.14643278966E+02  0.19931554054E+02  0.65085779744E+01  0.25574480511E+02  0.51100000000E-03 0. -1.
        -11    1    3    3    0    0 -0.10708923499E+02 -0.22503101323E+01  0.56851324786E+01  0.12331490978E+02  0.51100000000E-03 0.  1.
         12    1    3    3    0    0 -0.60802929405E+01 -0.14887337736E+02 -0.30585754127E+02  0.34555623893E+02  0.00000000000E+00 0. -1.
</event>
<event>
 7    1  0.2655561E-013  0.7246155E+02  0.7816164E-02  0.1226708E+00
        -11   -1    0    0    0    0  0.00000000000E+00  0.00000000000E+00  0.45593999997E+02  0.45594000000E+02  0.51100000000E-03 0.  1.
         11   -1    0    0    0    0 -0.00000000000E+00 -0.00000000000E+00 -0.45593999997E+02  0.45594000000E+02  0.51100000000E-03 0. -1.
    9900012    2    1    2    0    0 -0.16846490246E+02  0.29092827680E+01 -0.76427683174E+01  0.72461546321E+02  0.69999968770E+02 0.  0.
        -12    1    1    2    0    0  0.16846490246E+02 -0.29092827680E+01  0.76427683174E+01  0.18726453679E+02  0.00000000000E+00 0.  1.
         11    1    3    3    0    0 -0.53931514861E+01  0.17998008501E-01 -0.11237902819E+02  0.12465025748E+02  0.51100000000E-03 0. -1.
        -11    1    3    3    0    0 -0.17309229811E+01  0.28582748372E+02 -0.86617790213E+01  0.29916484000E+02  0.51100000000E-03 0.  1.
        -12    1    3    3    0    0 -0.97224157790E+01 -0.25691463612E+02  0.12256913523E+02  0.30080036573E+02  0.00000000000E+00 0.  1.
</event>
<event>
 7    1  0.2655561E-013  0.7246170E+02  0.7816164E-02  0.1226708E+00
        -11   -1    0    0    0    0  0.00000000000E+00  0.00000000000E+00  0.45593999997E+02  0.45594000000E+02  0.51100000000E-03 0.  1.
         11   -1    0    0    0    0 -0.00000000000E+00 -0.00000000000E+00 -0.45593999997E+02  0.45594000000E+02  0.51100000000E-03 0. -1.
    9900012    2    1    2    0    0 -0.15316867319E+02 -0.10280080237E+02 -0.32230248007E+01  0.72461698630E+02  0.70000167180E+02 0.  0.
        -12    1    1    2    0    0  0.15316867319E+02  0.10280080237E+02  0.32230248007E+01  0.18726301370E+02  0.00000000000E+00 0.  1.
         11    1    3    3    0    0  0.83536126530E+01 -0.57116889826E+01  0.84748461910E+01  0.13199592934E+02  0.51100000000E-03 0. -1.
        -11    1    3    3    0    0 -0.87534903472E+01 -0.12857081916E+02  0.18747810467E+02  0.24359978371E+02  0.51100000000E-03 0.  1.
        -12    1    3    3    0    0 -0.14916989625E+02  0.82886906614E+01 -0.30445681459E+02  0.34902127325E+02  0.00000000000E+00 0.  1.
</event>
<event>
 7    1  0.2655561E-013  0.7246142E+02  0.7816164E-02  0.1226708E+00
        -11   -1    0    0    0    0  0.00000000000E+00  0.00000000000E+00  0.45593999997E+02  0.45594000000E+02  0.51100000000E-03 0. -1.
         11   -1    0    0    0    0 -0.00000000000E+00 -0.00000000000E+00 -0.45593999997E+02  0.45594000000E+02  0.51100000000E-03 0.  1.
    9900012    2    1    2    0    0  0.16061500092E+02  0.91571730194E+01  0.29764549310E+01  0.72461417640E+02  0.69999801139E+02 0.  0.
        -12    1    1    2    0    0 -0.16061500092E+02 -0.91571730194E+01 -0.29764549310E+01  0.18726582360E+02  0.00000000000E+00 0.  1.
         11    1    3    3    0    0 -0.70286886594E+01 -0.67029905091E+01  0.87121324542E+00  0.97514900819E+01  0.51100000000E-03 0. -1.
        -11    1    3    3    0    0 -0.17071444855E+02  0.13746451810E+02 -0.31778618075E+01  0.22147188823E+02  0.51100000000E-03 0.  1.
        -12    1    3    3    0    0  0.40161633607E+02  0.21137117183E+01  0.52831034931E+01  0.40562738736E+02  0.00000000000E+00 0.  1.
</event>
<event>
 7    1  0.2655561E-013  0.7246155E+02  0.7816164E-02  0.1226708E+00
        -11   -1    0    0    0    0  0.00000000000E+00  0.00000000000E+00  0.45593999997E+02  0.45594000000E+02  0.51100000000E-03 0. -1.
         11   -1    0    0    0    0 -0.00000000000E+00 -0.00000000000E+00 -0.45593999997E+02  0.45594000000E+02  0.51100000000E-03 0.  1.
    9900012    2    1    2    0    0 -0.17214045502E+02 -0.49074373758E+01 -0.55021436075E+01  0.72461551100E+02  0.69999974995E+02 0.  0.
        -12    1    1    2    0    0  0.17214045502E+02  0.49074373758E+01  0.55021436075E+01  0.18726448900E+02  0.00000000000E+00 0.  1.
         11    1    3    3    0    0 -0.15336756101E+02  0.19305932939E+02  0.85470861153E+01  0.26095743248E+02  0.51100000000E-03 0. -1.
        -11    1    3    3    0    0  0.12197425284E+02 -0.57488511649E+01  0.68529756350E+01  0.15125797453E+02  0.51100000000E-03 0.  1.
        -12    1    3    3    0    0 -0.14074714685E+02 -0.18464519150E+02 -0.20902205358E+02  0.31240010399E+02  0.00000000000E+00 0.  1.
</event>
<event>
 7    1  0.2655561E-013  0.7246155E+02  0.7816164E-02  0.1226708E+00
        -11   -1    0    0    0    0  0.00000000000E+00  0.00000000000E+00  0.45593999997E+02  0.45594000000E+02  0.51100000000E-03 0.  1.
         11   -1    0    0    0    0 -0.00000000000E+00 -0.00000000000E+00 -0.45593999997E+02  0.45594000000E+02  0.51100000000E-03 0. -1.
    9900012    2    1    2    0    0  0.27709089034E+01 -0.99947275578E+01 -0.15591900494E+02  0.72461551428E+02  0.69999975423E+02 0.  0.
        -12    1    1    2    0    0 -0.27709089034E+01  0.99947275578E+01  0.15591900494E+02  0.18726448572E+02  0.00000000000E+00 0.  1.
         11    1    3    3    0    0 -0.32316630209E+01 -0.18044801852E+01  0.27074788709E+00  0.37112126453E+01  0.51100000000E-03 0. -1.
        -11    1    3    3    0    0  0.25631606050E+02 -0.23935592542E+02  0.58005558007E+01  0.35546283448E+02  0.51100000000E-03 0.  1.
         12    1    3    3    0    0 -0.19629034126E+02  0.15745345170E+02 -0.21663204182E+02  0.33204055335E+02  0.00000000000E+00 0. -1.
</event>
<event>
 7    1  0.2655561E-013  0.7246157E+02  0.7816164E-02  0.1226708E+00
        -11   -1    0    0    0    0  0.00000000000E+00  0.00000000000E+00  0.45593999997E+02  0.45594000000E+02  0.51100000000E-03 0.  1.
         11   -1    0    0    0    0 -0.00000000000E+00 -0.00000000000E+00 -0.45593999997E+02  0.45594000000E+02  0.51100000000E-03 0. -1.
    9900012    2    1    2    0    0  0.13306383383E+02  0.10350210056E+02 -0.81542970092E+01  0.72461568234E+02  0.69999997317E+02 0.  0.
        -12    1    1    2    0    0 -0.13306383383E+02 -0.10350210056E+02  0.81542970092E+01  0.18726431766E+02  0.00000000000E+00 0.  1.
         11    1    3    3    0    0 -0.83130676261E+01  0.15601506388E+02  0.61501385604E+00  0.17688763022E+02  0.51100000000E-03 0. -1.
        -11    1    3    3    0    0 -0.74670923396E+01  0.16206232426E+02 -0.15222734430E+01  0.17908566502E+02  0.51100000000E-03 0.  1.
         12    1    3    3    0    0  0.29086543349E+02 -0.21457528757E+02 -0.72470374222E+01  0.36864238711E+02  0.00000000000E+00 0. -1.
</event>
<event>
 7    1  0.2655561E-013  0.7246153E+02  0.7816164E-02  0.1226708E+00
        -11   -1    0    0    0    0  0.00000000000E+00  0.00000000000E+00  0.45593999997E+02  0.45594000000E+02  0.51100000000E-03 0. -1.
         11   -1    0    0    0    0 -0.00000000000E+00 -0.00000000000E+00 -0.45593999997E+02  0.45594000000E+02  0.51100000000E-03 0.  1.
    9900012    2    1    2    0    0 -0.67056360463E+01 -0.17127353296E+02 -0.35169215720E+01  0.72461534155E+02  0.69999952922E+02 0.  0.
        -12    1    1    2    0    0  0.67056360463E+01  0.17127353296E+02  0.35169215720E+01  0.18726465845E+02  0.00000000000E+00 0.  1.
         11    1    3    3    0    0 -0.13719386836E+02  0.21380186158E+02 -0.86782967153E+01  0.26844864862E+02  0.51100000000E-03 0. -1.
        -11    1    3    3    0    0 -0.23163438531E+01  0.10165775678E+01 -0.32760475359E+01  0.41390054984E+01  0.51100000000E-03 0.  1.
        -12    1    3    3    0    0  0.93300946426E+01 -0.39524117022E+02  0.84374226793E+01  0.41477663795E+02  0.00000000000E+00 0.  1.
</event>
<event>
 7    1  0.2655561E-013  0.7246140E+02  0.7816164E-02  0.1226708E+00
        -11   -1    0    0    0    0  0.00000000000E+00  0.00000000000E+00  0.45593999997E+02  0.45594000000E+02  0.51100000000E-03 0.  1.
         11   -1    0    0    0    0 -0.00000000000E+00 -0.00000000000E+00 -0.45593999997E+02  0.45594000000E+02  0.51100000000E-03 0. -1.
    9900012    2    1    2    0    0 -0.54451768932E+00  0.18329687817E+02  0.37962624132E+01  0.72461399580E+02  0.69999777612E+02 0.  0.
        -12    1    1    2    0    0  0.54451768932E+00 -0.18329687817E+02 -0.37962624132E+01  0.18726600420E+02  0.00000000000E+00 0.  1.
         11    1    3    3    0    0 -0.62757636058E+01  0.36872176652E+02 -0.12979717648E+00  0.37402666582E+02  0.51100000000E-03 0. -1.
        -11    1    3    3    0    0  0.34085033930E+01 -0.64965283371E+01 -0.12537999185E+02  0.14526672008E+02  0.51100000000E-03 0.  1.
        -12    1    3    3    0    0  0.23227425234E+01 -0.12045960498E+02  0.16464058775E+02  0.20532060990E+02  0.00000000000E+00 0.  1.
</event>
<event>
 7    1  0.4381909E-013  0.7246164E+02  0.7816164E-02  0.1226708E+00
        -11   -1    0    0    0    0  0.00000000000E+00  0.00000000000E+00  0.45593999997E+02  0.45594000000E+02  0.51100000000E-03 0. -1.
         11   -1    0    0    0    0 -0.00000000000E+00 -0.00000000000E+00 -0.45593999997E+02  0.45594000000E+02  0.51100000000E-03 0.  1.
    9900012    2    1    2    0    0  0.65947229421E+01  0.54123942271E+01  0.16670098045E+02  0.72461640215E+02  0.70000091085E+02 0.  0.
        -12    1    1    2    0    0 -0.65947229421E+01 -0.54123942271E+01 -0.16670098045E+02  0.18726359785E+02  0.00000000000E+00 0.  1.
         11    1    3    3    0    0 -0.20800252588E+02  0.60155664011E+01  0.25556640437E+02  0.33495961212E+02  0.51100000000E-03 0. -1.
        -11    1    3    3    0    0  0.83692623795E+01  0.11445582278E+02 -0.83173341881E+01  0.16438490037E+02  0.51100000000E-03 0.  1.
        -12    1    3    3    0    0  0.19025713150E+02 -0.12048754452E+02 -0.56920820313E+00  0.22527188966E+02  0.00000000000E+00 0.  1.
</event>
<event>
 7    1  0.3020939E-013  0.7246158E+02  0.7816164E-02  0.1226708E+00
        -11   -1    0    0    0    0  0.00000000000E+00  0.00000000000E+00  0.45593999997E+02  0.45594000000E+02  0.51100000000E-03 0.  1.
         11   -1    0    0    0    0 -0.00000000000E+00 -0.00000000000E+00 -0.45593999997E+02  0.45594000000E+02  0.51100000000E-03 0. -1.
    9900012    2    1    2    0    0 -0.65091431259E+00  0.15373674262E+02 -0.10672645805E+02  0.72461577003E+02  0.70000008740E+02 0.  0.
        -12    1    1    2    0    0  0.65091431259E+00 -0.15373674262E+02  0.10672645805E+02  0.18726422997E+02  0.00000000000E+00 0.  1.
         11    1    3    3    0    0  0.21213789032E+01  0.12478999794E+02 -0.23680191760E+02  0.26851017977E+02  0.51100000000E-03 0. -1.
        -11    1    3    3    0    0  0.76757386568E+01  0.28012614924E+01 -0.14245923664E+02  0.16422861236E+02  0.51100000000E-03 0.  1.
        -12    1    3    3    0    0 -0.10448031873E+02  0.93412975684E-01  0.27253469620E+02  0.29187697790E+02  0.00000000000E+00 0.  1.
</event>
<event>
 7    1  0.2655561E-013  0.7246157E+02  0.7816164E-02  0.1226708E+00
        -11   -1    0    0    0    0  0.00000000000E+00  0.00000000000E+00  0.45593999997E+02  0.45594000000E+02  0.51100000000E-03 0.  1.
         11   -1    0    0    0    0 -0.00000000000E+00 -0.00000000000E+00 -0.45593999997E+02  0.45594000000E+02  0.51100000000E-03 0. -1.
    9900012    2    1    2    0    0 -0.11935385449E+02  0.12072786846E+02 -0.79040210717E+01  0.72461570625E+02  0.70000000431E+02 0.  0.
        -12    1    1    2    0    0  0.11935385449E+02 -0.12072786846E+02  0.79040210717E+01  0.18726429375E+02  0.00000000000E+00 0.  1.
         11    1    3    3    0    0  0.62588275147E+01  0.15857926474E+02  0.11361327253E+01  0.17086180139E+02  0.51100000000E-03 0. -1.
        -11    1    3    3    0    0 -0.25638264152E+02 -0.78019050125E+01 -0.25421964757E+02  0.36938687077E+02  0.51100000000E-03 0.  1.
         12    1    3    3    0    0  0.74440511883E+01  0.40167653840E+01  0.16381810961E+02  0.18436703409E+02  0.00000000000E+00 0. -1.
</event>
<event>
 7    1  0.2655561E-013  0.7246156E+02  0.7816164E-02  0.1226708E+00
        -11   -1    0    0    0    0  0.00000000000E+00  0.00000000000E+00  0.45593999997E+02  0.45594000000E+02  0.51100000000E-03 0. -1.
         11   -1    0    0    0    0 -0.00000000000E+00 -0.00000000000E+00 -0.45593999997E+02  0.45594000000E+02  0.51100000000E-03 0.  1.
    9900012    2    1    2    0    0  0.67443858415E+01  0.44598876957E+01  0.16890891513E+02  0.72461560009E+02  0.69999986601E+02 0.  0.
        -12    1    1    2    0    0 -0.67443858415E+01 -0.44598876957E+01 -0.16890891513E+02  0.18726439991E+02  0.00000000000E+00 0.  1.
         11    1    3    3    0    0 -0.21270527754E+02  0.17660667195E+01  0.78509849387E+01  0.22741862442E+02  0.51100000000E-03 0. -1.
        -11    1    3    3    0    0  0.62937068854E+01  0.14958243544E+02 -0.93499475245E+01  0.18729156822E+02  0.51100000000E-03 0.  1.
         12    1    3    3    0    0  0.21721206710E+02 -0.12264422568E+02  0.18389854099E+02  0.30990540744E+02  0.00000000000E+00 0. -1.
</event>
<event>
 7    1  0.2655561E-013  0.7246154E+02  0.7816164E-02  0.1226708E+00
        -11   -1    0    0    0    0  0.00000000000E+00  0.00000000000E+00  0.45593999997E+02  0.45594000000E+02  0.51100000000E-03 0.  1.
         11   -1    0    0    0    0 -0.00000000000E+00 -0.00000000000E+00 -0.45593999997E+02  0.45594000000E+02  0.51100000000E-03 0. -1.
    9900012    2    1    2    0    0 -0.14857898592E+02  0.71422631120E+00 -0.11375990978E+02  0.72461536358E+02  0.69999955792E+02 0.  0.
        -12    1    1    2    0    0  0.14857898592E+02 -0.71422631120E+00  0.11375990978E+02  0.18726463642E+02  0.00000000000E+00 0.  1.
         11    1    3    3    0    0 -0.15465411665E+01 -0.53111820314E+01  0.83733082571E+01  0.10035573505E+02  0.51100000000E-03 0.  1.
        -11    1    3    3    0    0 -0.89888580744E+01 -0.23641970902E+02 -0.20312912094E+02  0.32440048638E+02  0.51100000000E-03 0. -1.
         12    1    3    3    0    0 -0.43224993510E+01  0.29667379244E+02  0.56361285879E+00  0.29985914215E+02  0.00000000000E+00 0. -1.
</event>
<event>
 7    1  0.2655561E-013  0.7246160E+02  0.7816164E-02  0.1226708E+00
        -11   -1    0    0    0    0  0.00000000000E+00  0.00000000000E+00  0.45593999997E+02  0.45594000000E+02  0.51100000000E-03 0.  1.
         11   -1    0    0    0    0 -0.00000000000E+00 -0.00000000000E+00 -0.45593999997E+02  0.45594000000E+02  0.51100000000E-03 0. -1.
    9900012    2    1    2    0    0 -0.17452838642E+01 -0.73842928245E+01 -0.17120290519E+02  0.72461597683E+02  0.70000035679E+02 0.  0.
        -12    1    1    2    0    0  0.17452838642E+01  0.73842928245E+01  0.17120290519E+02  0.18726402317E+02  0.00000000000E+00 0.  1.
         11    1    3    3    0    0 -0.20253791390E+02 -0.15815833724E+02 -0.20126125267E+02  0.32640734988E+02  0.51100000000E-03 0. -1.
        -11    1    3    3    0    0  0.25177647268E+00 -0.85966818550E+01  0.10670941707E+02  0.13705302896E+02  0.51100000000E-03 0.  1.
         12    1    3    3    0    0  0.18256731053E+02  0.17028222754E+02 -0.76651069587E+01  0.26115559799E+02  0.00000000000E+00 0. -1.
</event>
<event>
 7    1  0.2655561E-013  0.7246152E+02  0.7816164E-02  0.1226708E+00
        -11   -1    0    0    0    0  0.00000000000E+00  0.00000000000E+00  0.45593999997E+02  0.45594000000E+02  0.51100000000E-03 0.  1.
         11   -1    0    0    0    0 -0.00000000000E+00 -0.00000000000E+00 -0.45593999997E+02  0.45594000000E+02  0.51100000000E-03 0. -1.
    9900012    2    1    2    0    0  0.17074212838E+02 -0.75115007017E+01  0.16521152823E+01  0.72461524845E+02  0.69999940794E+02 0.  0.
        -12    1    1    2    0    0 -0.17074212838E+02  0.75115007017E+01 -0.16521152823E+01  0.18726475155E+02  0.00000000000E+00 0.  1.
         11    1    3    3    0    0  0.93284179079E+01  0.10266256763E+02 -0.30124261795E+01  0.14194721566E+02  0.51100000000E-03 0. -1.
        -11    1    3    3    0    0  0.31219281483E+02 -0.10065408055E+02 -0.13778692231E+01  0.32830694472E+02  0.51100000000E-03 0.  1.
         12    1    3    3    0    0 -0.23473486553E+02 -0.77123494098E+01  0.60424106849E+01  0.25436108807E+02  0.00000000000E+00 0. -1.
</event>
<event>
 7    1  0.2655561E-013  0.7246173E+02  0.7816164E-02  0.1226708E+00
        -11   -1    0    0    0    0  0.00000000000E+00  0.00000000000E+00  0.45593999997E+02  0.45594000000E+02  0.51100000000E-03 0. -1.
         11   -1    0    0    0    0 -0.00000000000E+00 -0.00000000000E+00 -0.45593999997E+02  0.45594000000E+02  0.51100000000E-03 0.  1.
    9900012    2    1    2    0    0 -0.53048674477E+01 -0.15000374783E+02 -0.98752305521E+01  0.72461733935E+02  0.70000213172E+02 0.  0.
        -12    1    1    2    0    0  0.53048674477E+01  0.15000374783E+02  0.98752305521E+01  0.18726266065E+02  0.00000000000E+00 0.  1.
         11    1    3    3    0    0 -0.23537344474E+02  0.20196405511E+01 -0.24394022619E+02  0.33958119392E+02  0.51100000000E-03 0. -1.
        -11    1    3    3    0    0  0.42477270343E+01 -0.38955931971E+01 -0.73993883446E+01  0.93792206206E+01  0.51100000000E-03 0.  1.
         12    1    3    3    0    0  0.13984749992E+02 -0.13124422138E+02  0.21918180411E+02  0.29124393922E+02  0.00000000000E+00 0. -1.
</event>
<event>
 7    1  0.2655561E-013  0.7246154E+02  0.7816164E-02  0.1226708E+00
        -11   -1    0    0    0    0  0.00000000000E+00  0.00000000000E+00  0.45593999997E+02  0.45594000000E+02  0.51100000000E-03 0. -1.
         11   -1    0    0    0    0 -0.00000000000E+00 -0.00000000000E+00 -0.45593999997E+02  0.45594000000E+02  0.51100000000E-03 0.  1.
    9900012    2    1    2    0    0  0.18282626007E+02  0.22522546732E+01  0.33694593514E+01  0.72461539545E+02  0.69999959944E+02 0.  0.
        -12    1    1    2    0    0 -0.18282626007E+02 -0.22522546732E+01 -0.33694593514E+01  0.18726460455E+02  0.00000000000E+00 0.  1.
         11    1    3    3    0    0  0.18684351348E+02 -0.61175153411E+00 -0.68268192861E+01  0.19901876471E+02  0.51100000000E-03 0. -1.
        -11    1    3    3    0    0 -0.25629536466E+01  0.14929066370E+02 -0.16975573271E+02  0.22751172327E+02  0.51100000000E-03 0.  1.
         12    1    3    3    0    0  0.21612283057E+01 -0.12065060163E+02  0.27171851909E+02  0.29808490748E+02  0.00000000000E+00 0. -1.
</event>
<event>
 7    1  0.2655561E-013  0.7246158E+02  0.7816164E-02  0.1226708E+00
        -11   -1    0    0    0    0  0.00000000000E+00  0.00000000000E+00  0.45593999997E+02  0.45594000000E+02  0.51100000000E-03 0.  1.
         11   -1    0    0    0    0 -0.00000000000E+00 -0.00000000000E+00 -0.45593999997E+02  0.45594000000E+02  0.51100000000E-03 0. -1.
    9900012    2    1    2    0    0  0.25690830608E+01  0.41378073511E+01 -0.18081957262E+02  0.72461579737E+02  0.70000012301E+02 0.  0.
        -12    1    1    2    0    0 -0.25690830608E+01 -0.41378073511E+01  0.18081957262E+02  0.18726420263E+02  0.00000000000E+00 0.  1.
         11    1    3    3    0    0  0.21901367287E+02 -0.10355270274E+02 -0.25638634945E+02  0.35273802086E+02  0.51100000000E-03 0. -1.
        -11    1    3    3    0    0  0.35969801672E+01  0.43800697885E+01 -0.63628653933E+01  0.85211110748E+01  0.51100000000E-03 0.  1.
        -12    1    3    3    0    0 -0.22929264394E+02  0.10113007836E+02  0.13919543077E+02  0.28666666576E+02  0.00000000000E+00 0.  1.
</event>
<event>
 7    1  0.2655561E-013  0.7246159E+02  0.7816164E-02  0.1226708E+00
        -11   -1    0    0    0    0  0.00000000000E+00  0.00000000000E+00  0.45593999997E+02  0.45594000000E+02  0.51100000000E-03 0.  1.
         11   -1    0    0    0    0 -0.00000000000E+00 -0.00000000000E+00 -0.45593999997E+02  0.45594000000E+02  0.51100000000E-03 0. -1.
    9900012    2    1    2    0    0  0.47301551372E+01  0.81223214736E+01 -0.16196665011E+02  0.72461590007E+02  0.70000025679E+02 0.  0.
        -12    1    1    2    0    0 -0.47301551372E+01 -0.81223214736E+01  0.16196665011E+02  0.18726409993E+02  0.00000000000E+00 0.  1.
         11    1    3    3    0    0 -0.98958500525E+01  0.52668716185E+01  0.55743283613E+01  0.12519621474E+02  0.51100000000E-03 0. -1.
        -11    1    3    3    0    0 -0.83713409935E+01 -0.15480218654E+02  0.68666283655E+01  0.18890926525E+02  0.51100000000E-03 0.  1.
         12    1    3    3    0    0  0.22997346183E+02  0.18335668509E+02 -0.28637621738E+02  0.41051042008E+02  0.00000000000E+00 0. -1.
</event>
<event>
 7    1  0.2655561E-013  0.7246154E+02  0.7816164E-02  0.1226708E+00
        -11   -1    0    0    0    0  0.00000000000E+00  0.00000000000E+00  0.45593999997E+02  0.45594000000E+02  0.51100000000E-03 0. -1.
         11   -1    0    0    0    0 -0.00000000000E+00 -0.00000000000E+00 -0.45593999997E+02  0.45594000000E+02  0.51100000000E-03 0.  1.
    9900012    2    1    2    0    0 -0.10956704898E+02 -0.12434430979E+02  0.87187102608E+01  0.72461538385E+02  0.69999958432E+02 0.  0.
        -12    1    1    2    0    0  0.10956704898E+02  0.12434430979E+02 -0.87187102608E+01  0.18726461615E+02  0.00000000000E+00 0.  1.
         11    1    3    3    0    0 -0.91483473414E+01  0.60984328120E+00 -0.13066970304E+02  0.15962765459E+02  0.51100000000E-03 0. -1.
        -11    1    3    3    0    0  0.16022513151E+02 -0.13862265869E+02 -0.72690135912E+01  0.22399149572E+02  0.51100000000E-03 0.  1.
        -12    1    3    3    0    0 -0.17830870707E+02  0.81799160862E+00  0.29054694156E+02  0.34099623355E+02  0.00000000000E+00 0.  1.
</event>
<event>
 7    1  0.2655561E-013  0.7246155E+02  0.7816164E-02  0.1226708E+00
        -11   -1    0    0    0    0  0.00000000000E+00  0.00000000000E+00  0.45593999997E+02  0.45594000000E+02  0.51100000000E-03 0. -1.
         11   -1    0    0    0    0 -0.00000000000E+00 -0.00000000000E+00 -0.45593999997E+02  0.45594000000E+02  0.51100000000E-03 0.  1.
    9900012    2    1    2    0    0 -0.18457203331E+02  0.15902767790E+01  0.27354612335E+01  0.72461545899E+02  0.69999968221E+02 0.  0.
        -12    1    1    2    0    0  0.18457203331E+02 -0.15902767790E+01 -0.27354612335E+01  0.18726454101E+02  0.00000000000E+00 0.  1.
         11    1    3    3    0    0 -0.19933266147E+01 -0.16295190715E+02  0.97401111822E+01  0.19088644727E+02  0.51100000000E-03 0. -1.
        -11    1    3    3    0    0 -0.12698799961E+02 -0.14215323058E+02 -0.88159886014E+01  0.21001347228E+02  0.51100000000E-03 0.  1.
        -12    1    3    3    0    0 -0.37650767555E+01  0.32100790552E+02  0.18113386527E+01  0.32371553944E+02  0.00000000000E+00 0.  1.
</event>
<event>
 7    1  0.2655561E-013  0.7246157E+02  0.7816164E-02  0.1226708E+00
        -11   -1    0    0    0    0  0.00000000000E+00  0.00000000000E+00  0.45593999997E+02  0.45594000000E+02  0.51100000000E-03 0.  1.
         11   -1    0    0    0    0 -0.00000000000E+00 -0.00000000000E+00 -0.45593999997E+02  0.45594000000E+02  0.51100000000E-03 0. -1.
    9900012    2    1    2    0    0  0.84679828904E+01  0.13773554006E+02 -0.94478350617E+01  0.72461571842E+02  0.70000002016E+02 0.  0.
        -12    1    1    2    0    0 -0.84679828904E+01 -0.13773554006E+02  0.94478350617E+01  0.18726428158E+02  0.00000000000E+00 0.  1.
         11    1    3    3    0    0  0.26159663011E+02  0.10402665586E+02  0.91792272995E+01  0.29610836433E+02  0.51100000000E-03 0. -1.
        -11    1    3    3    0    0 -0.73045931153E+01 -0.99446684046E+01  0.54110548249E+01  0.13473419196E+02  0.51100000000E-03 0.  1.
         12    1    3    3    0    0 -0.10387087006E+02  0.13315556826E+02 -0.24038117186E+02  0.29377316213E+02  0.00000000000E+00 0. -1.
</event>
<event>
 7    1  0.2655561E-013  0.7246155E+02  0.7816164E-02  0.1226708E+00
        -11   -1    0    0    0    0  0.00000000000E+00  0.00000000000E+00  0.45593999997E+02  0.45594000000E+02  0.51100000000E-03 0.  1.
         11   -1    0    0    0    0 -0.00000000000E+00 -0.00000000000E+00 -0.45593999997E+02  0.45594000000E+02  0.51100000000E-03 0. -1.
    9900012    2    1    2    0    0 -0.10686444933E+02 -0.54712668683E+01 -0.14371680406E+02  0.72461546408E+02  0.69999968883E+02 0.  0.
        -12    1    1    2    0    0  0.10686444933E+02  0.54712668683E+01  0.14371680406E+02  0.18726453592E+02  0.00000000000E+00 0.  1.
         11    1    3    3    0    0 -0.18558554523E+02 -0.18596667513E+02 -0.11947404480E+02  0.28861678098E+02  0.51100000000E-03 0. -1.
        -11    1    3    3    0    0  0.26045472765E+01 -0.14841902347E+02 -0.53542804404E+00  0.15078209948E+02  0.51100000000E-03 0.  1.
        -12    1    3    3    0    0  0.52675623140E+01  0.27967302992E+02 -0.18888478828E+01  0.28521658361E+02  0.00000000000E+00 0.  1.
</event>
<event>
 7    1  0.2655561E-013  0.7246153E+02  0.7816164E-02  0.1226708E+00
        -11   -1    0    0    0    0  0.00000000000E+00  0.00000000000E+00  0.45593999997E+02  0.45594000000E+02  0.51100000000E-03 0. -1.
         11   -1    0    0    0    0 -0.00000000000E+00 -0.00000000000E+00 -0.45593999997E+02  0.45594000000E+02  0.51100000000E-03 0.  1.
    9900012    2    1    2    0    0 -0.57457447541E+01  0.13097100514E+02  0.12088547748E+02  0.72461531799E+02  0.69999949852E+02 0.  0.
        -12    1    1    2    0    0  0.57457447541E+01 -0.13097100514E+02 -0.12088547748E+02  0.18726468201E+02  0.00000000000E+00 0.  1.
         11    1    3    3    0    0 -0.24977827790E+02  0.24128714765E+01 -0.11214670029E+02  0.27486044713E+02  0.51100000000E-03 0. -1.
        -11    1    3    3    0    0  0.60124659411E+00 -0.88333807457E+01 -0.67349002819E+00  0.88793976116E+01  0.51100000000E-03 0.  1.
        -12    1    3    3    0    0  0.18630836442E+02  0.19517609783E+02  0.23976707805E+02  0.36096089474E+02  0.00000000000E+00 0.  1.
</event>
<event>
 7    1  0.2655561E-013  0.7246151E+02  0.7816164E-02  0.1226708E+00
        -11   -1    0    0    0    0  0.00000000000E+00  0.00000000000E+00  0.45593999997E+02  0.45594000000E+02  0.51100000000E-03 0. -1.
         11   -1    0    0    0    0 -0.00000000000E+00 -0.00000000000E+00 -0.45593999997E+02  0.45594000000E+02  0.51100000000E-03 0.  1.
    9900012    2    1    2    0    0 -0.11570580993E+02  0.11053039763E+02  0.97279628392E+01  0.72461513584E+02  0.69999926124E+02 0.  0.
        -12    1    1    2    0    0  0.11570580993E+02 -0.11053039763E+02 -0.97279628392E+01  0.18726486416E+02  0.00000000000E+00 0.  1.
         11    1    3    3    0    0 -0.27571561764E+02 -0.23317035116E+01  0.25269984969E+02  0.37472656698E+02  0.51100000000E-03 0. -1.
        -11    1    3    3    0    0 -0.26701976430E+01  0.33105741070E+01  0.42225691737E+01  0.59933252088E+01  0.51100000000E-03 0.  1.
        -12    1    3    3    0    0  0.18671178415E+02  0.10074169168E+02 -0.19764591304E+02  0.28995531677E+02  0.00000000000E+00 0.  1.
</event>
<event>
 7    1  0.2655561E-013  0.7246156E+02  0.7816164E-02  0.1226708E+00
        -11   -1    0    0    0    0  0.00000000000E+00  0.00000000000E+00  0.45593999997E+02  0.45594000000E+02  0.51100000000E-03 0.  1.
         11   -1    0    0    0    0 -0.00000000000E+00 -0.00000000000E+00 -0.45593999997E+02  0.45594000000E+02  0.51100000000E-03 0. -1.
    9900012    2    1    2    0    0 -0.95370508983E+01  0.14357730353E+02 -0.73198119972E+01  0.72461563917E+02  0.69999991692E+02 0.  0.
        -12    1    1    2    0    0  0.95370508983E+01 -0.14357730353E+02  0.73198119972E+01  0.18726436083E+02  0.00000000000E+00 0.  1.
         11    1    3    3    0    0 -0.32018491757E+01 -0.15544330478E+02  0.45631638619E+00  0.15877224980E+02  0.51100000000E-03 0. -1.
        -11    1    3    3    0    0 -0.11011506757E+02 -0.10362321649E+02  0.83940621761E+00  0.15143830232E+02  0.51100000000E-03 0.  1.
         12    1    3    3    0    0  0.46763050348E+01  0.40264382480E+02 -0.86155346010E+01  0.41440508705E+02  0.00000000000E+00 0. -1.
</event>
<event>
 7    1  0.2655561E-013  0.7246152E+02  0.7816164E-02  0.1226708E+00
        -11   -1    0    0    0    0  0.00000000000E+00  0.00000000000E+00  0.45593999997E+02  0.45594000000E+02  0.51100000000E-03 0. -1.
         11   -1    0    0    0    0 -0.00000000000E+00 -0.00000000000E+00 -0.45593999997E+02  0.45594000000E+02  0.51100000000E-03 0.  1.
    9900012    2    1    2    0    0 -0.37433088293E+01  0.47876107254E+01  0.17712921292E+02  0.72461517198E+02  0.69999930832E+02 0.  0.
        -12    1    1    2    0    0  0.37433088293E+01 -0.47876107254E+01 -0.17712921292E+02  0.18726482802E+02  0.00000000000E+00 0.  1.
         11    1    3    3    0    0 -0.84370548584E+01  0.17585978440E+02  0.22447120542E+02  0.29737581497E+02  0.51100000000E-03 0. -1.
        -11    1    3    3    0    0 -0.76959752286E+01  0.11620009474E+02  0.30292383041E+01  0.14262851744E+02  0.51100000000E-03 0.  1.
        -12    1    3    3    0    0  0.12389721258E+02 -0.24418377188E+02 -0.77634375549E+01  0.28461083957E+02  0.00000000000E+00 0.  1.
</event>
<event>
 7    1  0.2655561E-013  0.7246157E+02  0.7816164E-02  0.1226708E+00
        -11   -1    0    0    0    0  0.00000000000E+00  0.00000000000E+00  0.45593999997E+02  0.45594000000E+02  0.51100000000E-03 0.  1.
         11   -1    0    0    0    0 -0.00000000000E+00 -0.00000000000E+00 -0.45593999997E+02  0.45594000000E+02  0.51100000000E-03 0. -1.
    9900012    2    1    2    0    0  0.18171712364E+02  0.31473846869E+01 -0.32499437155E+01  0.72461566950E+02  0.69999995644E+02 0.  0.
        -12    1    1    2    0    0 -0.18171712364E+02 -0.31473846869E+01  0.32499437155E+01  0.18726433050E+02  0.00000000000E+00 0.  1.
         11    1    3    3    0    0 -0.12759425944E+02  0.18916367949E+02 -0.14062101338E+02  0.26802511470E+02  0.51100000000E-03 0. -1.
        -11    1    3    3    0    0  0.83518959518E+01  0.60684113137E+01  0.97948323768E+01  0.14230900302E+02  0.51100000000E-03 0.  1.
        -12    1    3    3    0    0  0.22579242356E+02 -0.21837394576E+02  0.10173252456E+01  0.31428155178E+02  0.00000000000E+00 0.  1.
</event>
<event>
 7    1  0.2655561E-013  0.7246159E+02  0.7816164E-02  0.1226708E+00
        -11   -1    0    0    0    0  0.00000000000E+00  0.00000000000E+00  0.45593999997E+02  0.45594000000E+02  0.51100000000E-03 0.  1.
         11   -1    0    0    0    0 -0.00000000000E+00 -0.00000000000E+00 -0.45593999997E+02  0.45594000000E+02  0.51100000000E-03 0. -1.
    9900012    2    1    2    0    0  0.48772465738E+01  0.15873872512E+02 -0.86551193609E+01  0.72461589404E+02  0.70000024893E+02 0.  0.
        -12    1    1    2    0    0 -0.48772465738E+01 -0.15873872512E+02  0.86551193609E+01  0.18726410596E+02  0.00000000000E+00 0.  1.
         11    1    3    3    0    0 -0.34012867682E+01 -0.13038148249E+02 -0.12345461880E+02  0.18274914246E+02  0.51100000000E-03 0. -1.
        -11    1    3    3    0    0 -0.60580731440E+01 -0.48613693828E+01  0.14056710600E+02  0.16060021035E+02  0.51100000000E-03 0.  1.
        -12    1    3    3    0    0  0.14336606486E+02  0.33773390143E+02 -0.10366368082E+02  0.38126654122E+02  0.00000000000E+00 0.  1.
</event>
<event>
 7    1  0.2655561E-013  0.7246163E+02  0.7816164E-02  0.1226708E+00
        -11   -1    0    0    0    0  0.00000000000E+00  0.00000000000E+00  0.45593999997E+02  0.45594000000E+02  0.51100000000E-03 0.  1.
         11   -1    0    0    0    0 -0.00000000000E+00 -0.00000000000E+00 -0.45593999997E+02  0.45594000000E+02  0.51100000000E-03 0. -1.
    9900012    2    1    2    0    0 -0.13992488637E+02 -0.79906110434E+01 -0.95413484909E+01  0.72461629980E+02  0.70000077752E+02 0.  0.
        -12    1    1    2    0    0  0.13992488637E+02  0.79906110434E+01  0.95413484909E+01  0.18726370020E+02  0.00000000000E+00 0.  1.
         11    1    3    3    0    0 -0.18957824801E+01 -0.23659720236E+02 -0.18686978057E+02  0.30208930832E+02  0.51100000000E-03 0. -1.
        -11    1    3    3    0    0 -0.53008882540E+01 -0.62338879524E+01 -0.96134486247E+01  0.12624546329E+02  0.51100000000E-03 0.  1.
        -12    1    3    3    0    0 -0.67958179024E+01  0.21902997145E+02  0.18759078191E+02  0.29628152819E+02  0.00000000000E+00 0.  1.
</event>
<event>
 7    1  0.2655561E-013  0.7246157E+02  0.7816164E-02  0.1226708E+00
        -11   -1    0    0    0    0  0.00000000000E+00  0.00000000000E+00  0.45593999997E+02  0.45594000000E+02  0.51100000000E-03 0. -1.
         11   -1    0    0    0    0 -0.00000000000E+00 -0.00000000000E+00 -0.45593999997E+02  0.45594000000E+02  0.51100000000E-03 0.  1.
    9900012    2    1    2    0    0 -0.14955008807E+02  0.17794320606E+01  0.11129269403E+02  0.72461566695E+02  0.69999995312E+02 0.  0.
        -12    1    1    2    0    0  0.14955008807E+02 -0.17794320606E+01 -0.11129269403E+02  0.18726433305E+02  0.00000000000E+00 0.  1.
         11    1    3    3    0    0  0.10520961695E+02  0.25371936133E+01  0.27907078770E+02  0.29932140454E+02  0.51100000000E-03 0. -1.
        -11    1    3    3    0    0 -0.22533817253E+02  0.68580869503E+00  0.27655036229E+01  0.22713239841E+02  0.51100000000E-03 0.  1.
        -12    1    3    3    0    0 -0.29421532493E+01 -0.14435702478E+01 -0.19543312990E+02  0.19816186400E+02  0.00000000000E+00 0.  1.
</event>
<event>
 7    1  0.2655561E-013  0.7246169E+02  0.7816164E-02  0.1226708E+00
        -11   -1    0    0    0    0  0.00000000000E+00  0.00000000000E+00  0.45593999997E+02  0.45594000000E+02  0.51100000000E-03 0. -1.
         11   -1    0    0    0    0 -0.00000000000E+00 -0.00000000000E+00 -0.45593999997E+02  0.45594000000E+02  0.51100000000E-03 0.  1.
    9900012    2    1    2    0    0  0.16483556586E+02 -0.86350184052E+01 -0.20984461268E+01  0.72461690788E+02  0.70000156965E+02 0.  0.
        -12    1    1    2    0    0 -0.16483556586E+02  0.86350184052E+01  0.20984461268E+01  0.18726309212E+02  0.00000000000E+00 0.  1.
         11    1    3    3    0    0 -0.92398742647E+00 -0.16391530409E+02  0.24716245382E+02  0.29672020625E+02  0.51100000000E-03 0. -1.
        -11    1    3    3    0    0  0.23950215734E+02  0.25316129205E+01 -0.15227276865E+02  0.28493716126E+02  0.51100000000E-03 0.  1.
        -12    1    3    3    0    0 -0.65426717222E+01  0.52248990831E+01 -0.11587414644E+02  0.14295954037E+02  0.00000000000E+00 0.  1.
</event>
<event>
 7    1  0.2655561E-013  0.7246156E+02  0.7816164E-02  0.1226708E+00
        -11   -1    0    0    0    0  0.00000000000E+00  0.00000000000E+00  0.45593999997E+02  0.45594000000E+02  0.51100000000E-03 0. -1.
         11   -1    0    0    0    0 -0.00000000000E+00 -0.00000000000E+00 -0.45593999997E+02  0.45594000000E+02  0.51100000000E-03 0.  1.
    9900012    2    1    2    0    0  0.11214826209E+02  0.90748405461E+01  0.11939619477E+02  0.72461559572E+02  0.69999986033E+02 0.  0.
        -12    1    1    2    0    0 -0.11214826209E+02 -0.90748405461E+01 -0.11939619477E+02  0.18726440428E+02  0.00000000000E+00 0.  1.
         11    1    3    3    0    0  0.18312879994E+01 -0.22166317227E+02  0.70407955701E+01  0.23329638609E+02  0.51100000000E-03 0. -1.
        -11    1    3    3    0    0  0.16738417656E+02  0.22668008439E+02 -0.10468294160E+02  0.30059913757E+02  0.51100000000E-03 0.  1.
         12    1    3    3    0    0 -0.73548794464E+01  0.85731493340E+01  0.15367118067E+02  0.19072007206E+02  0.00000000000E+00 0. -1.
</event>
<event>
 7    1  0.2655561E-013  0.7246158E+02  0.7816164E-02  0.1226708E+00
        -11   -1    0    0    0    0  0.00000000000E+00  0.00000000000E+00  0.45593999997E+02  0.45594000000E+02  0.51100000000E-03 0. -1.
         11   -1    0    0    0    0 -0.00000000000E+00 -0.00000000000E+00 -0.45593999997E+02  0.45594000000E+02  0.51100000000E-03 0.  1.
    9900012    2    1    2    0    0 -0.12251259205E+02  0.51570842318E+01  0.13190524638E+02  0.72461579891E+02  0.70000012501E+02 0.  0.
        -12    1    1    2    0    0  0.12251259205E+02 -0.51570842318E+01 -0.13190524638E+02  0.18726420109E+02  0.00000000000E+00 0.  1.
         11    1    3    3    0    0 -0.23971175400E+02  0.96153235483E+01 -0.72581821109E+01  0.26828210988E+02  0.51100000000E-03 0. -1.
        -11    1    3    3    0    0  0.23393448190E+02  0.19906364002E+00  0.22303751674E+01  0.23500374852E+02  0.51100000000E-03 0.  1.
        -12    1    3    3    0    0 -0.11673531995E+02 -0.46573029566E+01  0.18218331581E+02  0.22132994051E+02  0.00000000000E+00 0.  1.
</event>
<event>
 7    1  0.2655561E-013  0.7246193E+02  0.7816164E-02  0.1226707E+00
        -11   -1    0    0    0    0  0.00000000000E+00  0.00000000000E+00  0.45593999997E+02  0.45594000000E+02  0.51100000000E-03 0.  1.
         11   -1    0    0    0    0 -0.00000000000E+00 -0.00000000000E+00 -0.45593999997E+02  0.45594000000E+02  0.51100000000E-03 0. -1.
    9900012    2    1    2    0    0 -0.12557935054E+02  0.51776084306E+01  0.12890159896E+02  0.72461933034E+02  0.70000472534E+02 0.  0.
        -12    1    1    2    0    0  0.12557935054E+02 -0.51776084306E+01 -0.12890159896E+02  0.18726066966E+02  0.00000000000E+00 0.  1.
         11    1    3    3    0    0  0.12043403828E+02 -0.73233904353E+01  0.30178497457E+01  0.14414681425E+02  0.51100000000E-03 0. -1.
        -11    1    3    3    0    0 -0.31444390887E+02  0.64133829532E+01  0.24783692610E+02  0.40547658611E+02  0.51100000000E-03 0.  1.
         12    1    3    3    0    0  0.68430520054E+01  0.60876159127E+01 -0.14911382459E+02  0.17499592998E+02  0.00000000000E+00 0. -1.
</event>
<event>
 7    1  0.2655561E-013  0.7246078E+02  0.7816164E-02  0.1226710E+00
        -11   -1    0    0    0    0  0.00000000000E+00  0.00000000000E+00  0.45593999997E+02  0.45594000000E+02  0.51100000000E-03 0. -1.
         11   -1    0    0    0    0 -0.00000000000E+00 -0.00000000000E+00 -0.45593999997E+02  0.45594000000E+02  0.51100000000E-03 0.  1.
    9900012    2    1    2    0    0  0.16317882485E+01  0.16752016482E+02 -0.82107144002E+01  0.72460783974E+02  0.69998975664E+02 0.  0.
        -12    1    1    2    0    0 -0.16317882485E+01 -0.16752016482E+02  0.82107144002E+01  0.18727216026E+02  0.00000000000E+00 0.  1.
         11    1    3    3    0    0  0.71882746352E+01  0.34269359298E+02 -0.16503159721E+02  0.38709360108E+02  0.51100000000E-03 0. -1.
        -11    1    3    3    0    0  0.20410025535E+01  0.43380806670E+01  0.94368434169E+01  0.10584831091E+02  0.51100000000E-03 0.  1.
        -12    1    3    3    0    0 -0.75974889402E+01 -0.21855423482E+02 -0.11443980958E+01  0.23166592775E+02  0.00000000000E+00 0.  1.
</event>
<event>
 7    1  0.2655561E-013  0.7246141E+02  0.7816164E-02  0.1226708E+00
        -11   -1    0    0    0    0  0.00000000000E+00  0.00000000000E+00  0.45593999997E+02  0.45594000000E+02  0.51100000000E-03 0. -1.
         11   -1    0    0    0    0 -0.00000000000E+00 -0.00000000000E+00 -0.45593999997E+02  0.45594000000E+02  0.51100000000E-03 0.  1.
    9900012    2    1    2    0    0 -0.99756985962E+01  0.14367085735E+02  0.66901000525E+01  0.72461410516E+02  0.69999791858E+02 0.  0.
        -12    1    1    2    0    0  0.99756985962E+01 -0.14367085735E+02 -0.66901000525E+01  0.18726589484E+02  0.00000000000E+00 0.  1.
         11    1    3    3    0    0 -0.61135935899E+01  0.74494864987E+01  0.79428154384E+01  0.12488362304E+02  0.51100000000E-03 0. -1.
        -11    1    3    3    0    0 -0.31512589115E+02  0.62252606656E+01 -0.29831170431E+01  0.32259822235E+02  0.51100000000E-03 0.  1.
         12    1    3    3    0    0  0.27650484109E+02  0.69233857085E+00  0.17304016572E+01  0.27713225977E+02  0.00000000000E+00 0. -1.
</event>
<event>
 7    1  0.2655561E-013  0.7246154E+02  0.7816164E-02  0.1226708E+00
        -11   -1    0    0    0    0  0.00000000000E+00  0.00000000000E+00  0.45593999997E+02  0.45594000000E+02  0.51100000000E-03 0.  1.
         11   -1    0    0    0    0 -0.00000000000E+00 -0.00000000000E+00 -0.45593999997E+02  0.45594000000E+02  0.51100000000E-03 0. -1.
    9900012    2    1    2    0    0 -0.10687418265E+02  0.65821821636E+01 -0.13897271342E+02  0.72461543262E+02  0.69999964785E+02 0.  0.
        -12    1    1    2    0    0  0.10687418265E+02 -0.65821821636E+01  0.13897271342E+02  0.18726456738E+02  0.00000000000E+00 0.  1.
         11    1    3    3    0    0 -0.85306877694E+01 -0.54065224909E+01 -0.10946354063E+02  0.14893817066E+02  0.51100000000E-03 0. -1.
        -11    1    3    3    0    0 -0.64200578358E+01 -0.81386225961E+01  0.22540328920E+02  0.24809690616E+02  0.51100000000E-03 0.  1.
         12    1    3    3    0    0  0.42633273404E+01  0.20127327251E+02 -0.25491246200E+02  0.32758035580E+02  0.00000000000E+00 0. -1.
</event>
<event>
 7    1  0.2655561E-013  0.7246156E+02  0.7816164E-02  0.1226708E+00
        -11   -1    0    0    0    0  0.00000000000E+00  0.00000000000E+00  0.45593999997E+02  0.45594000000E+02  0.51100000000E-03 0. -1.
         11   -1    0    0    0    0 -0.00000000000E+00 -0.00000000000E+00 -0.45593999997E+02  0.45594000000E+02  0.51100000000E-03 0.  1.
    9900012    2    1    2    0    0  0.29989597881E+01 -0.14841588886E+02 -0.11018750819E+02  0.72461564405E+02  0.69999992328E+02 0.  0.
        -12    1    1    2    0    0 -0.29989597881E+01  0.14841588886E+02  0.11018750819E+02  0.18726435595E+02  0.00000000000E+00 0.  1.
         11    1    3    3    0    0  0.19418895708E+01 -0.18932766831E+01  0.29071332188E+01  0.39757836356E+01  0.51100000000E-03 0. -1.
        -11    1    3    3    0    0  0.10779279089E+02 -0.17842202607E+01 -0.38377159466E+02  0.39902163708E+02  0.51100000000E-03 0.  1.
         12    1    3    3    0    0 -0.97222088720E+01 -0.11164091943E+02  0.24451275428E+02  0.28583617061E+02  0.00000000000E+00 0. -1.
</event>
<event>
 7    1  0.2655561E-013  0.7246154E+02  0.7816164E-02  0.1226708E+00
        -11   -1    0    0    0    0  0.00000000000E+00  0.00000000000E+00  0.45593999997E+02  0.45594000000E+02  0.51100000000E-03 0.  1.
         11   -1    0    0    0    0 -0.00000000000E+00 -0.00000000000E+00 -0.45593999997E+02  0.45594000000E+02  0.51100000000E-03 0. -1.
    9900012    2    1    2    0    0 -0.35512993062E+01 -0.18280864681E+02 -0.19693820560E+01  0.72461542622E+02  0.69999963951E+02 0.  0.
        -12    1    1    2    0    0  0.35512993062E+01  0.18280864681E+02  0.19693820560E+01  0.18726457378E+02  0.00000000000E+00 0.  1.
         11    1    3    3    0    0  0.16978710827E+01 -0.47319465695E+01 -0.21308348666E+02  0.21893373602E+02  0.51100000000E-03 0. -1.
        -11    1    3    3    0    0  0.13211562862E+02 -0.12439009202E+02 -0.60762954446E+01  0.19136240743E+02  0.51100000000E-03 0.  1.
        -12    1    3    3    0    0 -0.18460733251E+02 -0.11099089095E+01  0.25415262054E+02  0.31431928277E+02  0.00000000000E+00 0.  1.
</event>
<event>
 7    1  0.2655561E-013  0.7246154E+02  0.7816164E-02  0.1226708E+00
        -11   -1    0    0    0    0  0.00000000000E+00  0.00000000000E+00  0.45593999997E+02  0.45594000000E+02  0.51100000000E-03 0. -1.
         11   -1    0    0    0    0 -0.00000000000E+00 -0.00000000000E+00 -0.45593999997E+02  0.45594000000E+02  0.51100000000E-03 0.  1.
    9900012    2    1    2    0    0 -0.17641129191E+02  0.42348819658E+00  0.62682810853E+01  0.72461544672E+02  0.69999966623E+02 0.  0.
        -12    1    1    2    0    0  0.17641129191E+02 -0.42348819658E+00 -0.62682810853E+01  0.18726455328E+02  0.00000000000E+00 0.  1.
         11    1    3    3    0    0  0.33934574280E+01 -0.37427338289E+00  0.33506995332E+00  0.34304381666E+01  0.51100000000E-03 0. -1.
        -11    1    3    3    0    0  0.18302724388E+02 -0.23169805221E+01 -0.15526534194E+02  0.24112888319E+02  0.51100000000E-03 0.  1.
         12    1    3    3    0    0 -0.39337311006E+02  0.31147421016E+01  0.21459745326E+02  0.44918218186E+02  0.00000000000E+00 0. -1.
</event>
<event>
 7    1  0.2655561E-013  0.7246160E+02  0.7816164E-02  0.1226708E+00
        -11   -1    0    0    0    0  0.00000000000E+00  0.00000000000E+00  0.45593999997E+02  0.45594000000E+02  0.51100000000E-03 0. -1.
         11   -1    0    0    0    0 -0.00000000000E+00 -0.00000000000E+00 -0.45593999997E+02  0.45594000000E+02  0.51100000000E-03 0.  1.
    9900012    2    1    2    0    0 -0.86568822483E+01 -0.95486433315E+01  0.13585281867E+02  0.72461599301E+02  0.70000037786E+02 0.  0.
        -12    1    1    2    0    0  0.86568822483E+01  0.95486433315E+01 -0.13585281867E+02  0.18726400699E+02  0.00000000000E+00 0.  1.
         11    1    3    3    0    0  0.40736643880E+01 -0.23934104264E+02  0.25495020157E+02  0.35205569752E+02  0.51100000000E-03 0. -1.
        -11    1    3    3    0    0 -0.72438588946E+01 -0.42203086052E+01  0.64265435891E+01  0.10563378208E+02  0.51100000000E-03 0.  1.
        -12    1    3    3    0    0 -0.54866877418E+01  0.18605769538E+02 -0.18336281879E+02  0.26692651341E+02  0.00000000000E+00 0.  1.
</event>
<event>
 7    1  0.2655561E-013  0.7246162E+02  0.7816164E-02  0.1226708E+00
        -11   -1    0    0    0    0  0.00000000000E+00  0.00000000000E+00  0.45593999997E+02  0.45594000000E+02  0.51100000000E-03 0.  1.
         11   -1    0    0    0    0 -0.00000000000E+00 -0.00000000000E+00 -0.45593999997E+02  0.45594000000E+02  0.51100000000E-03 0. -1.
    9900012    2    1    2    0    0 -0.11793157632E+02  0.96365870243E+01  0.10896548740E+02  0.72461624194E+02  0.70000070214E+02 0.  0.
        -12    1    1    2    0    0  0.11793157632E+02 -0.96365870243E+01 -0.10896548740E+02  0.18726375806E+02  0.00000000000E+00 0.  1.
         11    1    3    3    0    0  0.57061611602E+01  0.17184116732E+02 -0.16428171018E+02  0.24448700298E+02  0.51100000000E-03 0. -1.
        -11    1    3    3    0    0 -0.22810622728E+02  0.17571191027E+01  0.52459085263E+01  0.23471930754E+02  0.51100000000E-03 0.  1.
        -12    1    3    3    0    0  0.53113039362E+01 -0.93046488100E+01  0.22078811231E+02  0.24540993141E+02  0.00000000000E+00 0.  1.
</event>
<event>
 7    1  0.2655561E-013  0.7246160E+02  0.7816164E-02  0.1226708E+00
        -11   -1    0    0    0    0  0.00000000000E+00  0.00000000000E+00  0.45593999997E+02  0.45594000000E+02  0.51100000000E-03 0. -1.
         11   -1    0    0    0    0 -0.00000000000E+00 -0.00000000000E+00 -0.45593999997E+02  0.45594000000E+02  0.51100000000E-03 0.  1.
    9900012    2    1    2    0    0 -0.17333466434E+02  0.66525844273E+01  0.24438125868E+01  0.72461597299E+02  0.70000035178E+02 0.  0.
        -12    1    1    2    0    0  0.17333466434E+02 -0.66525844273E+01 -0.24438125868E+01  0.18726402701E+02  0.00000000000E+00 0.  1.
         11    1    3    3    0    0  0.41939280532E+01  0.13026475754E+02 -0.15083550623E+01  0.13767833465E+02  0.51100000000E-03 0. -1.
        -11    1    3    3    0    0  0.16412170795E+02 -0.44957604329E+01 -0.80936831286E+01  0.18843537856E+02  0.51100000000E-03 0.  1.
         12    1    3    3    0    0 -0.37939565282E+02 -0.18781308935E+01  0.12045850778E+02  0.39850225977E+02  0.00000000000E+00 0. -1.
</event>
<event>
 7    1  0.2655561E-013  0.7246160E+02  0.7816164E-02  0.1226708E+00
        -11   -1    0    0    0    0  0.00000000000E+00  0.00000000000E+00  0.45593999997E+02  0.45594000000E+02  0.51100000000E-03 0.  1.
         11   -1    0    0    0    0 -0.00000000000E+00 -0.00000000000E+00 -0.45593999997E+02  0.45594000000E+02  0.51100000000E-03 0. -1.
    9900012    2    1    2    0    0  0.14834747273E+02 -0.38827661986E+01  0.10748603145E+02  0.72461599663E+02  0.70000038258E+02 0.  0.
        -12    1    1    2    0    0 -0.14834747273E+02  0.38827661986E+01 -0.10748603145E+02  0.18726400337E+02  0.00000000000E+00 0.  1.
         11    1    3    3    0    0  0.20017698410E+02 -0.11268886761E+02 -0.11898549346E+02  0.25870282860E+02  0.51100000000E-03 0. -1.
        -11    1    3    3    0    0  0.17114201583E+01  0.32829773790E+01 -0.11205325641E+02  0.11801111067E+02  0.51100000000E-03 0.  1.
        -12    1    3    3    0    0 -0.68943712946E+01  0.41031431837E+01  0.33852478131E+02  0.34790205736E+02  0.00000000000E+00 0.  1.
</event>
<event>
 7    1  0.2655561E-013  0.7246158E+02  0.7816164E-02  0.1226708E+00
        -11   -1    0    0    0    0  0.00000000000E+00  0.00000000000E+00  0.45593999997E+02  0.45594000000E+02  0.51100000000E-03 0.  1.
         11   -1    0    0    0    0 -0.00000000000E+00 -0.00000000000E+00 -0.45593999997E+02  0.45594000000E+02  0.51100000000E-03 0. -1.
    9900012    2    1    2    0    0 -0.96070064812E+01  0.96924919765E+01 -0.12823414179E+02  0.72461576811E+02  0.70000008489E+02 0.  0.
        -12    1    1    2    0    0  0.96070064812E+01 -0.96924919765E+01  0.12823414179E+02  0.18726423189E+02  0.00000000000E+00 0.  1.
         11    1    3    3    0    0 -0.50932375954E+01 -0.32984392802E+01  0.65794993491E+01  0.89504515436E+01  0.51100000000E-03 0. -1.
        -11    1    3    3    0    0  0.48828792236E+01 -0.13937519111E+02  0.13471262015E+02  0.19989293360E+02  0.51100000000E-03 0.  1.
         12    1    3    3    0    0 -0.93966481094E+01  0.26928450368E+02 -0.32874175544E+02  0.43521831907E+02  0.00000000000E+00 0. -1.
</event>
<event>
 7    1  0.2655561E-013  0.7246159E+02  0.7816164E-02  0.1226708E+00
        -11   -1    0    0    0    0  0.00000000000E+00  0.00000000000E+00  0.45593999997E+02  0.45594000000E+02  0.51100000000E-03 0.  1.
         11   -1    0    0    0    0 -0.00000000000E+00 -0.00000000000E+00 -0.45593999997E+02  0.45594000000E+02  0.51100000000E-03 0. -1.
    9900012    2    1    2    0    0 -0.10821043872E+02  0.76342403799E+01 -0.13240165464E+02  0.72461585550E+02  0.70000019873E+02 0.  0.
        -12    1    1    2    0    0  0.10821043872E+02 -0.76342403799E+01  0.13240165464E+02  0.18726414450E+02  0.00000000000E+00 0.  1.
         11    1    3    3    0    0  0.44801889505E+01  0.28772403632E+02  0.15434565392E+00  0.29119531703E+02  0.51100000000E-03 0. -1.
        -11    1    3    3    0    0  0.38475800708E+01 -0.44401337734E+01  0.81386383593E+01  0.10037733556E+02  0.51100000000E-03 0.  1.
         12    1    3    3    0    0 -0.19148812893E+02 -0.16698029478E+02 -0.21533149477E+02  0.33304320291E+02  0.00000000000E+00 0. -1.
</event>
<event>
 7    1  0.2655561E-013  0.7246157E+02  0.7816164E-02  0.1226708E+00
        -11   -1    0    0    0    0  0.00000000000E+00  0.00000000000E+00  0.45593999997E+02  0.45594000000E+02  0.51100000000E-03 0.  1.
         11   -1    0    0    0    0 -0.00000000000E+00 -0.00000000000E+00 -0.45593999997E+02  0.45594000000E+02  0.51100000000E-03 0. -1.
    9900012    2    1    2    0    0 -0.16819271465E+01  0.18648897430E+02 -0.26251277602E+00  0.72461570355E+02  0.70000000079E+02 0.  0.
        -12    1    1    2    0    0  0.16819271465E+01 -0.18648897430E+02  0.26251277602E+00  0.18726429645E+02  0.00000000000E+00 0.  1.
         11    1    3    3    0    0 -0.33362187904E+01  0.27074225247E+02  0.90299477084E+01  0.28734717406E+02  0.51100000000E-03 0. -1.
        -11    1    3    3    0    0  0.13176825918E+02  0.95684386745E+01  0.61037614714E+01  0.17390792515E+02  0.51100000000E-03 0.  1.
        -12    1    3    3    0    0 -0.11522534274E+02 -0.17993766491E+02 -0.15396221956E+02  0.26336060434E+02  0.00000000000E+00 0.  1.
</event>
<event>
 7    1  0.2655561E-013  0.7246155E+02  0.7816164E-02  0.1226708E+00
        -11   -1    0    0    0    0  0.00000000000E+00  0.00000000000E+00  0.45593999997E+02  0.45594000000E+02  0.51100000000E-03 0. -1.
         11   -1    0    0    0    0 -0.00000000000E+00 -0.00000000000E+00 -0.45593999997E+02  0.45594000000E+02  0.51100000000E-03 0.  1.
    9900012    2    1    2    0    0  0.12441622025E+02 -0.59156347819E+01  0.12684291590E+02  0.72461549546E+02  0.69999972971E+02 0.  0.
        -12    1    1    2    0    0 -0.12441622025E+02  0.59156347819E+01 -0.12684291590E+02  0.18726450454E+02  0.00000000000E+00 0.  1.
         11    1    3    3    0    0 -0.68313688439E+01 -0.36535481827E+01  0.94796877061E+01  0.12242568925E+02  0.51100000000E-03 0. -1.
        -11    1    3    3    0    0  0.16266076686E+02 -0.24163065490E+02  0.17417017753E+02  0.33938053749E+02  0.51100000000E-03 0.  1.
        -12    1    3    3    0    0  0.30069141822E+01  0.21900978891E+02 -0.14212413869E+02  0.26280926872E+02  0.00000000000E+00 0.  1.
</event>
<event>
 7    1  0.2655561E-013  0.7246159E+02  0.7816164E-02  0.1226708E+00
        -11   -1    0    0    0    0  0.00000000000E+00  0.00000000000E+00  0.45593999997E+02  0.45594000000E+02  0.51100000000E-03 0.  1.
         11   -1    0    0    0    0 -0.00000000000E+00 -0.00000000000E+00 -0.45593999997E+02  0.45594000000E+02  0.51100000000E-03 0. -1.
    9900012    2    1    2    0    0  0.10359921496E+02  0.99921203858E+00 -0.15567660057E+02  0.72461589833E+02  0.70000025452E+02 0.  0.
        -12    1    1    2    0    0 -0.10359921496E+02 -0.99921203858E+00  0.15567660057E+02  0.18726410167E+02  0.00000000000E+00 0.  1.
         11    1    3    3    0    0  0.73557222076E+01 -0.78179908625E+01 -0.30737022248E+01  0.11165808343E+02  0.51100000000E-03 0. -1.
        -11    1    3    3    0    0 -0.21029952996E+02 -0.13803690635E+02 -0.12937759357E+02  0.28287566449E+02  0.51100000000E-03 0.  1.
         12    1    3    3    0    0  0.24034152284E+02  0.22620893536E+02  0.44380152399E+00  0.33008215041E+02  0.00000000000E+00 0. -1.
</event>
<event>
 7    1  0.2655561E-013  0.7246164E+02  0.7816164E-02  0.1226708E+00
        -11   -1    0    0    0    0  0.00000000000E+00  0.00000000000E+00  0.45593999997E+02  0.45594000000E+02  0.51100000000E-03 0. -1.
         11   -1    0    0    0    0 -0.00000000000E+00 -0.00000000000E+00 -0.45593999997E+02  0.45594000000E+02  0.51100000000E-03 0.  1.
    9900012    2    1    2    0    0 -0.24088762782E+01  0.15014106715E+01  0.18509984485E+02  0.72461643051E+02  0.70000094780E+02 0.  0.
        -12    1    1    2    0    0  0.24088762782E+01 -0.15014106715E+01 -0.18509984485E+02  0.18726356949E+02  0.00000000000E+00 0.  1.
         11    1    3    3    0    0  0.30310030949E+01  0.61273248755E+01  0.24448774465E+02  0.25386485834E+02  0.51100000000E-03 0. -1.
        -11    1    3    3    0    0  0.18045891745E+01  0.12741318288E+02 -0.19862189765E+02  0.23666523115E+02  0.51100000000E-03 0.  1.
         12    1    3    3    0    0 -0.72444685476E+01 -0.17367232492E+02  0.13923399786E+02  0.23408634103E+02  0.00000000000E+00 0. -1.
</event>
<event>
 7    1  0.2655561E-013  0.7246163E+02  0.7816164E-02  0.1226708E+00
        -11   -1    0    0    0    0  0.00000000000E+00  0.00000000000E+00  0.45593999997E+02  0.45594000000E+02  0.51100000000E-03 0. -1.
         11   -1    0    0    0    0 -0.00000000000E+00 -0.00000000000E+00 -0.45593999997E+02  0.45594000000E+02  0.51100000000E-03 0.  1.
    9900012    2    1    2    0    0  0.12653008374E+02  0.19068973838E+01  0.13672678329E+02  0.72461627921E+02  0.70000075070E+02 0.  0.
        -12    1    1    2    0    0 -0.12653008374E+02 -0.19068973838E+01 -0.13672678329E+02  0.18726372079E+02  0.00000000000E+00 0.  1.
         11    1    3    3    0    0  0.61181986552E+00 -0.26950139883E+02  0.70867246263E+01  0.27873034091E+02  0.51100000000E-03 0. -1.
        -11    1    3    3    0    0 -0.55556137309E+01  0.54262466788E+01 -0.85976423045E+01  0.11585700255E+02  0.51100000000E-03 0.  1.
         12    1    3    3    0    0  0.17596802240E+02  0.23430790588E+02  0.15183596007E+02  0.33002893575E+02  0.00000000000E+00 0. -1.
</event>
<event>
 7    1  0.2655561E-013  0.7246181E+02  0.7816164E-02  0.1226707E+00
        -11   -1    0    0    0    0  0.00000000000E+00  0.00000000000E+00  0.45593999997E+02  0.45594000000E+02  0.51100000000E-03 0. -1.
         11   -1    0    0    0    0 -0.00000000000E+00 -0.00000000000E+00 -0.45593999997E+02  0.45594000000E+02  0.51100000000E-03 0.  1.
    9900012    2    1    2    0    0 -0.48867974929E+01  0.26256170997E+01 -0.17885625101E+02  0.72461808713E+02  0.70000310583E+02 0.  0.
        -12    1    1    2    0    0  0.48867974929E+01 -0.26256170997E+01  0.17885625101E+02  0.18726191287E+02  0.00000000000E+00 0.  1.
         11    1    3    3    0    0 -0.24282679912E+02  0.64446686096E+01  0.15677648469E+02  0.29613695463E+02  0.51100000000E-03 0. -1.
        -11    1    3    3    0    0 -0.19163624492E+01  0.35923784828E+01 -0.51754546617E+01  0.65850557641E+01  0.51100000000E-03 0.  1.
        -12    1    3    3    0    0  0.21312244868E+02 -0.74114299926E+01 -0.28387818908E+02  0.36263057486E+02  0.00000000000E+00 0.  1.
</event>
<event>
 7    1  0.2655561E-013  0.7246158E+02  0.7816164E-02  0.1226708E+00
        -11   -1    0    0    0    0  0.00000000000E+00  0.00000000000E+00  0.45593999997E+02  0.45594000000E+02  0.51100000000E-03 0.  1.
         11   -1    0    0    0    0 -0.00000000000E+00 -0.00000000000E+00 -0.45593999997E+02  0.45594000000E+02  0.51100000000E-03 0. -1.
    9900012    2    1    2    0    0  0.11273030976E+01 -0.18609424233E+02 -0.17599627426E+01  0.72461576118E+02  0.70000007587E+02 0.  0.
        -12    1    1    2    0    0 -0.11273030976E+01  0.18609424233E+02  0.17599627426E+01  0.18726423882E+02  0.00000000000E+00 0.  1.
         11    1    3    3    0    0  0.22583252771E+02 -0.91281392341E+01 -0.25994087967E+02  0.35623290711E+02  0.51100000000E-03 0. -1.
        -11    1    3    3    0    0 -0.90729745763E+01 -0.72329249911E+01  0.27268625201E+01  0.11919305813E+02  0.51100000000E-03 0.  1.
        -12    1    3    3    0    0 -0.12382975097E+02 -0.22483600075E+01  0.21507262704E+02  0.24918979594E+02  0.00000000000E+00 0.  1.
</event>
<event>
 7    1  0.2655561E-013  0.7246157E+02  0.7816164E-02  0.1226708E+00
        -11   -1    0    0    0    0  0.00000000000E+00  0.00000000000E+00  0.45593999997E+02  0.45594000000E+02  0.51100000000E-03 0.  1.
         11   -1    0    0    0    0 -0.00000000000E+00 -0.00000000000E+00 -0.45593999997E+02  0.45594000000E+02  0.51100000000E-03 0. -1.
    9900012    2    1    2    0    0  0.70468048765E+01 -0.13905562470E+02 -0.10375799461E+02  0.72461565715E+02  0.69999994034E+02 0.  0.
        -12    1    1    2    0    0 -0.70468048765E+01  0.13905562470E+02  0.10375799461E+02  0.18726434285E+02  0.00000000000E+00 0.  1.
         11    1    3    3    0    0  0.19281856678E+02  0.91254894216E+01  0.66671668543E+00  0.21342658352E+02  0.51100000000E-03 0. -1.
        -11    1    3    3    0    0 -0.18837937745E+02  0.50195094954E+01 -0.10828972755E+02  0.22300897409E+02  0.51100000000E-03 0.  1.
         12    1    3    3    0    0  0.66028859427E+01 -0.28050561387E+02 -0.21354339191E+00  0.28818009954E+02  0.00000000000E+00 0. -1.
</event>
<event>
 7    1  0.2655561E-013  0.7246155E+02  0.7816164E-02  0.1226708E+00
        -11   -1    0    0    0    0  0.00000000000E+00  0.00000000000E+00  0.45593999997E+02  0.45594000000E+02  0.51100000000E-03 0. -1.
         11   -1    0    0    0    0 -0.00000000000E+00 -0.00000000000E+00 -0.45593999997E+02  0.45594000000E+02  0.51100000000E-03 0.  1.
    9900012    2    1    2    0    0 -0.15272244735E+02  0.41041356029E+00  0.10829136413E+02  0.72461545611E+02  0.69999967845E+02 0.  0.
        -12    1    1    2    0    0  0.15272244735E+02 -0.41041356029E+00 -0.10829136413E+02  0.18726454389E+02  0.00000000000E+00 0.  1.
         11    1    3    3    0    0  0.42579742826E+01 -0.75193131687E+01  0.18682522756E+02  0.20584146140E+02  0.51100000000E-03 0. -1.
        -11    1    3    3    0    0  0.11247800131E+02  0.60714456932E+01  0.10016771808E+02  0.16239186504E+02  0.51100000000E-03 0.  1.
        -12    1    3    3    0    0 -0.30778019149E+02  0.18582810358E+01 -0.17870158151E+02  0.35638212967E+02  0.00000000000E+00 0.  1.
</event>
<event>
 7    1  0.2655561E-013  0.7246156E+02  0.7816164E-02  0.1226708E+00
        -11   -1    0    0    0    0  0.00000000000E+00  0.00000000000E+00  0.45593999997E+02  0.45594000000E+02  0.51100000000E-03 0.  1.
         11   -1    0    0    0    0 -0.00000000000E+00 -0.00000000000E+00 -0.45593999997E+02  0.45594000000E+02  0.51100000000E-03 0. -1.
    9900012    2    1    2    0    0 -0.98776210777E+01  0.74639549325E+01  0.14049962870E+02  0.72461562057E+02  0.69999989270E+02 0.  0.
        -12    1    1    2    0    0  0.98776210777E+01 -0.74639549325E+01 -0.14049962870E+02  0.18726437943E+02  0.00000000000E+00 0.  1.
         11    1    3    3    0    0 -0.51863092734E+01  0.87015056458E+01 -0.25194872976E+01  0.10438477901E+02  0.51100000000E-03 0. -1.
        -11    1    3    3    0    0 -0.22918233598E+02  0.20248749836E+02  0.29374884752E+01  0.30722730022E+02  0.51100000000E-03 0.  1.
         12    1    3    3    0    0  0.18226921794E+02 -0.21486300549E+02  0.13631961692E+02  0.31300354135E+02  0.00000000000E+00 0. -1.
</event>
<event>
 7    1  0.2655561E-013  0.7246161E+02  0.7816164E-02  0.1226708E+00
        -11   -1    0    0    0    0  0.00000000000E+00  0.00000000000E+00  0.45593999997E+02  0.45594000000E+02  0.51100000000E-03 0. -1.
         11   -1    0    0    0    0 -0.00000000000E+00 -0.00000000000E+00 -0.45593999997E+02  0.45594000000E+02  0.51100000000E-03 0.  1.
    9900012    2    1    2    0    0 -0.18685008494E+02  0.10012349719E+01  0.73870770007E+00  0.72461609452E+02  0.70000051010E+02 0.  0.
        -12    1    1    2    0    0  0.18685008494E+02 -0.10012349719E+01 -0.73870770007E+00  0.18726390548E+02  0.00000000000E+00 0.  1.
         11    1    3    3    0    0 -0.14209302771E+02 -0.15391680655E+02 -0.17690808516E+02  0.27418475976E+02  0.51100000000E-03 0. -1.
        -11    1    3    3    0    0 -0.14965469807E+02 -0.69221652219E-01 -0.38190483365E+01  0.15445232553E+02  0.51100000000E-03 0.  1.
         12    1    3    3    0    0  0.10489764084E+02  0.16462137279E+02  0.22248564553E+02  0.29597900922E+02  0.00000000000E+00 0. -1.
</event>
<event>
 7    1  0.2655561E-013  0.7246157E+02  0.7816164E-02  0.1226708E+00
        -11   -1    0    0    0    0  0.00000000000E+00  0.00000000000E+00  0.45593999997E+02  0.45594000000E+02  0.51100000000E-03 0. -1.
         11   -1    0    0    0    0 -0.00000000000E+00 -0.00000000000E+00 -0.45593999997E+02  0.45594000000E+02  0.51100000000E-03 0.  1.
    9900012    2    1    2    0    0 -0.32452559321E+01 -0.11904621898E+02  0.14086422946E+02  0.72461574286E+02  0.70000005200E+02 0.  0.
        -12    1    1    2    0    0  0.32452559321E+01  0.11904621898E+02 -0.14086422946E+02  0.18726425714E+02  0.00000000000E+00 0.  1.
         11    1    3    3    0    0 -0.20946703226E+02 -0.28682663345E+02  0.42642836667E-01  0.35517057469E+02  0.51100000000E-03 0. -1.
        -11    1    3    3    0    0 -0.28807301199E+01 -0.39654400280E+01  0.13441024297E+01  0.50823156378E+01  0.51100000000E-03 0.  1.
        -12    1    3    3    0    0  0.20582177413E+02  0.20743481476E+02  0.12699677680E+02  0.31862201179E+02  0.00000000000E+00 0.  1.
</event>
<event>
 7    1  0.2655561E-013  0.7246153E+02  0.7816164E-02  0.1226708E+00
        -11   -1    0    0    0    0  0.00000000000E+00  0.00000000000E+00  0.45593999997E+02  0.45594000000E+02  0.51100000000E-03 0.  1.
         11   -1    0    0    0    0 -0.00000000000E+00 -0.00000000000E+00 -0.45593999997E+02  0.45594000000E+02  0.51100000000E-03 0. -1.
    9900012    2    1    2    0    0 -0.56065111994E+01 -0.89268947664E+01  0.15477673069E+02  0.72461527251E+02  0.69999943927E+02 0.  0.
        -12    1    1    2    0    0  0.56065111994E+01  0.89268947664E+01 -0.15477673069E+02  0.18726472749E+02  0.00000000000E+00 0.  1.
         11    1    3    3    0    0  0.96119369220E+01 -0.17326575381E+02 -0.43539207136E+00  0.19818907951E+02  0.51100000000E-03 0. -1.
        -11    1    3    3    0    0 -0.40383884107E+01 -0.53690499009E+01  0.29528433580E+02  0.30283059088E+02  0.51100000000E-03 0.  1.
         12    1    3    3    0    0 -0.11180059711E+02  0.13768730516E+02 -0.13615368439E+02  0.22359560212E+02  0.00000000000E+00 0. -1.
</event>
<event>
 7    1  0.2655561E-013  0.7246156E+02  0.7816164E-02  0.1226708E+00
        -11   -1    0    0    0    0  0.00000000000E+00  0.00000000000E+00  0.45593999997E+02  0.45594000000E+02  0.51100000000E-03 0.  1.
         11   -1    0    0    0    0 -0.00000000000E+00 -0.00000000000E+00 -0.45593999997E+02  0.45594000000E+02  0.51100000000E-03 0. -1.
    9900012    2    1    2    0    0 -0.68330632940E+01 -0.12030679829E+02 -0.12619495884E+02  0.72461556464E+02  0.69999981984E+02 0.  0.
        -12    1    1    2    0    0  0.68330632940E+01  0.12030679829E+02  0.12619495884E+02  0.18726443536E+02  0.00000000000E+00 0.  1.
         11    1    3    3    0    0 -0.17004091068E+01 -0.13935755055E+02 -0.50621845005E+00  0.14048235386E+02  0.51100000000E-03 0. -1.
        -11    1    3    3    0    0  0.87680486198E+01 -0.17275464711E+00  0.20827939520E+02  0.22598928861E+02  0.51100000000E-03 0.  1.
         12    1    3    3    0    0 -0.13900702807E+02  0.20778298728E+01 -0.32941216953E+02  0.35814392217E+02  0.00000000000E+00 0. -1.
</event>
<event>
 7    1  0.3764741E-013  0.7246158E+02  0.7816164E-02  0.1226708E+00
        -11   -1    0    0    0    0  0.00000000000E+00  0.00000000000E+00  0.45593999997E+02  0.45594000000E+02  0.51100000000E-03 0. -1.
         11   -1    0    0    0    0 -0.00000000000E+00 -0.00000000000E+00 -0.45593999997E+02  0.45594000000E+02  0.51100000000E-03 0.  1.
    9900012    2    1    2    0    0 -0.44807877907E+01  0.11953271451E+02  0.13701123844E+02  0.72461576097E+02  0.70000007559E+02 0.  0.
        -12    1    1    2    0    0  0.44807877907E+01 -0.11953271451E+02 -0.13701123844E+02  0.18726423903E+02  0.00000000000E+00 0.  1.
         11    1    3    3    0    0  0.64676099487E+01  0.20814016156E+02  0.15000059631E+02  0.26458553176E+02  0.51100000000E-03 0. -1.
        -11    1    3    3    0    0 -0.90813320695E+01  0.42824474479E+01  0.19150256341E+02  0.21622725695E+02  0.51100000000E-03 0.  1.
        -12    1    3    3    0    0 -0.18670656700E+01 -0.13143192152E+02 -0.20449192127E+02  0.24380297226E+02  0.00000000000E+00 0.  1.
</event>
<event>
 7    1  0.2655561E-013  0.7246114E+02  0.7816164E-02  0.1226709E+00
        -11   -1    0    0    0    0  0.00000000000E+00  0.00000000000E+00  0.45593999997E+02  0.45594000000E+02  0.51100000000E-03 0.  1.
         11   -1    0    0    0    0 -0.00000000000E+00 -0.00000000000E+00 -0.45593999997E+02  0.45594000000E+02  0.51100000000E-03 0. -1.
    9900012    2    1    2    0    0 -0.98773884424E+01  0.14782832191E+02  0.58822167444E+01  0.72461136839E+02  0.69999435341E+02 0.  0.
        -12    1    1    2    0    0  0.98773884424E+01 -0.14782832191E+02 -0.58822167444E+01  0.18726863161E+02  0.00000000000E+00 0.  1.
         11    1    3    3    0    0 -0.15524022233E+02  0.22659190779E+01  0.59344489502E+01  0.16773411703E+02  0.51100000000E-03 0. -1.
        -11    1    3    3    0    0 -0.10414518963E+02 -0.20409068957E+01 -0.22256211053E+02  0.24656975421E+02  0.51100000000E-03 0.  1.
        -12    1    3    3    0    0  0.16061152754E+02  0.14557820009E+02  0.22203978847E+02  0.31030749715E+02  0.00000000000E+00 0.  1.
</event>
<event>
 7    1  0.2655561E-013  0.7246156E+02  0.7816164E-02  0.1226708E+00
        -11   -1    0    0    0    0  0.00000000000E+00  0.00000000000E+00  0.45593999997E+02  0.45594000000E+02  0.51100000000E-03 0.  1.
         11   -1    0    0    0    0 -0.00000000000E+00 -0.00000000000E+00 -0.45593999997E+02  0.45594000000E+02  0.51100000000E-03 0. -1.
    9900012    2    1    2    0    0  0.15499569561E+02 -0.10409678027E+02 -0.14427284174E+01  0.72461560977E+02  0.69999987863E+02 0.  0.
        -12    1    1    2    0    0 -0.15499569561E+02  0.10409678027E+02  0.14427284174E+01  0.18726439023E+02  0.00000000000E+00 0.  1.
         11    1    3    3    0    0 -0.89804999705E+01 -0.21061018472E+02  0.23000468761E+02  0.32453619864E+02  0.51100000000E-03 0.  1.
        -11    1    3    3    0    0  0.52888640488E+01 -0.46070636924E+01 -0.70685592932E+01  0.99579942526E+01  0.51100000000E-03 0. -1.
        -12    1    3    3    0    0  0.19191205482E+02  0.15258404138E+02 -0.17374637885E+02  0.30049946861E+02  0.00000000000E+00 0.  1.
</event>
<event>
 7    1  0.2655561E-013  0.7246156E+02  0.7816164E-02  0.1226708E+00
        -11   -1    0    0    0    0  0.00000000000E+00  0.00000000000E+00  0.45593999997E+02  0.45594000000E+02  0.51100000000E-03 0.  1.
         11   -1    0    0    0    0 -0.00000000000E+00 -0.00000000000E+00 -0.45593999997E+02  0.45594000000E+02  0.51100000000E-03 0. -1.
    9900012    2    1    2    0    0  0.32522547074E+01 -0.17910656833E+02 -0.43943968999E+01  0.72461561124E+02  0.69999988054E+02 0.  0.
        -12    1    1    2    0    0 -0.32522547074E+01  0.17910656833E+02  0.43943968999E+01  0.18726438876E+02  0.00000000000E+00 0.  1.
         11    1    3    3    0    0 -0.64615237387E+01 -0.25507859827E+02 -0.46811352283E+01  0.26726676361E+02  0.51100000000E-03 0. -1.
        -11    1    3    3    0    0  0.11280064815E+02 -0.87882454938E+01  0.17042479774E+02  0.22246780401E+02  0.51100000000E-03 0.  1.
         12    1    3    3    0    0 -0.15662863685E+01  0.16385448488E+02 -0.16755741446E+02  0.23488104363E+02  0.00000000000E+00 0. -1.
</event>
<event>
 7    1  0.2655561E-013  0.7246162E+02  0.7816164E-02  0.1226708E+00
        -11   -1    0    0    0    0  0.00000000000E+00  0.00000000000E+00  0.45593999997E+02  0.45594000000E+02  0.51100000000E-03 0.  1.
         11   -1    0    0    0    0 -0.00000000000E+00 -0.00000000000E+00 -0.45593999997E+02  0.45594000000E+02  0.51100000000E-03 0. -1.
    9900012    2    1    2    0    0 -0.42919138978E+01  0.14004709565E+02 -0.11667261036E+02  0.72461617675E+02  0.70000061722E+02 0.  0.
        -12    1    1    2    0    0  0.42919138978E+01 -0.14004709565E+02  0.11667261036E+02  0.18726382325E+02  0.00000000000E+00 0.  1.
         11    1    3    3    0    0  0.54897016208E+01  0.21009983932E+02 -0.34602592312E+02  0.40852119207E+02  0.51100000000E-03 0. -1.
        -11    1    3    3    0    0 -0.10378504992E+02  0.35036033821E+01  0.92002105001E+01  0.14304980812E+02  0.51100000000E-03 0.  1.
        -12    1    3    3    0    0  0.59688947325E+00 -0.10508877749E+02  0.13735120775E+02  0.17304517656E+02  0.00000000000E+00 0.  1.
</event>
<event>
 7    1  0.2655561E-013  0.7246158E+02  0.7816164E-02  0.1226708E+00
        -11   -1    0    0    0    0  0.00000000000E+00  0.00000000000E+00  0.45593999997E+02  0.45594000000E+02  0.51100000000E-03 0.  1.
         11   -1    0    0    0    0 -0.00000000000E+00 -0.00000000000E+00 -0.45593999997E+02  0.45594000000E+02  0.51100000000E-03 0. -1.
    9900012    2    1    2    0    0  0.90619007438E+01 -0.11476014012E+01 -0.16347594518E+02  0.72461578009E+02  0.70000010050E+02 0.  0.
        -12    1    1    2    0    0 -0.90619007438E+01  0.11476014012E+01  0.16347594518E+02  0.18726421991E+02  0.00000000000E+00 0.  1.
         11    1    3    3    0    0 -0.11359762363E+02 -0.42555253546E+00 -0.11691611503E+02  0.16307025349E+02  0.51100000000E-03 0. -1.
        -11    1    3    3    0    0  0.44597089282E+01  0.30400409510E+01  0.23205555614E+02  0.23824958853E+02  0.51100000000E-03 0.  1.
        -12    1    3    3    0    0  0.15961954179E+02 -0.37620898167E+01 -0.27861538629E+02  0.32329593808E+02  0.00000000000E+00 0.  1.
</event>
<event>
 7    1  0.2655561E-013  0.7246157E+02  0.7816164E-02  0.1226708E+00
        -11   -1    0    0    0    0  0.00000000000E+00  0.00000000000E+00  0.45593999997E+02  0.45594000000E+02  0.51100000000E-03 0.  1.
         11   -1    0    0    0    0 -0.00000000000E+00 -0.00000000000E+00 -0.45593999997E+02  0.45594000000E+02  0.51100000000E-03 0. -1.
    9900012    2    1    2    0    0 -0.91396940747E+01  0.93586839706E-02  0.16344576432E+02  0.72461567501E+02  0.69999996362E+02 0.  0.
        -12    1    1    2    0    0  0.91396940747E+01 -0.93586839706E-02 -0.16344576432E+02  0.18726432499E+02  0.00000000000E+00 0.  1.
         11    1    3    3    0    0  0.13068772148E+02 -0.16353228533E+02  0.20110130481E+01  0.21030098969E+02  0.51100000000E-03 0. -1.
        -11    1    3    3    0    0  0.47006837313E+01  0.27100436504E+01 -0.10848457319E+02  0.12129706946E+02  0.51100000000E-03 0.  1.
         12    1    3    3    0    0 -0.26909149953E+02  0.13652543567E+02  0.25182020704E+02  0.39301761586E+02  0.00000000000E+00 0. -1.
</event>
<event>
 7    1  0.2655561E-013  0.7246155E+02  0.7816164E-02  0.1226708E+00
        -11   -1    0    0    0    0  0.00000000000E+00  0.00000000000E+00  0.45593999997E+02  0.45594000000E+02  0.51100000000E-03 0. -1.
         11   -1    0    0    0    0 -0.00000000000E+00 -0.00000000000E+00 -0.45593999997E+02  0.45594000000E+02  0.51100000000E-03 0.  1.
    9900012    2    1    2    0    0  0.17205708481E+02 -0.18138439730E+01 -0.71661228193E+01  0.72461554781E+02  0.69999979791E+02 0.  0.
        -12    1    1    2    0    0 -0.17205708481E+02  0.18138439730E+01  0.71661228193E+01  0.18726445219E+02  0.00000000000E+00 0.  1.
         11    1    3    3    0    0  0.15007084472E+02 -0.10669486021E+02  0.13538243630E+02  0.22854639729E+02  0.51100000000E-03 0. -1.
        -11    1    3    3    0    0  0.42689201652E+01 -0.14793484132E+02  0.34076751120E+01  0.15769689346E+02  0.51100000000E-03 0.  1.
         12    1    3    3    0    0 -0.20702961562E+01  0.23649126180E+02 -0.24112041561E+02  0.33837225706E+02  0.00000000000E+00 0. -1.
</event>
<event>
 7    1  0.2655561E-013  0.7246154E+02  0.7816164E-02  0.1226708E+00
        -11   -1    0    0    0    0  0.00000000000E+00  0.00000000000E+00  0.45593999997E+02  0.45594000000E+02  0.51100000000E-03 0.  1.
         11   -1    0    0    0    0 -0.00000000000E+00 -0.00000000000E+00 -0.45593999997E+02  0.45594000000E+02  0.51100000000E-03 0. -1.
    9900012    2    1    2    0    0  0.15582271761E+02 -0.51478314157E+01 -0.90206916970E+01  0.72461541707E+02  0.69999962760E+02 0.  0.
        -12    1    1    2    0    0 -0.15582271761E+02  0.51478314157E+01  0.90206916970E+01  0.18726458293E+02  0.00000000000E+00 0.  1.
         11    1    3    3    0    0 -0.18957057999E+02 -0.11197719886E+02 -0.10307330689E+01  0.22041356346E+02  0.51100000000E-03 0. -1.
        -11    1    3    3    0    0  0.29444007375E+01  0.60463908394E+01  0.11482234181E+02  0.13306766697E+02  0.51100000000E-03 0.  1.
        -12    1    3    3    0    0  0.31594929022E+02  0.34976313005E-02 -0.19472192809E+02  0.37113418664E+02  0.00000000000E+00 0.  1.
</event>
<event>
 7    1  0.2655561E-013  0.7246139E+02  0.7816164E-02  0.1226709E+00
        -11   -1    0    0    0    0  0.00000000000E+00  0.00000000000E+00  0.45593999997E+02  0.45594000000E+02  0.51100000000E-03 0. -1.
         11   -1    0    0    0    0 -0.00000000000E+00 -0.00000000000E+00 -0.45593999997E+02  0.45594000000E+02  0.51100000000E-03 0.  1.
    9900012    2    1    2    0    0  0.15767266508E+02 -0.83825252180E+01  0.56402695948E+01  0.72461386230E+02  0.69999760222E+02 0.  0.
        -12    1    1    2    0    0 -0.15767266508E+02  0.83825252180E+01 -0.56402695948E+01  0.18726613770E+02  0.00000000000E+00 0.  1.
         11    1    3    3    0    0 -0.71415363516E+01 -0.77879029545E+01  0.56549423345E+01  0.11984629613E+02  0.51100000000E-03 0. -1.
        -11    1    3    3    0    0 -0.11905749560E+02  0.10784519601E+02 -0.13962508425E+02  0.21283899487E+02  0.51100000000E-03 0.  1.
         12    1    3    3    0    0  0.34814552420E+02 -0.11379141864E+02  0.13947835685E+02  0.39192857131E+02  0.00000000000E+00 0. -1.
</event>
<event>
 7    1  0.4123595E-013  0.7246154E+02  0.7816164E-02  0.1226708E+00
        -11   -1    0    0    0    0  0.00000000000E+00  0.00000000000E+00  0.45593999997E+02  0.45594000000E+02  0.51100000000E-03 0. -1.
         11   -1    0    0    0    0 -0.00000000000E+00 -0.00000000000E+00 -0.45593999997E+02  0.45594000000E+02  0.51100000000E-03 0.  1.
    9900012    2    1    2    0    0  0.14997295817E+01 -0.97830830306E+01  0.15897243212E+02  0.72461541601E+02  0.69999962622E+02 0.  0.
        -12    1    1    2    0    0 -0.14997295817E+01  0.97830830306E+01 -0.15897243212E+02  0.18726458399E+02  0.00000000000E+00 0.  1.
         11    1    3    3    0    0 -0.12000186685E+02 -0.22286502601E+02  0.18100570018E+02  0.31117893789E+02  0.51100000000E-03 0.  1.
        -11    1    3    3    0    0  0.13643890404E+02  0.73575835069E+01  0.16088521911E+02  0.22341224630E+02  0.51100000000E-03 0. -1.
        -12    1    3    3    0    0 -0.14397413713E+00  0.51458360633E+01 -0.18291848716E+02  0.19002423182E+02  0.00000000000E+00 0.  1.
</event>
<event>
 7    1  0.2655561E-013  0.7246154E+02  0.7816164E-02  0.1226708E+00
        -11   -1    0    0    0    0  0.00000000000E+00  0.00000000000E+00  0.45593999997E+02  0.45594000000E+02  0.51100000000E-03 0. -1.
         11   -1    0    0    0    0 -0.00000000000E+00 -0.00000000000E+00 -0.45593999997E+02  0.45594000000E+02  0.51100000000E-03 0.  1.
    9900012    2    1    2    0    0  0.56080875576E+01 -0.16037803778E+02 -0.78751876585E+01  0.72461538062E+02  0.69999958011E+02 0.  0.
        -12    1    1    2    0    0 -0.56080875576E+01  0.16037803778E+02  0.78751876585E+01  0.18726461938E+02  0.00000000000E+00 0.  1.
         11    1    3    3    0    0  0.19350486783E+02  0.75315180884E+01 -0.85539279959E+01  0.22457399402E+02  0.51100000000E-03 0. -1.
        -11    1    3    3    0    0  0.42079443469E+01 -0.64325119411E+01  0.18112194952E+02  0.19675762037E+02  0.51100000000E-03 0.  1.
        -12    1    3    3    0    0 -0.17950343573E+02 -0.17136809925E+02 -0.17433454615E+02  0.30328376623E+02  0.00000000000E+00 0.  1.
</event>
<event>
 7    1  0.2655561E-013  0.7246161E+02  0.7816164E-02  0.1226708E+00
        -11   -1    0    0    0    0  0.00000000000E+00  0.00000000000E+00  0.45593999997E+02  0.45594000000E+02  0.51100000000E-03 0.  1.
         11   -1    0    0    0    0 -0.00000000000E+00 -0.00000000000E+00 -0.45593999997E+02  0.45594000000E+02  0.51100000000E-03 0. -1.
    9900012    2    1    2    0    0 -0.13732830818E+02 -0.10704178475E+02 -0.68925762980E+01  0.72461609875E+02  0.70000051561E+02 0.  0.
        -12    1    1    2    0    0  0.13732830818E+02  0.10704178475E+02  0.68925762980E+01  0.18726390125E+02  0.00000000000E+00 0.  1.
         11    1    3    3    0    0  0.61585251061E+01  0.13535342628E+01  0.90207773682E+01  0.11006085184E+02  0.51100000000E-03 0. -1.
        -11    1    3    3    0    0 -0.86223159577E+01 -0.23108677180E+02  0.13468605674E+02  0.28102644583E+02  0.51100000000E-03 0.  1.
         12    1    3    3    0    0 -0.11269039966E+02  0.11050964442E+02 -0.29381959340E+02  0.33352880108E+02  0.00000000000E+00 0. -1.
</event>
<event>
 7    1  0.2655561E-013  0.7246158E+02  0.7816164E-02  0.1226708E+00
        -11   -1    0    0    0    0  0.00000000000E+00  0.00000000000E+00  0.45593999997E+02  0.45594000000E+02  0.51100000000E-03 0.  1.
         11   -1    0    0    0    0 -0.00000000000E+00 -0.00000000000E+00 -0.45593999997E+02  0.45594000000E+02  0.51100000000E-03 0. -1.
    9900012    2    1    2    0    0  0.16600648554E+02  0.25452605515E+01  0.82836634204E+01  0.72461575799E+02  0.70000007171E+02 0.  0.
        -12    1    1    2    0    0 -0.16600648554E+02 -0.25452605515E+01 -0.82836634204E+01  0.18726424201E+02  0.00000000000E+00 0.  1.
         11    1    3    3    0    0  0.27165107388E+02  0.14589493818E+02 -0.68309460129E+01  0.31582561849E+02  0.51100000000E-03 0. -1.
        -11    1    3    3    0    0  0.11337925242E+02 -0.11065240314E+02  0.84991466012E+01  0.17978419986E+02  0.51100000000E-03 0.  1.
        -12    1    3    3    0    0 -0.21902384075E+02 -0.97899295175E+00  0.66154628321E+01  0.22900593963E+02  0.00000000000E+00 0.  1.
</event>
<event>
 7    1  0.2655561E-013  0.7246156E+02  0.7816164E-02  0.1226708E+00
        -11   -1    0    0    0    0  0.00000000000E+00  0.00000000000E+00  0.45593999997E+02  0.45594000000E+02  0.51100000000E-03 0.  1.
         11   -1    0    0    0    0 -0.00000000000E+00 -0.00000000000E+00 -0.45593999997E+02  0.45594000000E+02  0.51100000000E-03 0. -1.
    9900012    2    1    2    0    0 -0.13030595625E+01 -0.17288314859E+02  0.70778417641E+01  0.72461557761E+02  0.69999983674E+02 0.  0.
        -12    1    1    2    0    0  0.13030595625E+01  0.17288314859E+02 -0.70778417641E+01  0.18726442239E+02  0.00000000000E+00 0.  1.
         11    1    3    3    0    0  0.26999066377E+02 -0.52571791505E+01  0.89314125653E+01  0.28919848695E+02  0.51100000000E-03 0. -1.
        -11    1    3    3    0    0 -0.56528204687E+01 -0.51925169943E+01  0.13363731018E+02  0.15411227043E+02  0.51100000000E-03 0.  1.
        -12    1    3    3    0    0 -0.22649305471E+02 -0.68386187139E+01 -0.15217301819E+02  0.28130482024E+02  0.00000000000E+00 0.  1.
</event>
<event>
 7    1  0.2655561E-013  0.7246156E+02  0.7816164E-02  0.1226708E+00
        -11   -1    0    0    0    0  0.00000000000E+00  0.00000000000E+00  0.45593999997E+02  0.45594000000E+02  0.51100000000E-03 0.  1.
         11   -1    0    0    0    0 -0.00000000000E+00 -0.00000000000E+00 -0.45593999997E+02  0.45594000000E+02  0.51100000000E-03 0. -1.
    9900012    2    1    2    0    0  0.10930386194E+02  0.11206158576E+02  0.10277556488E+02  0.72461561477E+02  0.69999988514E+02 0.  0.
        -12    1    1    2    0    0 -0.10930386194E+02 -0.11206158576E+02 -0.10277556488E+02  0.18726438523E+02  0.00000000000E+00 0.  1.
         11    1    3    3    0    0  0.15940842214E+00  0.25475473675E+01  0.11285535584E+01  0.27908855279E+01  0.51100000000E-03 0. -1.
        -11    1    3    3    0    0  0.10176178747E+02  0.19864047300E+02  0.34987868856E+02  0.41500433206E+02  0.51100000000E-03 0.  1.
         12    1    3    3    0    0  0.59479902440E+00 -0.11205436091E+02 -0.25838865926E+02  0.28170242743E+02  0.00000000000E+00 0. -1.
</event>
<event>
 7    1  0.2655561E-013  0.7246162E+02  0.7816164E-02  0.1226708E+00
        -11   -1    0    0    0    0  0.00000000000E+00  0.00000000000E+00  0.45593999997E+02  0.45594000000E+02  0.51100000000E-03 0.  1.
         11   -1    0    0    0    0 -0.00000000000E+00 -0.00000000000E+00 -0.45593999997E+02  0.45594000000E+02  0.51100000000E-03 0. -1.
    9900012    2    1    2    0    0  0.13861919347E+02 -0.49674206441E+00 -0.12580844811E+02  0.72461622432E+02  0.70000067919E+02 0.  0.
        -12    1    1    2    0    0 -0.13861919347E+02  0.49674206441E+00  0.12580844811E+02  0.18726377568E+02  0.00000000000E+00 0.  1.
         11    1    3    3    0    0 -0.23656207323E+01 -0.30889984713E+01 -0.48651601515E+01  0.62295952169E+01  0.51100000000E-03 0. -1.
        -11    1    3    3    0    0  0.27028983728E+02 -0.17707915818E+02  0.13429647106E+02  0.34992737327E+02  0.51100000000E-03 0.  1.
         12    1    3    3    0    0 -0.10801443649E+02  0.20300172224E+02 -0.21145331765E+02  0.31239289888E+02  0.00000000000E+00 0. -1.
</event>
<event>
 7    1  0.2655561E-013  0.7246156E+02  0.7816164E-02  0.1226708E+00
        -11   -1    0    0    0    0  0.00000000000E+00  0.00000000000E+00  0.45593999997E+02  0.45594000000E+02  0.51100000000E-03 0. -1.
         11   -1    0    0    0    0 -0.00000000000E+00 -0.00000000000E+00 -0.45593999997E+02  0.45594000000E+02  0.51100000000E-03 0.  1.
    9900012    2    1    2    0    0 -0.53260738562E+00 -0.12348294796E+01  0.18678089941E+02  0.72461560982E+02  0.69999987869E+02 0.  0.
        -12    1    1    2    0    0  0.53260738562E+00  0.12348294796E+01 -0.18678089941E+02  0.18726439018E+02  0.00000000000E+00 0.  1.
         11    1    3    3    0    0 -0.36616472040E+01  0.80363277001E+00  0.30415034498E+02  0.30645192276E+02  0.51100000000E-03 0. -1.
        -11    1    3    3    0    0  0.17452119467E+01 -0.10447174341E+01  0.14943647212E+02  0.15081438642E+02  0.51100000000E-03 0.  1.
        -12    1    3    3    0    0  0.13838278717E+01 -0.99374481548E+00 -0.26680591769E+02  0.26734930063E+02  0.00000000000E+00 0.  1.
</event>
<event>
 7    1  0.2655561E-013  0.7246157E+02  0.7816164E-02  0.1226708E+00
        -11   -1    0    0    0    0  0.00000000000E+00  0.00000000000E+00  0.45593999997E+02  0.45594000000E+02  0.51100000000E-03 0. -1.
         11   -1    0    0    0    0 -0.00000000000E+00 -0.00000000000E+00 -0.45593999997E+02  0.45594000000E+02  0.51100000000E-03 0.  1.
    9900012    2    1    2    0    0 -0.16336777095E+02 -0.91261173423E+01  0.70901247872E+00  0.72461574759E+02  0.70000005816E+02 0.  0.
        -12    1    1    2    0    0  0.16336777095E+02  0.91261173423E+01 -0.70901247872E+00  0.18726425241E+02  0.00000000000E+00 0.  1.
         11    1    3    3    0    0 -0.17385297336E+01  0.12108326291E+01  0.75704149997E+01  0.78612839167E+01  0.51100000000E-03 0. -1.
        -11    1    3    3    0    0 -0.18995212985E+02  0.22359893720E+02  0.45530991052E+01  0.29690295978E+02  0.51100000000E-03 0.  1.
         12    1    3    3    0    0  0.43969656237E+01 -0.32696843691E+02 -0.11414501626E+02  0.34909994865E+02  0.00000000000E+00 0. -1.
</event>
<event>
 7    1  0.2655561E-013  0.7246142E+02  0.7816164E-02  0.1226708E+00
        -11   -1    0    0    0    0  0.00000000000E+00  0.00000000000E+00  0.45593999997E+02  0.45594000000E+02  0.51100000000E-03 0.  1.
         11   -1    0    0    0    0 -0.00000000000E+00 -0.00000000000E+00 -0.45593999997E+02  0.45594000000E+02  0.51100000000E-03 0. -1.
    9900012    2    1    2    0    0 -0.11393653678E+02  0.23744864904E+01 -0.14670765378E+02  0.72461417637E+02  0.69999801135E+02 0.  0.
        -12    1    1    2    0    0  0.11393653678E+02 -0.23744864904E+01  0.14670765378E+02  0.18726582363E+02  0.00000000000E+00 0.  1.
         11    1    3    3    0    0  0.43945624417E+01  0.20394719747E+02 -0.83476870769E+01  0.22470884549E+02  0.51100000000E-03 0. -1.
        -11    1    3    3    0    0  0.30485959768E+01  0.32746547491E+01 -0.18520982953E+02  0.19053716460E+02  0.51100000000E-03 0.  1.
        -12    1    3    3    0    0 -0.18836812097E+02 -0.21294888006E+02  0.12197904651E+02  0.30936816627E+02  0.00000000000E+00 0.  1.
</event>
<event>
 7    1  0.2655561E-013  0.7246159E+02  0.7816164E-02  0.1226708E+00
        -11   -1    0    0    0    0  0.00000000000E+00  0.00000000000E+00  0.45593999997E+02  0.45594000000E+02  0.51100000000E-03 0.  1.
         11   -1    0    0    0    0 -0.00000000000E+00 -0.00000000000E+00 -0.45593999997E+02  0.45594000000E+02  0.51100000000E-03 0. -1.
    9900012    2    1    2    0    0  0.15950243897E+02 -0.93611027042E+01 -0.29390468172E+01  0.72461587626E+02  0.70000022578E+02 0.  0.
        -12    1    1    2    0    0 -0.15950243897E+02  0.93611027042E+01  0.29390468172E+01  0.18726412374E+02  0.00000000000E+00 0.  1.
         11    1    3    3    0    0  0.16194287292E+02 -0.19584567521E+01 -0.68928700548E+00  0.16326837127E+02  0.51100000000E-03 0. -1.
        -11    1    3    3    0    0  0.11115584582E+02  0.21371723516E+02  0.44115810520E+01  0.24490178323E+02  0.51100000000E-03 0.  1.
         12    1    3    3    0    0 -0.11359627977E+02 -0.28774369468E+02 -0.66613408637E+01  0.31644572176E+02  0.00000000000E+00 0. -1.
</event>
<event>
 7    1  0.2655561E-013  0.7246142E+02  0.7816164E-02  0.1226708E+00
        -11   -1    0    0    0    0  0.00000000000E+00  0.00000000000E+00  0.45593999997E+02  0.45594000000E+02  0.51100000000E-03 0. -1.
         11   -1    0    0    0    0 -0.00000000000E+00 -0.00000000000E+00 -0.45593999997E+02  0.45594000000E+02  0.51100000000E-03 0.  1.
    9900012    2    1    2    0    0 -0.31252872977E+01  0.86340951290E+01  0.16320837871E+02  0.72461420809E+02  0.69999805267E+02 0.  0.
        -12    1    1    2    0    0  0.31252872977E+01 -0.86340951290E+01 -0.16320837871E+02  0.18726579191E+02  0.00000000000E+00 0.  1.
         11    1    3    3    0    0 -0.18895706750E+02  0.48542907244E+01  0.46409863781E+01  0.20053693596E+02  0.51100000000E-03 0.  1.
        -11    1    3    3    0    0  0.28808800352E+00 -0.15350783585E+02  0.21066563053E+02  0.26067789137E+02  0.51100000000E-03 0. -1.
         12    1    3    3    0    0  0.15482331449E+02  0.19130587989E+02 -0.93867115601E+01  0.26339938075E+02  0.00000000000E+00 0. -1.
</event>
<event>
 7    1  0.2655561E-013  0.7246160E+02  0.7816164E-02  0.1226708E+00
        -11   -1    0    0    0    0  0.00000000000E+00  0.00000000000E+00  0.45593999997E+02  0.45594000000E+02  0.51100000000E-03 0.  1.
         11   -1    0    0    0    0 -0.00000000000E+00 -0.00000000000E+00 -0.45593999997E+02  0.45594000000E+02  0.51100000000E-03 0. -1.
    9900012    2    1    2    0    0 -0.69818283852E+01  0.96669472317E+01 -0.14438917948E+02  0.72461597572E+02  0.70000035534E+02 0.  0.
        -12    1    1    2    0    0  0.69818283852E+01 -0.96669472317E+01  0.14438917948E+02  0.18726402428E+02  0.00000000000E+00 0.  1.
         11    1    3    3    0    0 -0.99058367343E+01  0.10993872232E+02 -0.34727439831E+01  0.15200354571E+02  0.51100000000E-03 0. -1.
        -11    1    3    3    0    0  0.13196767157E+01  0.21226307007E+02 -0.23266430445E+02  0.31521808986E+02  0.51100000000E-03 0.  1.
        -12    1    3    3    0    0  0.16043316334E+01 -0.22553232007E+02  0.12300256480E+02  0.25739434015E+02  0.00000000000E+00 0.  1.
</event>
<event>
 7    1  0.2655561E-013  0.7246164E+02  0.7816164E-02  0.1226708E+00
        -11   -1    0    0    0    0  0.00000000000E+00  0.00000000000E+00  0.45593999997E+02  0.45594000000E+02  0.51100000000E-03 0. -1.
         11   -1    0    0    0    0 -0.00000000000E+00 -0.00000000000E+00 -0.45593999997E+02  0.45594000000E+02  0.51100000000E-03 0.  1.
    9900012    2    1    2    0    0  0.15719845956E+02  0.89776944711E+01  0.47920675779E+01  0.72461642464E+02  0.70000094014E+02 0.  0.
        -12    1    1    2    0    0 -0.15719845956E+02 -0.89776944711E+01 -0.47920675779E+01  0.18726357536E+02  0.00000000000E+00 0.  1.
         11    1    3    3    0    0  0.17518331231E+02  0.10465204802E+02 -0.20152708853E+02  0.28680029900E+02  0.51100000000E-03 0. -1.
        -11    1    3    3    0    0 -0.89877202057E+01 -0.15066781615E+01 -0.67123981195E+01  0.11318369244E+02  0.51100000000E-03 0.  1.
        -12    1    3    3    0    0  0.71892349303E+01  0.19167830620E-01  0.31657174551E+02  0.32463243319E+02  0.00000000000E+00 0.  1.
</event>
<event>
 7    1  0.2655561E-013  0.7246166E+02  0.7816164E-02  0.1226708E+00
        -11   -1    0    0    0    0  0.00000000000E+00  0.00000000000E+00  0.45593999997E+02  0.45594000000E+02  0.51100000000E-03 0.  1.
         11   -1    0    0    0    0 -0.00000000000E+00 -0.00000000000E+00 -0.45593999997E+02  0.45594000000E+02  0.51100000000E-03 0. -1.
    9900012    2    1    2    0    0  0.25425361471E+01  0.11442708806E+02 -0.14603961834E+02  0.72461660899E+02  0.70000118029E+02 0.  0.
        -12    1    1    2    0    0 -0.25425361471E+01 -0.11442708806E+02  0.14603961834E+02  0.18726339101E+02  0.00000000000E+00 0.  1.
         11    1    3    3    0    0  0.65684364997E+01  0.36192986594E+02 -0.13775453173E+02  0.39278998804E+02  0.51100000000E-03 0. -1.
        -11    1    3    3    0    0  0.30716134486E+01  0.23252743152E+01 -0.33145450971E+01  0.50821175980E+01  0.51100000000E-03 0.  1.
        -12    1    3    3    0    0 -0.70975138012E+01 -0.27075552103E+02  0.24860364360E+01  0.28100544497E+02  0.00000000000E+00 0.  1.
</event>
<event>
 7    1  0.2655561E-013  0.7246144E+02  0.7816164E-02  0.1226708E+00
        -11   -1    0    0    0    0  0.00000000000E+00  0.00000000000E+00  0.45593999997E+02  0.45594000000E+02  0.51100000000E-03 0. -1.
         11   -1    0    0    0    0 -0.00000000000E+00 -0.00000000000E+00 -0.45593999997E+02  0.45594000000E+02  0.51100000000E-03 0.  1.
    9900012    2    1    2    0    0 -0.12200981289E+02 -0.11072637335E+01  0.14163122883E+02  0.72461440594E+02  0.69999831041E+02 0.  0.
        -12    1    1    2    0    0  0.12200981289E+02  0.11072637335E+01 -0.14163122883E+02  0.18726559406E+02  0.00000000000E+00 0.  1.
         11    1    3    3    0    0 -0.11685884553E+02 -0.14058963434E+02 -0.32990940644E+01  0.18576823532E+02  0.51100000000E-03 0. -1.
        -11    1    3    3    0    0 -0.12710460423E+02 -0.82802667747E+01 -0.91551566951E+01  0.17718225543E+02  0.51100000000E-03 0.  1.
        -12    1    3    3    0    0  0.12195363687E+02  0.21231966475E+02  0.26617373643E+02  0.36166391519E+02  0.00000000000E+00 0.  1.
</event>
<event>
 7    1  0.2655561E-013  0.7246159E+02  0.7816164E-02  0.1226708E+00
        -11   -1    0    0    0    0  0.00000000000E+00  0.00000000000E+00  0.45593999997E+02  0.45594000000E+02  0.51100000000E-03 0. -1.
         11   -1    0    0    0    0 -0.00000000000E+00 -0.00000000000E+00 -0.45593999997E+02  0.45594000000E+02  0.51100000000E-03 0.  1.
    9900012    2    1    2    0    0 -0.18503712803E+02  0.76640418034E+00  0.27755290985E+01  0.72461592853E+02  0.70000029387E+02 0.  0.
        -12    1    1    2    0    0  0.18503712803E+02 -0.76640418034E+00 -0.27755290985E+01  0.18726407147E+02  0.00000000000E+00 0.  1.
         11    1    3    3    0    0  0.11426129572E+02  0.92370066907E+01  0.79066188141E+01  0.16685123641E+02  0.51100000000E-03 0. -1.
        -11    1    3    3    0    0  0.39582654476E+01 -0.12572756518E+01 -0.18259056628E+02  0.18725430746E+02  0.51100000000E-03 0.  1.
         12    1    3    3    0    0 -0.33888107822E+02 -0.72133268586E+01  0.13127966913E+02  0.37051038466E+02  0.00000000000E+00 0. -1.
</event>
<event>
 7    1  0.2655561E-013  0.7246162E+02  0.7816164E-02  0.1226708E+00
        -11   -1    0    0    0    0  0.00000000000E+00  0.00000000000E+00  0.45593999997E+02  0.45594000000E+02  0.51100000000E-03 0. -1.
         11   -1    0    0    0    0 -0.00000000000E+00 -0.00000000000E+00 -0.45593999997E+02  0.45594000000E+02  0.51100000000E-03 0.  1.
    9900012    2    1    2    0    0  0.40394707547E+01 -0.14906633513E+02 -0.10590203936E+02  0.72461615777E+02  0.70000059250E+02 0.  0.
        -12    1    1    2    0    0 -0.40394707547E+01  0.14906633513E+02  0.10590203936E+02  0.18726384223E+02  0.00000000000E+00 0.  1.
         11    1    3    3    0    0 -0.12027571385E+02 -0.19049013460E+02  0.84180494756E+01  0.24049759759E+02  0.51100000000E-03 0. -1.
        -11    1    3    3    0    0  0.68201538292E+01 -0.20070988338E+01  0.12843434732E+02  0.14679807899E+02  0.51100000000E-03 0.  1.
        -12    1    3    3    0    0  0.92468883106E+01  0.61494787814E+01 -0.31851688143E+02  0.33732048119E+02  0.00000000000E+00 0.  1.
</event>
<event>
 7    1  0.2655561E-013  0.7246161E+02  0.7816164E-02  0.1226708E+00
        -11   -1    0    0    0    0  0.00000000000E+00  0.00000000000E+00  0.45593999997E+02  0.45594000000E+02  0.51100000000E-03 0.  1.
         11   -1    0    0    0    0 -0.00000000000E+00 -0.00000000000E+00 -0.45593999997E+02  0.45594000000E+02  0.51100000000E-03 0. -1.
    9900012    2    1    2    0    0 -0.13531865941E+02 -0.58495124966E+01  0.11547701856E+02  0.72461611922E+02  0.70000054228E+02 0.  0.
        -12    1    1    2    0    0  0.13531865941E+02  0.58495124966E+01 -0.11547701856E+02  0.18726388078E+02  0.00000000000E+00 0.  1.
         11    1    3    3    0    0 -0.71033524720E+01  0.17577456432E+01 -0.16098090280E+02  0.17683206639E+02  0.51100000000E-03 0. -1.
        -11    1    3    3    0    0 -0.16282817838E+01  0.90596183663E+01 -0.98402012806E+01  0.13474329223E+02  0.51100000000E-03 0.  1.
        -12    1    3    3    0    0 -0.48002316850E+01 -0.16666876506E+02  0.37485993417E+02  0.41304076060E+02  0.00000000000E+00 0.  1.
</event>
<event>
 7    1  0.2655561E-013  0.7246177E+02  0.7816164E-02  0.1226707E+00
        -11   -1    0    0    0    0  0.00000000000E+00  0.00000000000E+00  0.45593999997E+02  0.45594000000E+02  0.51100000000E-03 0. -1.
         11   -1    0    0    0    0 -0.00000000000E+00 -0.00000000000E+00 -0.45593999997E+02  0.45594000000E+02  0.51100000000E-03 0.  1.
    9900012    2    1    2    0    0  0.17888867719E+02  0.41711469203E+01  0.36416505697E+01  0.72461770434E+02  0.70000260719E+02 0.  0.
        -12    1    1    2    0    0 -0.17888867719E+02 -0.41711469203E+01 -0.36416505697E+01  0.18726229566E+02  0.00000000000E+00 0.  1.
         11    1    3    3    0    0  0.37130491593E+02 -0.93353200066E+01  0.66766441160E+01  0.38863854447E+02  0.51100000000E-03 0. -1.
        -11    1    3    3    0    0  0.48900989666E+01  0.60756701457E+01  0.15052344623E+01  0.79430829449E+01  0.51100000000E-03 0.  1.
        -12    1    3    3    0    0 -0.24131722841E+02  0.74307967812E+01 -0.45402280086E+01  0.25654833042E+02  0.00000000000E+00 0.  1.
</event>
<event>
 7    1  0.2655561E-013  0.7246158E+02  0.7816164E-02  0.1226708E+00
        -11   -1    0    0    0    0  0.00000000000E+00  0.00000000000E+00  0.45593999997E+02  0.45594000000E+02  0.51100000000E-03 0.  1.
         11   -1    0    0    0    0 -0.00000000000E+00 -0.00000000000E+00 -0.45593999997E+02  0.45594000000E+02  0.51100000000E-03 0. -1.
    9900012    2    1    2    0    0  0.18421425376E+02 -0.32853967877E+01  0.73208751067E+00  0.72461582910E+02  0.70000016434E+02 0.  0.
        -12    1    1    2    0    0 -0.18421425376E+02  0.32853967877E+01 -0.73208751067E+00  0.18726417090E+02  0.00000000000E+00 0.  1.
         11    1    3    3    0    0  0.12446847255E+01  0.94626777140E+00  0.38678897936E+00  0.16106733799E+01  0.51100000000E-03 0. -1.
        -11    1    3    3    0    0  0.39886615396E+02  0.94116966638E+01  0.10781535770E+02  0.42376451429E+02  0.51100000000E-03 0.  1.
         12    1    3    3    0    0 -0.22709874746E+02 -0.13643361223E+02 -0.10436237239E+02  0.28474458101E+02  0.00000000000E+00 0. -1.
</event>
<event>
 7    1  0.2655561E-013  0.7246158E+02  0.7816164E-02  0.1226708E+00
        -11   -1    0    0    0    0  0.00000000000E+00  0.00000000000E+00  0.45593999997E+02  0.45594000000E+02  0.51100000000E-03 0. -1.
         11   -1    0    0    0    0 -0.00000000000E+00 -0.00000000000E+00 -0.45593999997E+02  0.45594000000E+02  0.51100000000E-03 0.  1.
    9900012    2    1    2    0    0  0.67948161275E+00  0.12009691449E+02  0.14352159011E+02  0.72461578765E+02  0.70000011035E+02 0.  0.
        -12    1    1    2    0    0 -0.67948161275E+00 -0.12009691449E+02 -0.14352159011E+02  0.18726421235E+02  0.00000000000E+00 0.  1.
         11    1    3    3    0    0  0.37633527845E+00  0.42290401585E+01  0.98370900736E+01  0.10714231203E+02  0.51100000000E-03 0. -1.
        -11    1    3    3    0    0 -0.19954886130E+02 -0.65763769881E+01  0.22729817990E+02  0.30953042514E+02  0.51100000000E-03 0.  1.
        -12    1    3    3    0    0  0.20258032464E+02  0.14357028279E+02 -0.18214749053E+02  0.30794305048E+02  0.00000000000E+00 0.  1.
</event>
<event>
 7    1  0.2994155E-013  0.7246153E+02  0.7816164E-02  0.1226708E+00
        -11   -1    0    0    0    0  0.00000000000E+00  0.00000000000E+00  0.45593999997E+02  0.45594000000E+02  0.51100000000E-03 0. -1.
         11   -1    0    0    0    0 -0.00000000000E+00 -0.00000000000E+00 -0.45593999997E+02  0.45594000000E+02  0.51100000000E-03 0.  1.
    9900012    2    1    2    0    0  0.16798290374E+02  0.82288407336E+01  0.88556140491E+00  0.72461532145E+02  0.69999950304E+02 0.  0.
        -12    1    1    2    0    0 -0.16798290374E+02 -0.82288407336E+01 -0.88556140491E+00  0.18726467855E+02  0.00000000000E+00 0.  1.
         11    1    3    3    0    0  0.14795679260E+02  0.29560740819E+02 -0.58140186115E+01  0.33564152532E+02  0.51100000000E-03 0. -1.
        -11    1    3    3    0    0  0.82820290110E+01  0.36410614220E+01  0.93506693982E+01  0.13010931991E+02  0.51100000000E-03 0.  1.
        -12    1    3    3    0    0 -0.62794178967E+01 -0.24972961507E+02 -0.26510893818E+01  0.25886447622E+02  0.00000000000E+00 0.  1.
</event>
<event>
 7    1  0.2655561E-013  0.7246157E+02  0.7816164E-02  0.1226708E+00
        -11   -1    0    0    0    0  0.00000000000E+00  0.00000000000E+00  0.45593999997E+02  0.45594000000E+02  0.51100000000E-03 0. -1.
         11   -1    0    0    0    0 -0.00000000000E+00 -0.00000000000E+00 -0.45593999997E+02  0.45594000000E+02  0.51100000000E-03 0.  1.
    9900012    2    1    2    0    0  0.16178659030E+01 -0.15690883190E+02  0.10092458526E+02  0.72461574168E+02  0.70000005046E+02 0.  0.
        -12    1    1    2    0    0 -0.16178659030E+01  0.15690883190E+02 -0.10092458526E+02  0.18726425832E+02  0.00000000000E+00 0.  1.
         11    1    3    3    0    0 -0.14395022269E+02 -0.80147331280E+01 -0.56997432687E+01  0.17433866090E+02  0.51100000000E-03 0. -1.
        -11    1    3    3    0    0  0.34706846182E+01  0.60513780963E+01 -0.16416351552E+02  0.17837080118E+02  0.51100000000E-03 0.  1.
        -12    1    3    3    0    0  0.12542203554E+02 -0.13727528158E+02  0.32208553347E+02  0.37190627960E+02  0.00000000000E+00 0.  1.
</event>
<event>
 7    1  0.2655561E-013  0.7246165E+02  0.7816164E-02  0.1226708E+00
        -11   -1    0    0    0    0  0.00000000000E+00  0.00000000000E+00  0.45593999997E+02  0.45594000000E+02  0.51100000000E-03 0.  1.
         11   -1    0    0    0    0 -0.00000000000E+00 -0.00000000000E+00 -0.45593999997E+02  0.45594000000E+02  0.51100000000E-03 0. -1.
    9900012    2    1    2    0    0  0.32040849762E+01  0.15412997743E+02 -0.10141483577E+02  0.72461645600E+02  0.70000098099E+02 0.  0.
        -12    1    1    2    0    0 -0.32040849762E+01 -0.15412997743E+02  0.10141483577E+02  0.18726354400E+02  0.00000000000E+00 0.  1.
         11    1    3    3    0    0  0.60268449696E+01  0.21267698220E+02 -0.86641363210E-01  0.22105324129E+02  0.51100000000E-03 0. -1.
        -11    1    3    3    0    0  0.31793060444E+01 -0.26229444381E-01  0.19439781223E+02  0.19698065112E+02  0.51100000000E-03 0.  1.
        -12    1    3    3    0    0 -0.60020660379E+01 -0.58284710319E+01 -0.29494623437E+02  0.30658256359E+02  0.00000000000E+00 0.  1.
</event>
<event>
 7    1  0.2655561E-013  0.7246152E+02  0.7816164E-02  0.1226708E+00
        -11   -1    0    0    0    0  0.00000000000E+00  0.00000000000E+00  0.45593999997E+02  0.45594000000E+02  0.51100000000E-03 0.  1.
         11   -1    0    0    0    0 -0.00000000000E+00 -0.00000000000E+00 -0.45593999997E+02  0.45594000000E+02  0.51100000000E-03 0. -1.
    9900012    2    1    2    0    0  0.13223971310E+01 -0.18648225278E+02  0.10843681618E+01  0.72461524237E+02  0.69999940001E+02 0.  0.
        -12    1    1    2    0    0 -0.13223971310E+01  0.18648225278E+02 -0.10843681618E+01  0.18726475763E+02  0.00000000000E+00 0.  1.
         11    1    3    3    0    0 -0.83575427883E+01 -0.20569437135E+02 -0.16207271366E+02  0.27488650584E+02  0.51100000000E-03 0. -1.
        -11    1    3    3    0    0  0.88015561160E+01 -0.16049108550E+02 -0.22128918622E+01  0.18437412128E+02  0.51100000000E-03 0.  1.
         12    1    3    3    0    0  0.87838380320E+00  0.17970320407E+02  0.19504531390E+02  0.26535461525E+02  0.00000000000E+00 0. -1.
</event>
<event>
 7    1  0.2655561E-013  0.7246182E+02  0.7816164E-02  0.1226707E+00
        -11   -1    0    0    0    0  0.00000000000E+00  0.00000000000E+00  0.45593999997E+02  0.45594000000E+02  0.51100000000E-03 0. -1.
         11   -1    0    0    0    0 -0.00000000000E+00 -0.00000000000E+00 -0.45593999997E+02  0.45594000000E+02  0.51100000000E-03 0.  1.
    9900012    2    1    2    0    0  0.16701369158E+01  0.13015518558E+02  0.13359522251E+02  0.72461817383E+02  0.70000321878E+02 0.  0.
        -12    1    1    2    0    0 -0.16701369158E+01 -0.13015518558E+02 -0.13359522251E+02  0.18726182617E+02  0.00000000000E+00 0.  1.
         11    1    3    3    0    0  0.26022224483E+01 -0.65539630826E+01 -0.57265951430E+01  0.90840456819E+01  0.51100000000E-03 0. -1.
        -11    1    3    3    0    0  0.21319645465E+02 -0.36501706679E+01  0.22288320653E+02  0.31058336505E+02  0.51100000000E-03 0.  1.
         12    1    3    3    0    0 -0.22251730997E+02  0.23219652308E+02 -0.32022032589E+01  0.32319435196E+02  0.00000000000E+00 0. -1.
</event>
<event>
 7    1  0.2655561E-013  0.7246158E+02  0.7816164E-02  0.1226708E+00
        -11   -1    0    0    0    0  0.00000000000E+00  0.00000000000E+00  0.45593999997E+02  0.45594000000E+02  0.51100000000E-03 0. -1.
         11   -1    0    0    0    0 -0.00000000000E+00 -0.00000000000E+00 -0.45593999997E+02  0.45594000000E+02  0.51100000000E-03 0.  1.
    9900012    2    1    2    0    0 -0.74663417863E+01 -0.69939054068E+01  0.15684951792E+02  0.72461583225E+02  0.70000016845E+02 0.  0.
        -12    1    1    2    0    0  0.74663417863E+01  0.69939054068E+01 -0.15684951792E+02  0.18726416775E+02  0.00000000000E+00 0.  1.
         11    1    3    3    0    0  0.16254712610E+02  0.42807354235E+01  0.41148535730E+01  0.17305270815E+02  0.51100000000E-03 0. -1.
        -11    1    3    3    0    0  0.73935206817E+01  0.46897900193E+01 -0.10601134959E+02  0.13749266932E+02  0.51100000000E-03 0.  1.
         12    1    3    3    0    0 -0.31114575078E+02 -0.15964430850E+02  0.22171233178E+02  0.41407045478E+02  0.00000000000E+00 0. -1.
</event>
<event>
 7    1  0.3400324E-013  0.7246159E+02  0.7816164E-02  0.1226708E+00
        -11   -1    0    0    0    0  0.00000000000E+00  0.00000000000E+00  0.45593999997E+02  0.45594000000E+02  0.51100000000E-03 0. -1.
         11   -1    0    0    0    0 -0.00000000000E+00 -0.00000000000E+00 -0.45593999997E+02  0.45594000000E+02  0.51100000000E-03 0.  1.
    9900012    2    1    2    0    0 -0.17251363684E+01 -0.11812888334E+02  0.14427683121E+02  0.72461589065E+02  0.70000024452E+02 0.  0.
        -12    1    1    2    0    0  0.17251363684E+01  0.11812888334E+02 -0.14427683121E+02  0.18726410935E+02  0.00000000000E+00 0.  1.
         11    1    3    3    0    0 -0.21069762434E+02  0.70349430218E+01  0.16470858348E+02  0.27653471524E+02  0.51100000000E-03 0. -1.
        -11    1    3    3    0    0  0.16785870049E+02 -0.82429648091E+01  0.15406089916E+02  0.24229310946E+02  0.51100000000E-03 0.  1.
        -12    1    3    3    0    0  0.25587560160E+01 -0.10604866547E+02 -0.17449265143E+02  0.20578806595E+02  0.00000000000E+00 0.  1.
</event>
<event>
 7    1  0.2655561E-013  0.7246161E+02  0.7816164E-02  0.1226708E+00
        -11   -1    0    0    0    0  0.00000000000E+00  0.00000000000E+00  0.45593999997E+02  0.45594000000E+02  0.51100000000E-03 0.  1.
         11   -1    0    0    0    0 -0.00000000000E+00 -0.00000000000E+00 -0.45593999997E+02  0.45594000000E+02  0.51100000000E-03 0. -1.
    9900012    2    1    2    0    0  0.19619908524E+01  0.20075311172E+01 -0.18514803484E+02  0.72461613874E+02  0.70000056770E+02 0.  0.
        -12    1    1    2    0    0 -0.19619908524E+01 -0.20075311172E+01  0.18514803484E+02  0.18726386126E+02  0.00000000000E+00 0.  1.
         11    1    3    3    0    0 -0.97590992074E+01  0.13687968100E+02 -0.21519417504E+02  0.27307248452E+02  0.51100000000E-03 0. -1.
        -11    1    3    3    0    0  0.15635335690E+01 -0.78842103740E+01 -0.18996008693E+02  0.20626530415E+02  0.51100000000E-03 0.  1.
        -12    1    3    3    0    0  0.10157556491E+02 -0.37962266087E+01  0.22000622713E+02  0.24527835006E+02  0.00000000000E+00 0.  1.
</event>
<event>
 7    1  0.2655561E-013  0.7246157E+02  0.7816164E-02  0.1226708E+00
        -11   -1    0    0    0    0  0.00000000000E+00  0.00000000000E+00  0.45593999997E+02  0.45594000000E+02  0.51100000000E-03 0. -1.
         11   -1    0    0    0    0 -0.00000000000E+00 -0.00000000000E+00 -0.45593999997E+02  0.45594000000E+02  0.51100000000E-03 0.  1.
    9900012    2    1    2    0    0 -0.10011230920E+02 -0.34078058593E+01  0.15454495861E+02  0.72461566073E+02  0.69999994501E+02 0.  0.
        -12    1    1    2    0    0  0.10011230920E+02  0.34078058593E+01 -0.15454495861E+02  0.18726433927E+02  0.00000000000E+00 0.  1.
         11    1    3    3    0    0 -0.12074348637E+02 -0.12566967936E+02  0.22020195552E+01  0.17566088594E+02  0.51100000000E-03 0. -1.
        -11    1    3    3    0    0 -0.23059201276E+02  0.13863608463E+02  0.11548949224E+02  0.29279764881E+02  0.51100000000E-03 0.  1.
         12    1    3    3    0    0  0.25122318993E+02 -0.47044463860E+01  0.17035270822E+01  0.25615712598E+02  0.00000000000E+00 0. -1.
</event>
<event>
 7    1  0.2655561E-013  0.7246159E+02  0.7816164E-02  0.1226708E+00
        -11   -1    0    0    0    0  0.00000000000E+00  0.00000000000E+00  0.45593999997E+02  0.45594000000E+02  0.51100000000E-03 0.  1.
         11   -1    0    0    0    0 -0.00000000000E+00 -0.00000000000E+00 -0.45593999997E+02  0.45594000000E+02  0.51100000000E-03 0. -1.
    9900012    2    1    2    0    0  0.10582211268E+02 -0.15379224261E+02  0.14747452459E+01  0.72461585294E+02  0.70000019540E+02 0.  0.
        -12    1    1    2    0    0 -0.10582211268E+02  0.15379224261E+02 -0.14747452459E+01  0.18726414706E+02  0.00000000000E+00 0.  1.
         11    1    3    3    0    0  0.20430554312E+02 -0.63998938628E+01  0.90753589171E+01  0.23253565977E+02  0.51100000000E-03 0. -1.
        -11    1    3    3    0    0  0.51028866642E+01  0.10625011601E+02  0.12659023518E+02  0.17296855220E+02  0.51100000000E-03 0.  1.
         12    1    3    3    0    0 -0.14951229707E+02 -0.19604341999E+02 -0.20259637189E+02  0.31911164097E+02  0.00000000000E+00 0. -1.
</event>
<event>
 7    1  0.2655561E-013  0.7246163E+02  0.7816164E-02  0.1226708E+00
        -11   -1    0    0    0    0  0.00000000000E+00  0.00000000000E+00  0.45593999997E+02  0.45594000000E+02  0.51100000000E-03 0.  1.
         11   -1    0    0    0    0 -0.00000000000E+00 -0.00000000000E+00 -0.45593999997E+02  0.45594000000E+02  0.51100000000E-03 0. -1.
    9900012    2    1    2    0    0 -0.46243112429E+01 -0.17143583089E+02 -0.59489847408E+01  0.72461625150E+02  0.70000071459E+02 0.  0.
        -12    1    1    2    0    0  0.46243112429E+01  0.17143583089E+02  0.59489847408E+01  0.18726374850E+02  0.00000000000E+00 0.  1.
         11    1    3    3    0    0 -0.18284402402E+02  0.15753052243E+01 -0.14036698987E+02  0.23104758741E+02  0.51100000000E-03 0. -1.
        -11    1    3    3    0    0  0.65015369043E+01 -0.67461000856E+00 -0.16664362891E+02  0.17900448922E+02  0.51100000000E-03 0.  1.
        -12    1    3    3    0    0  0.71585542553E+01 -0.18044278304E+02  0.24752077137E+02  0.31456417487E+02  0.00000000000E+00 0.  1.
</event>
<event>
 7    1  0.2655561E-013  0.7246133E+02  0.7816164E-02  0.1226709E+00
        -11   -1    0    0    0    0  0.00000000000E+00  0.00000000000E+00  0.45593999997E+02  0.45594000000E+02  0.51100000000E-03 0.  1.
         11   -1    0    0    0    0 -0.00000000000E+00 -0.00000000000E+00 -0.45593999997E+02  0.45594000000E+02  0.51100000000E-03 0. -1.
    9900012    2    1    2    0    0  0.93871141092E+01  0.44601168001E+01 -0.15578114499E+02  0.72461329059E+02  0.69999685746E+02 0.  0.
        -12    1    1    2    0    0 -0.93871141092E+01 -0.44601168001E+01  0.15578114499E+02  0.18726670941E+02  0.00000000000E+00 0.  1.
         11    1    3    3    0    0  0.49326762639E+01 -0.20851891002E+02  0.14968363840E+01  0.21479598993E+02  0.51100000000E-03 0. -1.
        -11    1    3    3    0    0  0.42866881102E+01 -0.10553691816E+02 -0.32124962472E+00  0.11395582806E+02  0.51100000000E-03 0.  1.
         12    1    3    3    0    0  0.16774973505E+00  0.35865699618E+02 -0.16753701258E+02  0.39586147260E+02  0.00000000000E+00 0. -1.
</event>
<event>
 7    1  0.2655561E-013  0.7246147E+02  0.7816164E-02  0.1226708E+00
        -11   -1    0    0    0    0  0.00000000000E+00  0.00000000000E+00  0.45593999997E+02  0.45594000000E+02  0.51100000000E-03 0. -1.
         11   -1    0    0    0    0 -0.00000000000E+00 -0.00000000000E+00 -0.45593999997E+02  0.45594000000E+02  0.51100000000E-03 0.  1.
    9900012    2    1    2    0    0  0.12830048696E+02  0.20137992696E+01  0.13491380633E+02  0.72461470999E+02  0.69999870649E+02 0.  0.
        -12    1    1    2    0    0 -0.12830048696E+02 -0.20137992696E+01 -0.13491380633E+02  0.18726529001E+02  0.00000000000E+00 0.  1.
         11    1    3    3    0    0 -0.77502679861E+01 -0.17461654834E+02  0.22884801887E+02  0.29810907417E+02  0.51100000000E-03 0. -1.
        -11    1    3    3    0    0 -0.10416194330E+01 -0.29172860867E+01  0.68657065286E+01  0.75321614131E+01  0.51100000000E-03 0.  1.
        -12    1    3    3    0    0  0.21621936115E+02  0.22392740190E+02 -0.16259127782E+02  0.35118402168E+02  0.00000000000E+00 0.  1.
</event>
<event>
 7    1  0.2655561E-013  0.7246159E+02  0.7816164E-02  0.1226708E+00
        -11   -1    0    0    0    0  0.00000000000E+00  0.00000000000E+00  0.45593999997E+02  0.45594000000E+02  0.51100000000E-03 0. -1.
         11   -1    0    0    0    0 -0.00000000000E+00 -0.00000000000E+00 -0.45593999997E+02  0.45594000000E+02  0.51100000000E-03 0.  1.
    9900012    2    1    2    0    0 -0.42772012252E+01 -0.16861450822E+02  0.69336471668E+01  0.72461589848E+02  0.70000025472E+02 0.  0.
        -12    1    1    2    0    0  0.42772012252E+01  0.16861450822E+02 -0.69336471668E+01  0.18726410152E+02  0.00000000000E+00 0.  1.
         11    1    3    3    0    0  0.43250447314E+01 -0.12467966980E+02  0.24069859849E+02  0.27450216137E+02  0.51100000000E-03 0. -1.
        -11    1    3    3    0    0  0.12374930096E+02  0.92228875427E+01 -0.14765590396E+01  0.15504218019E+02  0.51100000000E-03 0.  1.
        -12    1    3    3    0    0 -0.20977176053E+02 -0.13616371385E+02 -0.15659653643E+02  0.29507155692E+02  0.00000000000E+00 0.  1.
</event>
<event>
 7    1  0.2655561E-013  0.7246158E+02  0.7816164E-02  0.1226708E+00
        -11   -1    0    0    0    0  0.00000000000E+00  0.00000000000E+00  0.45593999997E+02  0.45594000000E+02  0.51100000000E-03 0.  1.
         11   -1    0    0    0    0 -0.00000000000E+00 -0.00000000000E+00 -0.45593999997E+02  0.45594000000E+02  0.51100000000E-03 0. -1.
    9900012    2    1    2    0    0  0.15152925420E+02  0.78204740162E+01 -0.77400274224E+01  0.72461575165E+02  0.70000006344E+02 0.  0.
        -12    1    1    2    0    0 -0.15152925420E+02 -0.78204740162E+01  0.77400274224E+01  0.18726424835E+02  0.00000000000E+00 0.  1.
         11    1    3    3    0    0  0.25329326605E+01 -0.62250472534E+01 -0.15430722418E+01  0.68955082028E+01  0.51100000000E-03 0. -1.
        -11    1    3    3    0    0 -0.16319542612E+02 -0.14842383581E+02  0.60628394870E+01  0.22877540172E+02  0.51100000000E-03 0.  1.
         12    1    3    3    0    0  0.28939535371E+02  0.28887904851E+02 -0.12259794668E+02  0.42688526789E+02  0.00000000000E+00 0. -1.
</event>
<event>
 7    1  0.2655561E-013  0.7246159E+02  0.7816164E-02  0.1226708E+00
        -11   -1    0    0    0    0  0.00000000000E+00  0.00000000000E+00  0.45593999997E+02  0.45594000000E+02  0.51100000000E-03 0.  1.
         11   -1    0    0    0    0 -0.00000000000E+00 -0.00000000000E+00 -0.45593999997E+02  0.45594000000E+02  0.51100000000E-03 0. -1.
    9900012    2    1    2    0    0 -0.73177965821E+00 -0.63485607661E+01 -0.17602236390E+02  0.72461589473E+02  0.70000024984E+02 0.  0.
        -12    1    1    2    0    0  0.73177965821E+00  0.63485607661E+01  0.17602236390E+02  0.18726410527E+02  0.00000000000E+00 0.  1.
         11    1    3    3    0    0 -0.36173769983E+01 -0.79527159549E+01 -0.88902776575E+01  0.12464675868E+02  0.51100000000E-03 0. -1.
        -11    1    3    3    0    0 -0.18898286962E+02 -0.17155338425E+00  0.17576852145E+02  0.25809308635E+02  0.51100000000E-03 0.  1.
         12    1    3    3    0    0  0.21783884302E+02  0.17757085731E+01 -0.26288810877E+02  0.34187604970E+02  0.00000000000E+00 0. -1.
</event>
<event>
 7    1  0.2655561E-013  0.7246154E+02  0.7816164E-02  0.1226708E+00
        -11   -1    0    0    0    0  0.00000000000E+00  0.00000000000E+00  0.45593999997E+02  0.45594000000E+02  0.51100000000E-03 0.  1.
         11   -1    0    0    0    0 -0.00000000000E+00 -0.00000000000E+00 -0.45593999997E+02  0.45594000000E+02  0.51100000000E-03 0. -1.
    9900012    2    1    2    0    0  0.57227576597E+01  0.99535536229E+01 -0.14793814261E+02  0.72461544774E+02  0.69999966755E+02 0.  0.
        -12    1    1    2    0    0 -0.57227576597E+01 -0.99535536229E+01  0.14793814261E+02  0.18726455226E+02  0.00000000000E+00 0.  1.
         11    1    3    3    0    0 -0.42344977377E+01  0.10187487847E+02 -0.86368158672E+00  0.11066247144E+02  0.51100000000E-03 0. -1.
        -11    1    3    3    0    0 -0.47031704912E+01  0.27241498719E+02 -0.12166464973E+02  0.30203343115E+02  0.51100000000E-03 0.  1.
         12    1    3    3    0    0  0.14660425889E+02 -0.27475432943E+02 -0.17636677012E+01  0.31191954514E+02  0.00000000000E+00 0. -1.
</event>
<event>
 7    1  0.2655561E-013  0.7246156E+02  0.7816164E-02  0.1226708E+00
        -11   -1    0    0    0    0  0.00000000000E+00  0.00000000000E+00  0.45593999997E+02  0.45594000000E+02  0.51100000000E-03 0.  1.
         11   -1    0    0    0    0 -0.00000000000E+00 -0.00000000000E+00 -0.45593999997E+02  0.45594000000E+02  0.51100000000E-03 0. -1.
    9900012    2    1    2    0    0 -0.10185438641E+02 -0.94442100825E+01 -0.12559593687E+02  0.72461557253E+02  0.69999983011E+02 0.  0.
        -12    1    1    2    0    0  0.10185438641E+02  0.94442100825E+01  0.12559593687E+02  0.18726442747E+02  0.00000000000E+00 0.  1.
         11    1    3    3    0    0  0.12389500477E+02 -0.12260620157E+02 -0.65629263870E+01  0.18625104879E+02  0.51100000000E-03 0. -1.
        -11    1    3    3    0    0  0.60857985366E+01 -0.15524721773E+02 -0.10205615884E+02  0.19550154111E+02  0.51100000000E-03 0.  1.
        -12    1    3    3    0    0 -0.28660737655E+02  0.18341131848E+02  0.42089485839E+01  0.34286298263E+02  0.00000000000E+00 0.  1.
</event>
<event>
 7    1  0.2860608E-013  0.7246152E+02  0.7816164E-02  0.1226708E+00
        -11   -1    0    0    0    0  0.00000000000E+00  0.00000000000E+00  0.45593999997E+02  0.45594000000E+02  0.51100000000E-03 0.  1.
         11   -1    0    0    0    0 -0.00000000000E+00 -0.00000000000E+00 -0.45593999997E+02  0.45594000000E+02  0.51100000000E-03 0. -1.
    9900012    2    1    2    0    0 -0.43013085104E+01  0.14246631095E+02 -0.11367195108E+02  0.72461524702E+02  0.69999940608E+02 0.  0.
        -12    1    1    2    0    0  0.43013085104E+01 -0.14246631095E+02  0.11367195108E+02  0.18726475298E+02  0.00000000000E+00 0.  1.
         11    1    3    3    0    0  0.24678353779E+02  0.43307986066E+01 -0.11955940420E+02  0.27761870856E+02  0.51100000000E-03 0. -1.
        -11    1    3    3    0    0 -0.15781413442E+02 -0.69967592885E+01 -0.10848174496E+02  0.20388490403E+02  0.51100000000E-03 0.  1.
        -12    1    3    3    0    0 -0.13198248848E+02  0.16912591776E+02  0.11436919809E+02  0.24311163443E+02  0.00000000000E+00 0.  1.
</event>
<event>
 7    1  0.2655561E-013  0.7246158E+02  0.7816164E-02  0.1226708E+00
        -11   -1    0    0    0    0  0.00000000000E+00  0.00000000000E+00  0.45593999997E+02  0.45594000000E+02  0.51100000000E-03 0. -1.
         11   -1    0    0    0    0 -0.00000000000E+00 -0.00000000000E+00 -0.45593999997E+02  0.45594000000E+02  0.51100000000E-03 0.  1.
    9900012    2    1    2    0    0 -0.44236716191E+01  0.15270686796E+02  0.98952572667E+01  0.72461578500E+02  0.70000010689E+02 0.  0.
        -12    1    1    2    0    0  0.44236716191E+01 -0.15270686796E+02 -0.98952572667E+01  0.18726421500E+02  0.00000000000E+00 0.  1.
         11    1    3    3    0    0 -0.12664178498E+02  0.21930499215E+02  0.70046318903E+01  0.26275332177E+02  0.51100000000E-03 0. -1.
        -11    1    3    3    0    0  0.61441098796E+01 -0.18242113115E+02  0.18458768839E+02  0.26669288038E+02  0.51100000000E-03 0.  1.
         12    1    3    3    0    0  0.20963969990E+01  0.11582300697E+02 -0.15568143463E+02  0.19516958285E+02  0.00000000000E+00 0. -1.
</event>
<event>
 7    1  0.2655561E-013  0.7246181E+02  0.7816164E-02  0.1226707E+00
        -11   -1    0    0    0    0  0.00000000000E+00  0.00000000000E+00  0.45593999997E+02  0.45594000000E+02  0.51100000000E-03 0.  1.
         11   -1    0    0    0    0 -0.00000000000E+00 -0.00000000000E+00 -0.45593999997E+02  0.45594000000E+02  0.51100000000E-03 0. -1.
    9900012    2    1    2    0    0  0.15401332839E+02  0.44981351269E+01 -0.96558716565E+01  0.72461811645E+02  0.70000314404E+02 0.  0.
        -12    1    1    2    0    0 -0.15401332839E+02 -0.44981351269E+01  0.96558716565E+01  0.18726188355E+02  0.00000000000E+00 0.  1.
         11    1    3    3    0    0  0.13908535200E+02  0.17459538783E+02 -0.12917115954E+02  0.25790206101E+02  0.51100000000E-03 0. -1.
        -11    1    3    3    0    0  0.14516962418E+02 -0.64648623705E+01  0.19308540751E+02  0.25007126774E+02  0.51100000000E-03 0.  1.
        -12    1    3    3    0    0 -0.13024164779E+02 -0.64965412856E+01 -0.16047296454E+02  0.21664478769E+02  0.00000000000E+00 0.  1.
</event>
<event>
 7    1  0.2655561E-013  0.7246165E+02  0.7816164E-02  0.1226708E+00
        -11   -1    0    0    0    0  0.00000000000E+00  0.00000000000E+00  0.45593999997E+02  0.45594000000E+02  0.51100000000E-03 0.  1.
         11   -1    0    0    0    0 -0.00000000000E+00 -0.00000000000E+00 -0.45593999997E+02  0.45594000000E+02  0.51100000000E-03 0. -1.
    9900012    2    1    2    0    0 -0.83982177287E+01 -0.18071849817E+01 -0.16639717449E+02  0.72461650240E+02  0.70000104143E+02 0.  0.
        -12    1    1    2    0    0  0.83982177287E+01  0.18071849817E+01  0.16639717449E+02  0.18726349760E+02  0.00000000000E+00 0.  1.
         11    1    3    3    0    0 -0.10062282241E+01  0.13052827514E+01 -0.15004428918E+01  0.22288085231E+01  0.51100000000E-03 0. -1.
        -11    1    3    3    0    0  0.12991948360E+02 -0.52969775810E+01  0.22995020547E+02  0.26937328448E+02  0.51100000000E-03 0.  1.
         12    1    3    3    0    0 -0.20383937865E+02  0.21845098479E+01 -0.38134295104E+02  0.43295513269E+02  0.00000000000E+00 0. -1.
</event>
<event>
 7    1  0.2655561E-013  0.7246158E+02  0.7816164E-02  0.1226708E+00
        -11   -1    0    0    0    0  0.00000000000E+00  0.00000000000E+00  0.45593999997E+02  0.45594000000E+02  0.51100000000E-03 0. -1.
         11   -1    0    0    0    0 -0.00000000000E+00 -0.00000000000E+00 -0.45593999997E+02  0.45594000000E+02  0.51100000000E-03 0.  1.
    9900012    2    1    2    0    0 -0.15528191640E+02  0.99064016013E+01  0.33789329838E+01  0.72461582393E+02  0.70000015761E+02 0.  0.
        -12    1    1    2    0    0  0.15528191640E+02 -0.99064016013E+01 -0.33789329838E+01  0.18726417607E+02  0.00000000000E+00 0.  1.
         11    1    3    3    0    0 -0.14939441623E+02  0.25378112343E+02 -0.11615420730E+02  0.31656808132E+02  0.51100000000E-03 0. -1.
        -11    1    3    3    0    0  0.10722486391E+02 -0.40641137788E+01 -0.71003271373E+01  0.13487156147E+02  0.51100000000E-03 0.  1.
        -12    1    3    3    0    0 -0.11311236408E+02 -0.11407596963E+02  0.22094680851E+02  0.27317618114E+02  0.00000000000E+00 0.  1.
</event>
<event>
 7    1  0.2655561E-013  0.7246157E+02  0.7816164E-02  0.1226708E+00
        -11   -1    0    0    0    0  0.00000000000E+00  0.00000000000E+00  0.45593999997E+02  0.45594000000E+02  0.51100000000E-03 0.  1.
         11   -1    0    0    0    0 -0.00000000000E+00 -0.00000000000E+00 -0.45593999997E+02  0.45594000000E+02  0.51100000000E-03 0. -1.
    9900012    2    1    2    0    0 -0.10090247523E+02  0.24528616237E+01 -0.15583635700E+02  0.72461566094E+02  0.69999994528E+02 0.  0.
        -12    1    1    2    0    0  0.10090247523E+02 -0.24528616237E+01  0.15583635700E+02  0.18726433906E+02  0.00000000000E+00 0.  1.
         11    1    3    3    0    0 -0.18119371123E+02  0.11083923126E+02 -0.13897901814E+02  0.25383392934E+02  0.51100000000E-03 0. -1.
        -11    1    3    3    0    0  0.71291748783E+01  0.14741762536E+02  0.11702947953E+02  0.20127187786E+02  0.51100000000E-03 0.  1.
        -12    1    3    3    0    0  0.89994872166E+00 -0.23372824039E+02 -0.13388681838E+02  0.26950985374E+02  0.00000000000E+00 0.  1.
</event>
<event>
 7    1  0.2655561E-013  0.7246156E+02  0.7816164E-02  0.1226708E+00
        -11   -1    0    0    0    0  0.00000000000E+00  0.00000000000E+00  0.45593999997E+02  0.45594000000E+02  0.51100000000E-03 0. -1.
         11   -1    0    0    0    0 -0.00000000000E+00 -0.00000000000E+00 -0.45593999997E+02  0.45594000000E+02  0.51100000000E-03 0.  1.
    9900012    2    1    2    0    0  0.18333281069E+00  0.67586842657E+01  0.17463275053E+02  0.72461564153E+02  0.69999992000E+02 0.  0.
        -12    1    1    2    0    0 -0.18333281069E+00 -0.67586842657E+01 -0.17463275053E+02  0.18726435847E+02  0.00000000000E+00 0.  1.
         11    1    3    3    0    0 -0.77799095480E+01 -0.16481952205E+02  0.57802256175E+01  0.19120479845E+02  0.51100000000E-03 0. -1.
        -11    1    3    3    0    0 -0.36215933078E+01 -0.12480800941E+02 -0.24352203873E+01  0.13221823959E+02  0.51100000000E-03 0.  1.
         12    1    3    3    0    0  0.11584835666E+02  0.35721437411E+02  0.14118269823E+02  0.40119260349E+02  0.00000000000E+00 0. -1.
</event>
<event>
 7    1  0.2655561E-013  0.7246152E+02  0.7816164E-02  0.1226708E+00
        -11   -1    0    0    0    0  0.00000000000E+00  0.00000000000E+00  0.45593999997E+02  0.45594000000E+02  0.51100000000E-03 0.  1.
         11   -1    0    0    0    0 -0.00000000000E+00 -0.00000000000E+00 -0.45593999997E+02  0.45594000000E+02  0.51100000000E-03 0. -1.
    9900012    2    1    2    0    0 -0.18019551790E+02  0.30427898034E+01  0.40887962673E+01  0.72461519513E+02  0.69999933848E+02 0.  0.
        -12    1    1    2    0    0  0.18019551790E+02 -0.30427898034E+01 -0.40887962673E+01  0.18726480487E+02  0.00000000000E+00 0.  1.
         11    1    3    3    0    0 -0.25301129731E+02  0.22462727256E+02  0.19828012022E+02  0.39215702753E+02  0.51100000000E-03 0. -1.
        -11    1    3    3    0    0  0.18455651693E+01 -0.46815076309E+01  0.50896082651E+01  0.71572855920E+01  0.51100000000E-03 0.  1.
        -12    1    3    3    0    0  0.54360127711E+01 -0.14738429822E+02 -0.20828824019E+02  0.26088531168E+02  0.00000000000E+00 0.  1.
</event>
<event>
 7    1  0.2655561E-013  0.7246158E+02  0.7816164E-02  0.1226708E+00
        -11   -1    0    0    0    0  0.00000000000E+00  0.00000000000E+00  0.45593999997E+02  0.45594000000E+02  0.51100000000E-03 0.  1.
         11   -1    0    0    0    0 -0.00000000000E+00 -0.00000000000E+00 -0.45593999997E+02  0.45594000000E+02  0.51100000000E-03 0. -1.
    9900012    2    1    2    0    0 -0.10943872617E+02 -0.14506556201E+02 -0.45244302148E+01  0.72461575102E+02  0.70000006263E+02 0.  0.
        -12    1    1    2    0    0  0.10943872617E+02  0.14506556201E+02  0.45244302148E+01  0.18726424898E+02  0.00000000000E+00 0.  1.
         11    1    3    3    0    0 -0.17468064847E+02 -0.18625574725E+02 -0.96871709722E+01  0.27310924646E+02  0.51100000000E-03 0. -1.
        -11    1    3    3    0    0 -0.17414661678E+02  0.85475631236E+01  0.72650215010E+01  0.20715014226E+02  0.51100000000E-03 0.  1.
        -12    1    3    3    0    0  0.23938853907E+02 -0.44285446001E+01 -0.21022807436E+01  0.24435636231E+02  0.00000000000E+00 0.  1.
</event>
<event>
 7    1  0.2655561E-013  0.7246199E+02  0.7816164E-02  0.1226707E+00
        -11   -1    0    0    0    0  0.00000000000E+00  0.00000000000E+00  0.45593999997E+02  0.45594000000E+02  0.51100000000E-03 0.  1.
         11   -1    0    0    0    0 -0.00000000000E+00 -0.00000000000E+00 -0.45593999997E+02  0.45594000000E+02  0.51100000000E-03 0. -1.
    9900012    2    1    2    0    0  0.17517686321E+02  0.55566091475E+01  0.35941907384E+01  0.72461990112E+02  0.70000546889E+02 0.  0.
        -12    1    1    2    0    0 -0.17517686321E+02 -0.55566091475E+01 -0.35941907384E+01  0.18726009888E+02  0.00000000000E+00 0.  1.
         11    1    3    3    0    0 -0.27016471311E+01 -0.25293796657E+01 -0.30573767037E+01  0.48004386554E+01  0.51100000000E-03 0.  1.
        -11    1    3    3    0    0  0.10084554732E+02  0.23048407076E+02  0.29344049879E+02  0.38652303637E+02  0.51100000000E-03 0. -1.
         12    1    3    3    0    0  0.10134778720E+02 -0.14962418263E+02 -0.22692482436E+02  0.29009247820E+02  0.00000000000E+00 0. -1.
</event>
<event>
 7    1  0.2655561E-013  0.7246151E+02  0.7816164E-02  0.1226708E+00
        -11   -1    0    0    0    0  0.00000000000E+00  0.00000000000E+00  0.45593999997E+02  0.45594000000E+02  0.51100000000E-03 0.  1.
         11   -1    0    0    0    0 -0.00000000000E+00 -0.00000000000E+00 -0.45593999997E+02  0.45594000000E+02  0.51100000000E-03 0. -1.
    9900012    2    1    2    0    0  0.17883919955E+02 -0.33107588697E+01 -0.44593421245E+01  0.72461509421E+02  0.69999920701E+02 0.  0.
        -12    1    1    2    0    0 -0.17883919955E+02  0.33107588697E+01  0.44593421245E+01  0.18726490579E+02  0.00000000000E+00 0.  1.
         11    1    3    3    0    0 -0.17600667439E+02 -0.38564745425E+01 -0.39798706055E+01  0.18452513664E+02  0.51100000000E-03 0. -1.
        -11    1    3    3    0    0  0.26991653631E+01 -0.15525132641E+02 -0.64215885826E+01  0.17016228647E+02  0.51100000000E-03 0.  1.
        -12    1    3    3    0    0  0.32785422031E+02  0.16070848314E+02  0.59421170635E+01  0.36992767110E+02  0.00000000000E+00 0.  1.
</event>
<event>
 7    1  0.2655561E-013  0.7246162E+02  0.7816164E-02  0.1226708E+00
        -11   -1    0    0    0    0  0.00000000000E+00  0.00000000000E+00  0.45593999997E+02  0.45594000000E+02  0.51100000000E-03 0.  1.
         11   -1    0    0    0    0 -0.00000000000E+00 -0.00000000000E+00 -0.45593999997E+02  0.45594000000E+02  0.51100000000E-03 0. -1.
    9900012    2    1    2    0    0  0.30320705790E+01  0.64406077043E+01 -0.17320575935E+02  0.72461622072E+02  0.70000067450E+02 0.  0.
        -12    1    1    2    0    0 -0.30320705790E+01 -0.64406077043E+01  0.17320575935E+02  0.18726377928E+02  0.00000000000E+00 0.  1.
         11    1    3    3    0    0  0.16898950389E+02  0.63968142888E+01  0.98972666802E+01  0.20602175742E+02  0.51100000000E-03 0. -1.
        -11    1    3    3    0    0  0.31155592294E+01 -0.17630441490E+02 -0.45479213080E+01  0.18472216027E+02  0.51100000000E-03 0.  1.
         12    1    3    3    0    0 -0.16982439040E+02  0.17674234906E+02 -0.22669921307E+02  0.33387230303E+02  0.00000000000E+00 0. -1.
</event>
<event>
 7    1  0.2655561E-013  0.7246156E+02  0.7816164E-02  0.1226708E+00
        -11   -1    0    0    0    0  0.00000000000E+00  0.00000000000E+00  0.45593999997E+02  0.45594000000E+02  0.51100000000E-03 0. -1.
         11   -1    0    0    0    0 -0.00000000000E+00 -0.00000000000E+00 -0.45593999997E+02  0.45594000000E+02  0.51100000000E-03 0.  1.
    9900012    2    1    2    0    0 -0.13900647996E+02  0.68151940243E+01  0.10535883999E+02  0.72461555171E+02  0.69999980299E+02 0.  0.
        -12    1    1    2    0    0  0.13900647996E+02 -0.68151940243E+01 -0.10535883999E+02  0.18726444829E+02  0.00000000000E+00 0.  1.
         11    1    3    3    0    0  0.92849496427E+00  0.10979548664E+02  0.17880867098E+02  0.21003285462E+02  0.51100000000E-03 0. -1.
        -11    1    3    3    0    0 -0.15324035420E+00  0.10451851674E+01  0.19979568082E+02  0.20007474495E+02  0.51100000000E-03 0.  1.
        -12    1    3    3    0    0 -0.14675902606E+02 -0.52095398073E+01 -0.27324551182E+02  0.31450795214E+02  0.00000000000E+00 0.  1.
</event>
<event>
 7    1  0.2655561E-013  0.7246158E+02  0.7816164E-02  0.1226708E+00
        -11   -1    0    0    0    0  0.00000000000E+00  0.00000000000E+00  0.45593999997E+02  0.45594000000E+02  0.51100000000E-03 0. -1.
         11   -1    0    0    0    0 -0.00000000000E+00 -0.00000000000E+00 -0.45593999997E+02  0.45594000000E+02  0.51100000000E-03 0.  1.
    9900012    2    1    2    0    0 -0.50587097727E+01  0.17995317276E+02 -0.11211486950E+01  0.72461575814E+02  0.70000007190E+02 0.  0.
        -12    1    1    2    0    0  0.50587097727E+01 -0.17995317276E+02  0.11211486950E+01  0.18726424186E+02  0.00000000000E+00 0.  1.
         11    1    3    3    0    0 -0.16974756014E+02  0.33266117982E+02  0.58664936452E+01  0.37804664993E+02  0.51100000000E-03 0. -1.
        -11    1    3    3    0    0 -0.37433179462E+01 -0.22359841387E+01  0.81712006867E+01  0.92617803493E+01  0.51100000000E-03 0.  1.
        -12    1    3    3    0    0  0.15659364188E+02 -0.13034816567E+02 -0.15158843027E+02  0.25395130471E+02  0.00000000000E+00 0.  1.
</event>
<event>
 7    1  0.2655561E-013  0.7246156E+02  0.7816164E-02  0.1226708E+00
        -11   -1    0    0    0    0  0.00000000000E+00  0.00000000000E+00  0.45593999997E+02  0.45594000000E+02  0.51100000000E-03 0. -1.
         11   -1    0    0    0    0 -0.00000000000E+00 -0.00000000000E+00 -0.45593999997E+02  0.45594000000E+02  0.51100000000E-03 0.  1.
    9900012    2    1    2    0    0  0.69838317651E+01 -0.14103479229E+02  0.10148778145E+02  0.72461555321E+02  0.69999980494E+02 0.  0.
        -12    1    1    2    0    0 -0.69838317651E+01  0.14103479229E+02 -0.10148778145E+02  0.18726444679E+02  0.00000000000E+00 0.  1.
         11    1    3    3    0    0  0.13706106393E+02  0.87891606835E+00  0.11307269656E+02  0.17790002621E+02  0.51100000000E-03 0. -1.
        -11    1    3    3    0    0  0.21032184533E+02  0.12041923676E+00  0.67685855915E+01  0.22094819261E+02  0.51100000000E-03 0.  1.
         12    1    3    3    0    0 -0.27754459161E+02 -0.15102814534E+02 -0.79270771021E+01  0.32576733439E+02  0.00000000000E+00 0. -1.
</event>
<event>
 7    1  0.2655561E-013  0.7246165E+02  0.7816164E-02  0.1226708E+00
        -11   -1    0    0    0    0  0.00000000000E+00  0.00000000000E+00  0.45593999997E+02  0.45594000000E+02  0.51100000000E-03 0.  1.
         11   -1    0    0    0    0 -0.00000000000E+00 -0.00000000000E+00 -0.45593999997E+02  0.45594000000E+02  0.51100000000E-03 0. -1.
    9900012    2    1    2    0    0  0.13787332699E+02 -0.49370028352E+01  0.11670969360E+02  0.72461653166E+02  0.70000107955E+02 0.  0.
        -12    1    1    2    0    0 -0.13787332699E+02  0.49370028352E+01 -0.11670969360E+02  0.18726346834E+02  0.00000000000E+00 0.  1.
         11    1    3    3    0    0  0.14436077354E+02 -0.82998402921E+01 -0.53662438956E+01  0.17495263703E+02  0.51100000000E-03 0. -1.
        -11    1    3    3    0    0  0.21798859756E+02 -0.10656416329E+02  0.15757612974E+01  0.24315273380E+02  0.51100000000E-03 0.  1.
        -12    1    3    3    0    0 -0.22447604410E+02  0.14019253786E+02  0.15461451958E+02  0.30651116082E+02  0.00000000000E+00 0.  1.
</event>
<event>
 7    1  0.2655561E-013  0.7246165E+02  0.7816164E-02  0.1226708E+00
        -11   -1    0    0    0    0  0.00000000000E+00  0.00000000000E+00  0.45593999997E+02  0.45594000000E+02  0.51100000000E-03 0. -1.
         11   -1    0    0    0    0 -0.00000000000E+00 -0.00000000000E+00 -0.45593999997E+02  0.45594000000E+02  0.51100000000E-03 0.  1.
    9900012    2    1    2    0    0 -0.39623007201E+01  0.29716773050E+01  0.18059503496E+02  0.72461645322E+02  0.70000097737E+02 0.  0.
        -12    1    1    2    0    0  0.39623007201E+01 -0.29716773050E+01 -0.18059503496E+02  0.18726354678E+02  0.00000000000E+00 0.  1.
         11    1    3    3    0    0 -0.25960175319E+01  0.99287720051E+01 -0.26453650129E+01  0.10598008156E+02  0.51100000000E-03 0. -1.
        -11    1    3    3    0    0  0.12753738993E+02  0.79648833148E+01 -0.14637279474E+02  0.20984450796E+02  0.51100000000E-03 0.  1.
         12    1    3    3    0    0 -0.14120022181E+02 -0.14921978015E+02  0.35342147983E+02  0.40879186371E+02  0.00000000000E+00 0. -1.
</event>
<event>
 7    1  0.3896913E-013  0.7246150E+02  0.7816164E-02  0.1226708E+00
        -11   -1    0    0    0    0  0.00000000000E+00  0.00000000000E+00  0.45593999997E+02  0.45594000000E+02  0.51100000000E-03 0. -1.
         11   -1    0    0    0    0 -0.00000000000E+00 -0.00000000000E+00 -0.45593999997E+02  0.45594000000E+02  0.51100000000E-03 0.  1.
    9900012    2    1    2    0    0 -0.13263669708E+02 -0.35347243724E+01  0.12738236329E+02  0.72461498050E+02  0.69999905888E+02 0.  0.
        -12    1    1    2    0    0  0.13263669708E+02  0.35347243724E+01 -0.12738236329E+02  0.18726501950E+02  0.00000000000E+00 0.  1.
         11    1    3    3    0    0 -0.11364917269E+02  0.22798176996E+02  0.22088156329E+02  0.33716537028E+02  0.51100000000E-03 0. -1.
        -11    1    3    3    0    0 -0.11856395234E+02 -0.49068566665E+01 -0.79109308736E+01  0.15074288634E+02  0.51100000000E-03 0.  1.
        -12    1    3    3    0    0  0.99576427947E+01 -0.21426044702E+02 -0.14389891262E+01  0.23670672388E+02  0.00000000000E+00 0.  1.
</event>
<event>
 7    1  0.2655561E-013  0.7246156E+02  0.7816164E-02  0.1226708E+00
        -11   -1    0    0    0    0  0.00000000000E+00  0.00000000000E+00  0.45593999997E+02  0.45594000000E+02  0.51100000000E-03 0. -1.
         11   -1    0    0    0    0 -0.00000000000E+00 -0.00000000000E+00 -0.45593999997E+02  0.45594000000E+02  0.51100000000E-03 0.  1.
    9900012    2    1    2    0    0  0.19430888418E+01  0.18220874754E+02 -0.38605251217E+01  0.72461560796E+02  0.69999987627E+02 0.  0.
        -12    1    1    2    0    0 -0.19430888418E+01 -0.18220874754E+02  0.38605251217E+01  0.18726439204E+02  0.00000000000E+00 0.  1.
         11    1    3    3    0    0  0.12520535121E+02  0.77786655162E+01  0.16980026663E+02  0.22485389538E+02  0.51100000000E-03 0. -1.
        -11    1    3    3    0    0  0.30597649346E+00  0.26038917836E+02 -0.88984811671E+01  0.27519117556E+02  0.51100000000E-03 0.  1.
        -12    1    3    3    0    0 -0.10883422773E+02 -0.15596708599E+02 -0.11942070618E+02  0.22457053703E+02  0.00000000000E+00 0.  1.
</event>
<event>
 7    1  0.2655561E-013  0.7246155E+02  0.7816164E-02  0.1226708E+00
        -11   -1    0    0    0    0  0.00000000000E+00  0.00000000000E+00  0.45593999997E+02  0.45594000000E+02  0.51100000000E-03 0.  1.
         11   -1    0    0    0    0 -0.00000000000E+00 -0.00000000000E+00 -0.45593999997E+02  0.45594000000E+02  0.51100000000E-03 0. -1.
    9900012    2    1    2    0    0 -0.16588663263E+02 -0.79921557552E+01  0.34090284501E+01  0.72461554063E+02  0.69999978856E+02 0.  0.
        -12    1    1    2    0    0  0.16588663263E+02  0.79921557552E+01 -0.34090284501E+01  0.18726445937E+02  0.00000000000E+00 0.  1.
         11    1    3    3    0    0 -0.15908450821E+02 -0.47991926909E+01  0.53222095560E+01  0.17448122329E+02  0.51100000000E-03 0. -1.
        -11    1    3    3    0    0 -0.22035627533E+02 -0.76736217884E+01  0.14709246448E+02  0.27582880261E+02  0.51100000000E-03 0.  1.
         12    1    3    3    0    0  0.21355415091E+02  0.44806587242E+01 -0.16622427554E+02  0.27430551473E+02  0.00000000000E+00 0. -1.
</event>
<event>
 7    1  0.2655561E-013  0.7246163E+02  0.7816164E-02  0.1226708E+00
        -11   -1    0    0    0    0  0.00000000000E+00  0.00000000000E+00  0.45593999997E+02  0.45594000000E+02  0.51100000000E-03 0. -1.
         11   -1    0    0    0    0 -0.00000000000E+00 -0.00000000000E+00 -0.45593999997E+02  0.45594000000E+02  0.51100000000E-03 0.  1.
    9900012    2    1    2    0    0  0.76800744055E+01  0.92489375236E+01  0.14357948647E+02  0.72461626151E+02  0.70000072763E+02 0.  0.
        -12    1    1    2    0    0 -0.76800744055E+01 -0.92489375236E+01 -0.14357948647E+02  0.18726373849E+02  0.00000000000E+00 0.  1.
         11    1    3    3    0    0  0.12990231991E+02  0.38290009522E+01  0.98758849648E+01  0.16761279175E+02  0.51100000000E-03 0. -1.
        -11    1    3    3    0    0 -0.62775721871E+01 -0.24613729532E+02  0.67212204250E+00  0.25410536050E+02  0.51100000000E-03 0.  1.
         12    1    3    3    0    0  0.96741460127E+00  0.30033666103E+02  0.38099416398E+01  0.30289810926E+02  0.00000000000E+00 0. -1.
</event>
<event>
 7    1  0.2655561E-013  0.7246146E+02  0.7816164E-02  0.1226708E+00
        -11   -1    0    0    0    0  0.00000000000E+00  0.00000000000E+00  0.45593999997E+02  0.45594000000E+02  0.51100000000E-03 0.  1.
         11   -1    0    0    0    0 -0.00000000000E+00 -0.00000000000E+00 -0.45593999997E+02  0.45594000000E+02  0.51100000000E-03 0. -1.
    9900012    2    1    2    0    0 -0.81125057797E+01  0.15728192204E+02  0.61232823451E+01  0.72461458228E+02  0.69999854013E+02 0.  0.
        -12    1    1    2    0    0  0.81125057797E+01 -0.15728192204E+02 -0.61232823451E+01  0.18726541772E+02  0.00000000000E+00 0.  1.
         11    1    3    3    0    0  0.11158600255E+02  0.12580340711E+02  0.17750765039E+01  0.16909471574E+02  0.51100000000E-03 0. -1.
        -11    1    3    3    0    0 -0.10096350263E+02 -0.11962115216E+02  0.24293891875E+02  0.28900201934E+02  0.51100000000E-03 0.  1.
         12    1    3    3    0    0 -0.91747557716E+01  0.15109966710E+02 -0.19945686034E+02  0.26651784721E+02  0.00000000000E+00 0. -1.
</event>
<event>
 7    1  0.2655561E-013  0.7246156E+02  0.7816164E-02  0.1226708E+00
        -11   -1    0    0    0    0  0.00000000000E+00  0.00000000000E+00  0.45593999997E+02  0.45594000000E+02  0.51100000000E-03 0. -1.
         11   -1    0    0    0    0 -0.00000000000E+00 -0.00000000000E+00 -0.45593999997E+02  0.45594000000E+02  0.51100000000E-03 0.  1.
    9900012    2    1    2    0    0  0.12762358986E+02  0.11192279707E+02  0.79078884611E+01  0.72461557951E+02  0.69999983920E+02 0.  0.
        -12    1    1    2    0    0 -0.12762358986E+02 -0.11192279707E+02 -0.79078884611E+01  0.18726442049E+02  0.00000000000E+00 0.  1.
         11    1    3    3    0    0  0.69059834735E+01  0.17518412126E+02  0.35920866702E+01  0.19170040638E+02  0.51100000000E-03 0. -1.
        -11    1    3    3    0    0 -0.15816664425E+02  0.15648103935E+02  0.15201234942E+01  0.22301139119E+02  0.51100000000E-03 0.  1.
         12    1    3    3    0    0  0.21673039937E+02 -0.21974236354E+02  0.27956782967E+01  0.30990378194E+02  0.00000000000E+00 0. -1.
</event>
<event>
 7    1  0.2655561E-013  0.7246155E+02  0.7816164E-02  0.1226708E+00
        -11   -1    0    0    0    0  0.00000000000E+00  0.00000000000E+00  0.45593999997E+02  0.45594000000E+02  0.51100000000E-03 0. -1.
         11   -1    0    0    0    0 -0.00000000000E+00 -0.00000000000E+00 -0.45593999997E+02  0.45594000000E+02  0.51100000000E-03 0.  1.
    9900012    2    1    2    0    0  0.57340057152E+01 -0.16640345559E+02 -0.63953023248E+01  0.72461553095E+02  0.69999977594E+02 0.  0.
        -12    1    1    2    0    0 -0.57340057152E+01  0.16640345559E+02  0.63953023248E+01  0.18726446905E+02  0.00000000000E+00 0.  1.
         11    1    3    3    0    0 -0.17997042489E+01 -0.21308317666E+02 -0.26823950820E+02  0.34304630518E+02  0.51100000000E-03 0. -1.
        -11    1    3    3    0    0  0.27516659523E+01  0.64150491200E+01 -0.72205186764E+01  0.10042928405E+02  0.51100000000E-03 0.  1.
        -12    1    3    3    0    0  0.47820440118E+01 -0.17470770134E+01  0.27649167172E+02  0.28113994172E+02  0.00000000000E+00 0.  1.
</event>
<event>
 7    1  0.2655561E-013  0.7246157E+02  0.7816164E-02  0.1226708E+00
        -11   -1    0    0    0    0  0.00000000000E+00  0.00000000000E+00  0.45593999997E+02  0.45594000000E+02  0.51100000000E-03 0.  1.
         11   -1    0    0    0    0 -0.00000000000E+00 -0.00000000000E+00 -0.45593999997E+02  0.45594000000E+02  0.51100000000E-03 0. -1.
    9900012    2    1    2    0    0  0.84375315522E+00  0.16788336543E+02  0.82534162342E+01  0.72461573678E+02  0.70000004407E+02 0.  0.
        -12    1    1    2    0    0 -0.84375315522E+00 -0.16788336543E+02 -0.82534162342E+01  0.18726426322E+02  0.00000000000E+00 0.  1.
         11    1    3    3    0    0 -0.17813949619E+02 -0.20673098144E+01  0.34603887883E+01  0.18264305673E+02  0.51100000000E-03 0. -1.
        -11    1    3    3    0    0 -0.10197919301E+02 -0.21759558266E+01  0.13872210215E+02  0.17354266287E+02  0.51100000000E-03 0.  1.
         12    1    3    3    0    0  0.28855622076E+02  0.21031602184E+02 -0.90791827693E+01  0.36843001718E+02  0.00000000000E+00 0. -1.
</event>
<event>
 7    1  0.2655561E-013  0.7246156E+02  0.7816164E-02  0.1226708E+00
        -11   -1    0    0    0    0  0.00000000000E+00  0.00000000000E+00  0.45593999997E+02  0.45594000000E+02  0.51100000000E-03 0. -1.
         11   -1    0    0    0    0 -0.00000000000E+00 -0.00000000000E+00 -0.45593999997E+02  0.45594000000E+02  0.51100000000E-03 0.  1.
    9900012    2    1    2    0    0 -0.59218022622E+01 -0.92365094011E+00  0.17741439454E+02  0.72461560215E+02  0.69999986870E+02 0.  0.
        -12    1    1    2    0    0  0.59218022622E+01  0.92365094011E+00 -0.17741439454E+02  0.18726439785E+02  0.00000000000E+00 0.  1.
         11    1    3    3    0    0 -0.50193473927E+01 -0.11304275878E+02  0.67454112017E+00  0.12386908709E+02  0.51100000000E-03 0.  1.
        -11    1    3    3    0    0  0.14628442906E+02  0.12926448959E+02  0.32576984524E+02  0.37978208823E+02  0.51100000000E-03 0. -1.
         12    1    3    3    0    0 -0.15530897775E+02 -0.25458240209E+01 -0.15510086189E+02  0.22096442683E+02  0.00000000000E+00 0. -1.
</event>
<event>
 7    1  0.2655561E-013  0.7246158E+02  0.7816164E-02  0.1226708E+00
        -11   -1    0    0    0    0  0.00000000000E+00  0.00000000000E+00  0.45593999997E+02  0.45594000000E+02  0.51100000000E-03 0.  1.
         11   -1    0    0    0    0 -0.00000000000E+00 -0.00000000000E+00 -0.45593999997E+02  0.45594000000E+02  0.51100000000E-03 0. -1.
    9900012    2    1    2    0    0  0.78273096910E+01  0.11440452431E+01 -0.16973602292E+02  0.72461580394E+02  0.70000013156E+02 0.  0.
        -12    1    1    2    0    0 -0.78273096910E+01 -0.11440452431E+01  0.16973602292E+02  0.18726419606E+02  0.00000000000E+00 0.  1.
         11    1    3    3    0    0  0.16332707714E+02  0.84563013358E+01 -0.31479543375E+02  0.36458579579E+02  0.51100000000E-03 0. -1.
        -11    1    3    3    0    0 -0.20465123637E+01  0.36439374968E+01 -0.86373277158E+01  0.95953073774E+01  0.51100000000E-03 0.  1.
        -12    1    3    3    0    0 -0.64588856595E+01 -0.10956193590E+02  0.23143268799E+02  0.26407693437E+02  0.00000000000E+00 0.  1.
</event>
<event>
 7    1  0.2655561E-013  0.7246151E+02  0.7816164E-02  0.1226708E+00
        -11   -1    0    0    0    0  0.00000000000E+00  0.00000000000E+00  0.45593999997E+02  0.45594000000E+02  0.51100000000E-03 0.  1.
         11   -1    0    0    0    0 -0.00000000000E+00 -0.00000000000E+00 -0.45593999997E+02  0.45594000000E+02  0.51100000000E-03 0. -1.
    9900012    2    1    2    0    0  0.74739362023E+01 -0.15822270007E+02 -0.66691573475E+01  0.72461505126E+02  0.69999915106E+02 0.  0.
        -12    1    1    2    0    0 -0.74739362023E+01  0.15822270007E+02  0.66691573475E+01  0.18726494874E+02  0.00000000000E+00 0.  1.
         11    1    3    3    0    0 -0.12877622143E+02 -0.14877858287E+01 -0.87445658056E+01  0.15636946317E+02  0.51100000000E-03 0. -1.
        -11    1    3    3    0    0  0.12339046155E+02 -0.15937376394E+02  0.25217211566E+02  0.32282499683E+02  0.51100000000E-03 0.  1.
         12    1    3    3    0    0  0.80125121898E+01  0.16028922158E+01 -0.23141803108E+02  0.24542059126E+02  0.00000000000E+00 0. -1.
</event>
<event>
 7    1  0.2655561E-013  0.7246159E+02  0.7816164E-02  0.1226708E+00
        -11   -1    0    0    0    0  0.00000000000E+00  0.00000000000E+00  0.45593999997E+02  0.45594000000E+02  0.51100000000E-03 0.  1.
         11   -1    0    0    0    0 -0.00000000000E+00 -0.00000000000E+00 -0.45593999997E+02  0.45594000000E+02  0.51100000000E-03 0. -1.
    9900012    2    1    2    0    0  0.12412665404E+02 -0.12799686871E+02 -0.57247048282E+01  0.72461588390E+02  0.70000023572E+02 0.  0.
        -12    1    1    2    0    0 -0.12412665404E+02  0.12799686871E+02  0.57247048282E+01  0.18726411610E+02  0.00000000000E+00 0.  1.
         11    1    3    3    0    0  0.80408394756E+00 -0.82190541648E+01  0.21059957927E+01  0.85225947281E+01  0.51100000000E-03 0. -1.
        -11    1    3    3    0    0 -0.99726024556E+01 -0.28874518740E+02 -0.15073078214E+00  0.30548540919E+02  0.51100000000E-03 0.  1.
         12    1    3    3    0    0  0.21581183912E+02  0.24293886034E+02 -0.76799698388E+01  0.33390452743E+02  0.00000000000E+00 0. -1.
</event>
<event>
 7    1  0.2655561E-013  0.7246156E+02  0.7816164E-02  0.1226708E+00
        -11   -1    0    0    0    0  0.00000000000E+00  0.00000000000E+00  0.45593999997E+02  0.45594000000E+02  0.51100000000E-03 0.  1.
         11   -1    0    0    0    0 -0.00000000000E+00 -0.00000000000E+00 -0.45593999997E+02  0.45594000000E+02  0.51100000000E-03 0. -1.
    9900012    2    1    2    0    0  0.16545032001E+02  0.20626614092E+01 -0.85256599643E+01  0.72461560567E+02  0.69999987329E+02 0.  0.
        -12    1    1    2    0    0 -0.16545032001E+02 -0.20626614092E+01  0.85256599643E+01  0.18726439433E+02  0.00000000000E+00 0.  1.
         11    1    3    3    0    0 -0.36551010192E+01 -0.11620475920E+01 -0.12481819825E+01  0.40333703759E+01  0.51100000000E-03 0. -1.
        -11    1    3    3    0    0 -0.21234511401E+02 -0.70782246504E+01  0.69277872268E+01  0.23430748489E+02  0.51100000000E-03 0.  1.
         12    1    3    3    0    0  0.41434644421E+02  0.10302933652E+02 -0.14205265209E+02  0.44997441702E+02  0.00000000000E+00 0. -1.
</event>
<event>
 7    1  0.2862107E-013  0.7246154E+02  0.7816164E-02  0.1226708E+00
        -11   -1    0    0    0    0  0.00000000000E+00  0.00000000000E+00  0.45593999997E+02  0.45594000000E+02  0.51100000000E-03 0. -1.
         11   -1    0    0    0    0 -0.00000000000E+00 -0.00000000000E+00 -0.45593999997E+02  0.45594000000E+02  0.51100000000E-03 0.  1.
    9900012    2    1    2    0    0  0.12400883050E+02  0.66955967112E+01  0.12331568155E+02  0.72461535067E+02  0.69999954109E+02 0.  0.
        -12    1    1    2    0    0 -0.12400883050E+02 -0.66955967112E+01 -0.12331568155E+02  0.18726464933E+02  0.00000000000E+00 0.  1.
         11    1    3    3    0    0 -0.45033409060E+01  0.20072747918E+02  0.19190897805E+02  0.28133358262E+02  0.51100000000E-03 0. -1.
        -11    1    3    3    0    0  0.19375940990E+02  0.11771884550E+01  0.10068360643E+02  0.21867435794E+02  0.51100000000E-03 0.  1.
        -12    1    3    3    0    0 -0.24717170340E+01 -0.14554339662E+02 -0.16927690293E+02  0.22460741010E+02  0.00000000000E+00 0.  1.
</event>
<event>
 7    1  0.2655561E-013  0.7246157E+02  0.7816164E-02  0.1226708E+00
        -11   -1    0    0    0    0  0.00000000000E+00  0.00000000000E+00  0.45593999997E+02  0.45594000000E+02  0.51100000000E-03 0. -1.
         11   -1    0    0    0    0 -0.00000000000E+00 -0.00000000000E+00 -0.45593999997E+02  0.45594000000E+02  0.51100000000E-03 0.  1.
    9900012    2    1    2    0    0  0.47538296191E+01  0.48940176085E+01  0.17439294377E+02  0.72461567003E+02  0.69999995713E+02 0.  0.
        -12    1    1    2    0    0 -0.47538296191E+01 -0.48940176085E+01 -0.17439294377E+02  0.18726432997E+02  0.00000000000E+00 0.  1.
         11    1    3    3    0    0 -0.10909603251E+02  0.19096260528E+02  0.71583944071E+01  0.23128536918E+02  0.51100000000E-03 0. -1.
        -11    1    3    3    0    0  0.18391422593E+02  0.73281779521E+01 -0.76069030482E+01  0.21208762136E+02  0.51100000000E-03 0.  1.
        -12    1    3    3    0    0 -0.27279897236E+01 -0.21530420872E+02  0.17887803018E+02  0.28124267949E+02  0.00000000000E+00 0.  1.
</event>
<event>
 7    1  0.2655561E-013  0.7246145E+02  0.7816164E-02  0.1226708E+00
        -11   -1    0    0    0    0  0.00000000000E+00  0.00000000000E+00  0.45593999997E+02  0.45594000000E+02  0.51100000000E-03 0. -1.
         11   -1    0    0    0    0 -0.00000000000E+00 -0.00000000000E+00 -0.45593999997E+02  0.45594000000E+02  0.51100000000E-03 0.  1.
    9900012    2    1    2    0    0  0.20772355811E+01  0.78198918221E+00  0.18594552957E+02  0.72461446275E+02  0.69999838442E+02 0.  0.
        -12    1    1    2    0    0 -0.20772355811E+01 -0.78198918221E+00 -0.18594552957E+02  0.18726553725E+02  0.00000000000E+00 0.  1.
         11    1    3    3    0    0  0.11047316319E+02 -0.24855641325E+02  0.26814689526E+02  0.38195204911E+02  0.51100000000E-03 0. -1.
        -11    1    3    3    0    0  0.50097782161E+01  0.13681965396E+01 -0.52046169531E+00  0.52192643335E+01  0.51100000000E-03 0.  1.
         12    1    3    3    0    0 -0.13979858954E+02  0.24269433967E+02 -0.76996748739E+01  0.29046977031E+02  0.00000000000E+00 0. -1.
</event>
<event>
 7    1  0.2655561E-013  0.7246156E+02  0.7816164E-02  0.1226708E+00
        -11   -1    0    0    0    0  0.00000000000E+00  0.00000000000E+00  0.45593999997E+02  0.45594000000E+02  0.51100000000E-03 0.  1.
         11   -1    0    0    0    0 -0.00000000000E+00 -0.00000000000E+00 -0.45593999997E+02  0.45594000000E+02  0.51100000000E-03 0. -1.
    9900012    2    1    2    0    0 -0.53711061821E+01 -0.16887848394E+02 -0.60523954354E+01  0.72461556250E+02  0.69999981705E+02 0.  0.
        -12    1    1    2    0    0  0.53711061821E+01  0.16887848394E+02  0.60523954354E+01  0.18726443750E+02  0.00000000000E+00 0.  1.
         11    1    3    3    0    0 -0.52442073647E-01 -0.98099497831E+01 -0.15383473802E+02  0.18245249557E+02  0.51100000000E-03 0. -1.
        -11    1    3    3    0    0 -0.25795052714E+02 -0.14090200819E+02 -0.25904746195E+01  0.29506424091E+02  0.51100000000E-03 0.  1.
        -12    1    3    3    0    0  0.20476388606E+02  0.70123022081E+01  0.11921552987E+02  0.24709882602E+02  0.00000000000E+00 0.  1.
</event>
<event>
 7    1  0.2655561E-013  0.7246124E+02  0.7816164E-02  0.1226709E+00
        -11   -1    0    0    0    0  0.00000000000E+00  0.00000000000E+00  0.45593999997E+02  0.45594000000E+02  0.51100000000E-03 0. -1.
         11   -1    0    0    0    0 -0.00000000000E+00 -0.00000000000E+00 -0.45593999997E+02  0.45594000000E+02  0.51100000000E-03 0.  1.
    9900012    2    1    2    0    0 -0.55877309866E+01  0.16911629562E+02  0.57849503706E+01  0.72461238326E+02  0.69999567548E+02 0.  0.
        -12    1    1    2    0    0  0.55877309866E+01 -0.16911629562E+02 -0.57849503706E+01  0.18726761674E+02  0.00000000000E+00 0.  1.
         11    1    3    3    0    0  0.22842438678E+01  0.10400597284E+01  0.78257825409E+01  0.82184163271E+01  0.51100000000E-03 0. -1.
        -11    1    3    3    0    0  0.59017735845E+01 -0.18412630831E+02  0.14092970234E+02  0.23926297579E+02  0.51100000000E-03 0.  1.
         12    1    3    3    0    0 -0.13773748439E+02  0.34284200664E+02 -0.16133802405E+02  0.40316524420E+02  0.00000000000E+00 0. -1.
</event>
<event>
 7    1  0.2655561E-013  0.7246173E+02  0.7816164E-02  0.1226708E+00
        -11   -1    0    0    0    0  0.00000000000E+00  0.00000000000E+00  0.45593999997E+02  0.45594000000E+02  0.51100000000E-03 0. -1.
         11   -1    0    0    0    0 -0.00000000000E+00 -0.00000000000E+00 -0.45593999997E+02  0.45594000000E+02  0.51100000000E-03 0.  1.
    9900012    2    1    2    0    0 -0.49178364306E+01  0.13119534234E+02  0.12424408222E+02  0.72461729327E+02  0.70000207169E+02 0.  0.
        -12    1    1    2    0    0  0.49178364306E+01 -0.13119534234E+02 -0.12424408222E+02  0.18726270673E+02  0.00000000000E+00 0.  1.
         11    1    3    3    0    0  0.12266709206E+02  0.19487238201E+01  0.76847350311E+01  0.14605643841E+02  0.51100000000E-03 0. -1.
        -11    1    3    3    0    0  0.81187745051E+01 -0.54997594995E+01 -0.17642592891E+02  0.20184720414E+02  0.51100000000E-03 0.  1.
         12    1    3    3    0    0 -0.25303320141E+02  0.16670569913E+02  0.22382266082E+02  0.37671365071E+02  0.00000000000E+00 0. -1.
</event>
<event>
 7    1  0.2655561E-013  0.7246146E+02  0.7816164E-02  0.1226708E+00
        -11   -1    0    0    0    0  0.00000000000E+00  0.00000000000E+00  0.45593999997E+02  0.45594000000E+02  0.51100000000E-03 0.  1.
         11   -1    0    0    0    0 -0.00000000000E+00 -0.00000000000E+00 -0.45593999997E+02  0.45594000000E+02  0.51100000000E-03 0. -1.
    9900012    2    1    2    0    0  0.77088967088E+01  0.15393403549E+02 -0.73688153193E+01  0.72461457326E+02  0.69999852838E+02 0.  0.
        -12    1    1    2    0    0 -0.77088967088E+01 -0.15393403549E+02  0.73688153193E+01  0.18726542674E+02  0.00000000000E+00 0.  1.
         11    1    3    3    0    0  0.32788064045E+00 -0.60233579494E+01 -0.22509040550E+02  0.23303331381E+02  0.51100000000E-03 0. -1.
        -11    1    3    3    0    0 -0.85075684916E+01 -0.67573486937E+01  0.12711071214E+02  0.16721597252E+02  0.51100000000E-03 0.  1.
         12    1    3    3    0    0  0.15888584560E+02  0.28174110192E+02  0.24291540169E+01  0.32436528694E+02  0.00000000000E+00 0. -1.
</event>
<event>
 7    1  0.2655561E-013  0.7246162E+02  0.7816164E-02  0.1226708E+00
        -11   -1    0    0    0    0  0.00000000000E+00  0.00000000000E+00  0.45593999997E+02  0.45594000000E+02  0.51100000000E-03 0.  1.
         11   -1    0    0    0    0 -0.00000000000E+00 -0.00000000000E+00 -0.45593999997E+02  0.45594000000E+02  0.51100000000E-03 0. -1.
    9900012    2    1    2    0    0 -0.35042227035E+01  0.13695200193E+02 -0.12281655988E+02  0.72461623979E+02  0.70000069934E+02 0.  0.
        -12    1    1    2    0    0  0.35042227035E+01 -0.13695200193E+02  0.12281655988E+02  0.18726376021E+02  0.00000000000E+00 0.  1.
         11    1    3    3    0    0  0.15584151479E+01  0.22732422654E+02  0.10291497754E+00  0.22786010823E+02  0.51100000000E-03 0. -1.
        -11    1    3    3    0    0 -0.11206902273E+02  0.16057770764E+02 -0.13550519974E+02  0.23813089936E+02  0.51100000000E-03 0.  1.
        -12    1    3    3    0    0  0.61442644213E+01 -0.25094993225E+02  0.11659490081E+01  0.25862523220E+02  0.00000000000E+00 0.  1.
</event>
<event>
 7    1  0.2655561E-013  0.7246155E+02  0.7816164E-02  0.1226708E+00
        -11   -1    0    0    0    0  0.00000000000E+00  0.00000000000E+00  0.45593999997E+02  0.45594000000E+02  0.51100000000E-03 0.  1.
         11   -1    0    0    0    0 -0.00000000000E+00 -0.00000000000E+00 -0.45593999997E+02  0.45594000000E+02  0.51100000000E-03 0. -1.
    9900012    2    1    2    0    0  0.12559494044E+02 -0.38444560923E+01 -0.13347624910E+02  0.72461552819E+02  0.69999977235E+02 0.  0.
        -12    1    1    2    0    0 -0.12559494044E+02  0.38444560923E+01  0.13347624910E+02  0.18726447181E+02  0.00000000000E+00 0.  1.
         11    1    3    3    0    0  0.26446757454E+01 -0.17411033282E+02  0.33224077593E+01  0.17921405729E+02  0.51100000000E-03 0. -1.
        -11    1    3    3    0    0  0.70019493551E+01  0.12073717644E+02  0.16270909884E+02  0.21436988157E+02  0.51100000000E-03 0.  1.
         12    1    3    3    0    0  0.29128689436E+01  0.14928595451E+01 -0.32940942553E+02  0.33103158933E+02  0.00000000000E+00 0. -1.
</event>
<event>
 7    1  0.2655561E-013  0.7246158E+02  0.7816164E-02  0.1226708E+00
        -11   -1    0    0    0    0  0.00000000000E+00  0.00000000000E+00  0.45593999997E+02  0.45594000000E+02  0.51100000000E-03 0. -1.
         11   -1    0    0    0    0 -0.00000000000E+00 -0.00000000000E+00 -0.45593999997E+02  0.45594000000E+02  0.51100000000E-03 0.  1.
    9900012    2    1    2    0    0  0.17668229110E+02  0.61880318991E+01 -0.46967295522E+00  0.72461584130E+02  0.70000018023E+02 0.  0.
        -12    1    1    2    0    0 -0.17668229110E+02 -0.61880318991E+01  0.46967295522E+00  0.18726415870E+02  0.00000000000E+00 0.  1.
         11    1    3    3    0    0 -0.11173766372E+02 -0.16082474549E+02  0.18136451565E+02  0.26691382846E+02  0.51100000000E-03 0. -1.
        -11    1    3    3    0    0  0.53244606817E+01 -0.39140779195E+01 -0.33800864411E+01  0.74225920083E+01  0.51100000000E-03 0.  1.
        -12    1    3    3    0    0  0.23517534800E+02  0.26184584368E+02 -0.15226038080E+02  0.38347609276E+02  0.00000000000E+00 0.  1.
</event>
<event>
 7    1  0.2655561E-013  0.7246158E+02  0.7816164E-02  0.1226708E+00
        -11   -1    0    0    0    0  0.00000000000E+00  0.00000000000E+00  0.45593999997E+02  0.45594000000E+02  0.51100000000E-03 0. -1.
         11   -1    0    0    0    0 -0.00000000000E+00 -0.00000000000E+00 -0.45593999997E+02  0.45594000000E+02  0.51100000000E-03 0.  1.
    9900012    2    1    2    0    0  0.17771037070E+02  0.39743652982E+01  0.43673184049E+01  0.72461579944E+02  0.70000012570E+02 0.  0.
        -12    1    1    2    0    0 -0.17771037070E+02 -0.39743652982E+01 -0.43673184049E+01  0.18726420056E+02  0.00000000000E+00 0.  1.
         11    1    3    3    0    0  0.60277670433E+01  0.64488773735E+01  0.33663110727E+02  0.34801250250E+02  0.51100000000E-03 0. -1.
        -11    1    3    3    0    0  0.16599095669E+01 -0.85297285561E+00  0.31410736066E+01  0.36536565418E+01  0.51100000000E-03 0.  1.
        -12    1    3    3    0    0  0.10083360460E+02 -0.16215392197E+01 -0.32436865928E+02  0.34006673152E+02  0.00000000000E+00 0.  1.
</event>
<event>
 7    1  0.2655561E-013  0.7246152E+02  0.7816164E-02  0.1226708E+00
        -11   -1    0    0    0    0  0.00000000000E+00  0.00000000000E+00  0.45593999997E+02  0.45594000000E+02  0.51100000000E-03 0.  1.
         11   -1    0    0    0    0 -0.00000000000E+00 -0.00000000000E+00 -0.45593999997E+02  0.45594000000E+02  0.51100000000E-03 0. -1.
    9900012    2    1    2    0    0  0.96146378264E+01  0.53703726754E+01 -0.15145921630E+02  0.72461518611E+02  0.69999932673E+02 0.  0.
        -12    1    1    2    0    0 -0.96146378264E+01 -0.53703726754E+01  0.15145921630E+02  0.18726481389E+02  0.00000000000E+00 0.  1.
         11    1    3    3    0    0 -0.53162489568E+01  0.22229781745E+02 -0.69188861140E+01  0.23880885342E+02  0.51100000000E-03 0. -1.
        -11    1    3    3    0    0  0.78715288365E+01 -0.83860029651E+01  0.17299214263E+02  0.20773753304E+02  0.51100000000E-03 0.  1.
         12    1    3    3    0    0  0.70593579468E+01 -0.84734061041E+01 -0.25526249779E+02  0.27806879965E+02  0.00000000000E+00 0. -1.
</event>
<event>
 7    1  0.2655561E-013  0.7246154E+02  0.7816164E-02  0.1226708E+00
        -11   -1    0    0    0    0  0.00000000000E+00  0.00000000000E+00  0.45593999997E+02  0.45594000000E+02  0.51100000000E-03 0. -1.
         11   -1    0    0    0    0 -0.00000000000E+00 -0.00000000000E+00 -0.45593999997E+02  0.45594000000E+02  0.51100000000E-03 0.  1.
    9900012    2    1    2    0    0  0.28959351672E+01  0.16465936828E+02  0.84360368106E+01  0.72461541895E+02  0.69999963004E+02 0.  0.
        -12    1    1    2    0    0 -0.28959351672E+01 -0.16465936828E+02 -0.84360368106E+01  0.18726458105E+02  0.00000000000E+00 0.  1.
         11    1    3    3    0    0 -0.88550549069E+01  0.83769017118E+01  0.24696786210E+00  0.12192024979E+02  0.51100000000E-03 0. -1.
        -11    1    3    3    0    0 -0.21613973822E+01  0.31781970036E+02  0.10096004266E+01  0.31871375108E+02  0.51100000000E-03 0.  1.
         12    1    3    3    0    0  0.13912387456E+02 -0.23692934920E+02  0.71794685219E+01  0.28398141808E+02  0.00000000000E+00 0. -1.
</event>
<event>
 7    1  0.2655561E-013  0.7246144E+02  0.7816164E-02  0.1226708E+00
        -11   -1    0    0    0    0  0.00000000000E+00  0.00000000000E+00  0.45593999997E+02  0.45594000000E+02  0.51100000000E-03 0.  1.
         11   -1    0    0    0    0 -0.00000000000E+00 -0.00000000000E+00 -0.45593999997E+02  0.45594000000E+02  0.51100000000E-03 0. -1.
    9900012    2    1    2    0    0  0.38695888620E+01 -0.15439609380E+01 -0.18257227543E+02  0.72461444233E+02  0.69999835782E+02 0.  0.
        -12    1    1    2    0    0 -0.38695888620E+01  0.15439609380E+01  0.18257227543E+02  0.18726555767E+02  0.00000000000E+00 0.  1.
         11    1    3    3    0    0 -0.98613589715E+00  0.34913410558E+01 -0.15343695546E+01  0.39390629047E+01  0.51100000000E-03 0. -1.
        -11    1    3    3    0    0 -0.13967396991E+01  0.23845742603E+02  0.12502895735E+02  0.26960948130E+02  0.51100000000E-03 0.  1.
        -12    1    3    3    0    0  0.62524644583E+01 -0.28881044597E+02 -0.29225753723E+02  0.41561433198E+02  0.00000000000E+00 0.  1.
</event>
<event>
 7    1  0.2655561E-013  0.7246157E+02  0.7816164E-02  0.1226708E+00
        -11   -1    0    0    0    0  0.00000000000E+00  0.00000000000E+00  0.45593999997E+02  0.45594000000E+02  0.51100000000E-03 0.  1.
         11   -1    0    0    0    0 -0.00000000000E+00 -0.00000000000E+00 -0.45593999997E+02  0.45594000000E+02  0.51100000000E-03 0. -1.
    9900012    2    1    2    0    0  0.18434193745E+02 -0.31858008802E+01  0.84289370741E+00  0.72461566915E+02  0.69999995598E+02 0.  0.
        -12    1    1    2    0    0 -0.18434193745E+02  0.31858008802E+01 -0.84289370741E+00  0.18726433085E+02  0.00000000000E+00 0.  1.
         11    1    3    3    0    0 -0.89565242058E+01 -0.56528954050E-01 -0.99668339527E+01  0.13400011219E+02  0.51100000000E-03 0. -1.
        -11    1    3    3    0    0  0.16427686988E+02  0.23462605430E+02  0.98296681814E+01  0.30281762336E+02  0.51100000000E-03 0.  1.
        -12    1    3    3    0    0  0.10963030963E+02 -0.26591877357E+02  0.98005947875E+00  0.28779793360E+02  0.00000000000E+00 0.  1.
</event>
<event>
 7    1  0.2655561E-013  0.7246156E+02  0.7816164E-02  0.1226708E+00
        -11   -1    0    0    0    0  0.00000000000E+00  0.00000000000E+00  0.45593999997E+02  0.45594000000E+02  0.51100000000E-03 0.  1.
         11   -1    0    0    0    0 -0.00000000000E+00 -0.00000000000E+00 -0.45593999997E+02  0.45594000000E+02  0.51100000000E-03 0. -1.
    9900012    2    1    2    0    0 -0.51863839762E+01  0.12288833626E+02  0.13144028304E+02  0.72461561719E+02  0.69999988829E+02 0.  0.
        -12    1    1    2    0    0  0.51863839762E+01 -0.12288833626E+02 -0.13144028304E+02  0.18726438281E+02  0.00000000000E+00 0.  1.
         11    1    3    3    0    0  0.60360293558E+01  0.84079794279E+01  0.20183217586E+02  0.22682372910E+02  0.51100000000E-03 0.  1.
        -11    1    3    3    0    0 -0.17864378888E+02 -0.14037474174E+02  0.93844655467E+01  0.24581596939E+02  0.51100000000E-03 0. -1.
         12    1    3    3    0    0  0.66419655558E+01  0.17918328372E+02 -0.16423654829E+02  0.25197591870E+02  0.00000000000E+00 0. -1.
</event>
<event>
 7    1  0.2655561E-013  0.7246161E+02  0.7816164E-02  0.1226708E+00
        -11   -1    0    0    0    0  0.00000000000E+00  0.00000000000E+00  0.45593999997E+02  0.45594000000E+02  0.51100000000E-03 0. -1.
         11   -1    0    0    0    0 -0.00000000000E+00 -0.00000000000E+00 -0.45593999997E+02  0.45594000000E+02  0.51100000000E-03 0.  1.
    9900012    2    1    2    0    0  0.46321845031E+01 -0.14163104364E+02 -0.11341388513E+02  0.72461608146E+02  0.70000049308E+02 0.  0.
        -12    1    1    2    0    0 -0.46321845031E+01  0.14163104364E+02  0.11341388513E+02  0.18726391854E+02  0.00000000000E+00 0.  1.
         11    1    3    3    0    0  0.90386925657E+01  0.12494082057E+02 -0.82611622980E+01  0.17494194823E+02  0.51100000000E-03 0. -1.
        -11    1    3    3    0    0 -0.16768993859E+02 -0.22615391212E+02 -0.19331653804E+02  0.34152128979E+02  0.51100000000E-03 0.  1.
         12    1    3    3    0    0  0.12362485797E+02 -0.40417952079E+01  0.16251427590E+02  0.20815284343E+02  0.00000000000E+00 0. -1.
</event>
<event>
 7    1  0.2655561E-013  0.7246158E+02  0.7816164E-02  0.1226708E+00
        -11   -1    0    0    0    0  0.00000000000E+00  0.00000000000E+00  0.45593999997E+02  0.45594000000E+02  0.51100000000E-03 0. -1.
         11   -1    0    0    0    0 -0.00000000000E+00 -0.00000000000E+00 -0.45593999997E+02  0.45594000000E+02  0.51100000000E-03 0.  1.
    9900012    2    1    2    0    0  0.48317263658E+01  0.15663706043E+02  0.90543657229E+01  0.72461580018E+02  0.70000012667E+02 0.  0.
        -12    1    1    2    0    0 -0.48317263658E+01 -0.15663706043E+02 -0.90543657229E+01  0.18726419982E+02  0.00000000000E+00 0.  1.
         11    1    3    3    0    0  0.63545048883E+00  0.18743246084E+01 -0.70687107287E+01  0.73405423293E+01  0.51100000000E-03 0. -1.
        -11    1    3    3    0    0  0.26923844265E+02  0.18450763353E+02 -0.58583025219E+01  0.33160877054E+02  0.51100000000E-03 0.  1.
         12    1    3    3    0    0 -0.22727568388E+02 -0.46613819177E+01  0.21981378973E+02  0.31960160635E+02  0.00000000000E+00 0. -1.
</event>
<event>
 7    1  0.2655561E-013  0.7246155E+02  0.7816164E-02  0.1226708E+00
        -11   -1    0    0    0    0  0.00000000000E+00  0.00000000000E+00  0.45593999997E+02  0.45594000000E+02  0.51100000000E-03 0.  1.
         11   -1    0    0    0    0 -0.00000000000E+00 -0.00000000000E+00 -0.45593999997E+02  0.45594000000E+02  0.51100000000E-03 0. -1.
    9900012    2    1    2    0    0  0.12851479752E+02  0.64632068599E+01 -0.11989434530E+02  0.72461545048E+02  0.69999967112E+02 0.  0.
        -12    1    1    2    0    0 -0.12851479752E+02 -0.64632068599E+01  0.11989434530E+02  0.18726454952E+02  0.00000000000E+00 0.  1.
         11    1    3    3    0    0  0.27950784530E+02  0.20537475034E+02 -0.87279077943E+01  0.35766053897E+02  0.51100000000E-03 0. -1.
        -11    1    3    3    0    0  0.78526328227E+01  0.10747978655E+01 -0.45968799953E+01  0.91624417407E+01  0.51100000000E-03 0.  1.
        -12    1    3    3    0    0 -0.22951937601E+02 -0.15149066040E+02  0.13353532596E+01  0.27533049411E+02  0.00000000000E+00 0.  1.
</event>
<event>
 7    1  0.2655561E-013  0.7246158E+02  0.7816164E-02  0.1226708E+00
        -11   -1    0    0    0    0  0.00000000000E+00  0.00000000000E+00  0.45593999997E+02  0.45594000000E+02  0.51100000000E-03 0. -1.
         11   -1    0    0    0    0 -0.00000000000E+00 -0.00000000000E+00 -0.45593999997E+02  0.45594000000E+02  0.51100000000E-03 0.  1.
    9900012    2    1    2    0    0  0.12744126794E+02  0.13453529872E+02  0.26959947368E+01  0.72461584930E+02  0.70000019066E+02 0.  0.
        -12    1    1    2    0    0 -0.12744126794E+02 -0.13453529872E+02 -0.26959947368E+01  0.18726415070E+02  0.00000000000E+00 0.  1.
         11    1    3    3    0    0  0.10444580624E+02 -0.94217235591E+01  0.35546016000E+00  0.14070696195E+02  0.51100000000E-03 0. -1.
        -11    1    3    3    0    0  0.21010062002E+02 -0.59902348194E+01  0.85038191791E+01  0.23443987703E+02  0.51100000000E-03 0.  1.
         12    1    3    3    0    0 -0.18710515833E+02  0.28865488250E+02 -0.61632846023E+01  0.34946901032E+02  0.00000000000E+00 0. -1.
</event>
<event>
 7    1  0.2655561E-013  0.7246154E+02  0.7816164E-02  0.1226708E+00
        -11   -1    0    0    0    0  0.00000000000E+00  0.00000000000E+00  0.45593999997E+02  0.45594000000E+02  0.51100000000E-03 0.  1.
         11   -1    0    0    0    0 -0.00000000000E+00 -0.00000000000E+00 -0.45593999997E+02  0.45594000000E+02  0.51100000000E-03 0. -1.
    9900012    2    1    2    0    0  0.84557696431E+01 -0.15374697778E+02 -0.65420848179E+01  0.72461541558E+02  0.69999962565E+02 0.  0.
        -12    1    1    2    0    0 -0.84557696431E+01  0.15374697778E+02  0.65420848179E+01  0.18726458442E+02  0.00000000000E+00 0.  1.
         11    1    3    3    0    0 -0.18365256971E+01 -0.22636306054E+02  0.12679604917E+02  0.26010527859E+02  0.51100000000E-03 0. -1.
        -11    1    3    3    0    0  0.19907049611E+02 -0.73801341806E+01 -0.19650728151E+02  0.28929364353E+02  0.51100000000E-03 0.  1.
        -12    1    3    3    0    0 -0.96147542711E+01  0.14641742456E+02  0.42903841615E+00  0.17521649346E+02  0.00000000000E+00 0.  1.
</event>
<event>
 7    1  0.2655561E-013  0.7246154E+02  0.7816164E-02  0.1226708E+00
        -11   -1    0    0    0    0  0.00000000000E+00  0.00000000000E+00  0.45593999997E+02  0.45594000000E+02  0.51100000000E-03 0.  1.
         11   -1    0    0    0    0 -0.00000000000E+00 -0.00000000000E+00 -0.45593999997E+02  0.45594000000E+02  0.51100000000E-03 0. -1.
    9900012    2    1    2    0    0  0.17657485171E+02 -0.20935492266E+01  0.58745696296E+01  0.72461540130E+02  0.69999960706E+02 0.  0.
        -12    1    1    2    0    0 -0.17657485171E+02  0.20935492266E+01 -0.58745696296E+01  0.18726459870E+02  0.00000000000E+00 0.  1.
         11    1    3    3    0    0 -0.58880120055E+01  0.38797505407E+00  0.97268074127E+01  0.11376730318E+02  0.51100000000E-03 0. -1.
        -11    1    3    3    0    0  0.35642862864E+02  0.10237767504E+02  0.10354584522E+02  0.38502506119E+02  0.51100000000E-03 0.  1.
         12    1    3    3    0    0 -0.12097365687E+02 -0.12719291785E+02 -0.14206822305E+02  0.22582303693E+02  0.00000000000E+00 0. -1.
</event>
<event>
 7    1  0.2655561E-013  0.7246162E+02  0.7816164E-02  0.1226708E+00
        -11   -1    0    0    0    0  0.00000000000E+00  0.00000000000E+00  0.45593999997E+02  0.45594000000E+02  0.51100000000E-03 0. -1.
         11   -1    0    0    0    0 -0.00000000000E+00 -0.00000000000E+00 -0.45593999997E+02  0.45594000000E+02  0.51100000000E-03 0.  1.
    9900012    2    1    2    0    0 -0.12677375308E+02 -0.12299253892E+02  0.62201148456E+01  0.72461619685E+02  0.70000064341E+02 0.  0.
        -12    1    1    2    0    0  0.12677375308E+02  0.12299253892E+02 -0.62201148456E+01  0.18726380315E+02  0.00000000000E+00 0.  1.
         11    1    3    3    0    0 -0.15935508042E+02  0.17268037087E+02 -0.17768309806E+01  0.23564436127E+02  0.51100000000E-03 0. -1.
        -11    1    3    3    0    0 -0.12433961539E+02 -0.94797757598E+01  0.15810777846E+02  0.22236237190E+02  0.51100000000E-03 0.  1.
        -12    1    3    3    0    0  0.15692094273E+02 -0.20087515220E+02 -0.78138320198E+01  0.26660946368E+02  0.00000000000E+00 0.  1.
</event>
<event>
 7    1  0.2655561E-013  0.7246157E+02  0.7816164E-02  0.1226708E+00
        -11   -1    0    0    0    0  0.00000000000E+00  0.00000000000E+00  0.45593999997E+02  0.45594000000E+02  0.51100000000E-03 0.  1.
         11   -1    0    0    0    0 -0.00000000000E+00 -0.00000000000E+00 -0.45593999997E+02  0.45594000000E+02  0.51100000000E-03 0. -1.
    9900012    2    1    2    0    0 -0.21279607552E+01 -0.16764473711E+02  0.80686768535E+01  0.72461565691E+02  0.69999994003E+02 0.  0.
        -12    1    1    2    0    0  0.21279607552E+01  0.16764473711E+02 -0.80686768535E+01  0.18726434309E+02  0.00000000000E+00 0.  1.
         11    1    3    3    0    0  0.63863958560E+01 -0.79768892403E+01  0.13826015885E+02  0.17192310185E+02  0.51100000000E-03 0. -1.
        -11    1    3    3    0    0  0.11403831697E+02 -0.25049186568E+02  0.39089243469E+01  0.27799079389E+02  0.51100000000E-03 0.  1.
         12    1    3    3    0    0 -0.19918188308E+02  0.16261602097E+02 -0.96662633780E+01  0.27470176117E+02  0.00000000000E+00 0. -1.
</event>
<event>
 7    1  0.2655561E-013  0.7246156E+02  0.7816164E-02  0.1226708E+00
        -11   -1    0    0    0    0  0.00000000000E+00  0.00000000000E+00  0.45593999997E+02  0.45594000000E+02  0.51100000000E-03 0.  1.
         11   -1    0    0    0    0 -0.00000000000E+00 -0.00000000000E+00 -0.45593999997E+02  0.45594000000E+02  0.51100000000E-03 0. -1.
    9900012    2    1    2    0    0  0.17133630267E+02  0.22850421656E+01 -0.72039373053E+01  0.72461563699E+02  0.69999991409E+02 0.  0.
        -12    1    1    2    0    0 -0.17133630267E+02 -0.22850421656E+01  0.72039373053E+01  0.18726436301E+02  0.00000000000E+00 0.  1.
         11    1    3    3    0    0 -0.45149792432E+01 -0.16985290833E+01 -0.29150368534E+02  0.29546810734E+02  0.51100000000E-03 0. -1.
        -11    1    3    3    0    0  0.61350271817E+01 -0.44764230213E+01 -0.61169254460E+01  0.97515998051E+01  0.51100000000E-03 0.  1.
        -12    1    3    3    0    0  0.15513582328E+02  0.84599942702E+01  0.28063356675E+02  0.33163153161E+02  0.00000000000E+00 0.  1.
</event>
<event>
 7    1  0.2655561E-013  0.7246157E+02  0.7816164E-02  0.1226708E+00
        -11   -1    0    0    0    0  0.00000000000E+00  0.00000000000E+00  0.45593999997E+02  0.45594000000E+02  0.51100000000E-03 0. -1.
         11   -1    0    0    0    0 -0.00000000000E+00 -0.00000000000E+00 -0.45593999997E+02  0.45594000000E+02  0.51100000000E-03 0.  1.
    9900012    2    1    2    0    0 -0.34805326168E+01  0.20660527485E+01  0.18283781327E+02  0.72461565719E+02  0.69999994040E+02 0.  0.
        -12    1    1    2    0    0  0.34805326168E+01 -0.20660527485E+01 -0.18283781327E+02  0.18726434281E+02  0.00000000000E+00 0.  1.
         11    1    3    3    0    0 -0.19643676378E+02 -0.96177045086E+01  0.36769019841E+00  0.21874859040E+02  0.51100000000E-03 0. -1.
        -11    1    3    3    0    0 -0.85036780390E+01 -0.80023376928E+01 -0.37977223104E+01  0.12278951248E+02  0.51100000000E-03 0.  1.
         12    1    3    3    0    0  0.24666821801E+02  0.19686094950E+02  0.21713813439E+02  0.38307755431E+02  0.00000000000E+00 0. -1.
</event>
<event>
 7    1  0.2655561E-013  0.7246136E+02  0.7816164E-02  0.1226709E+00
        -11   -1    0    0    0    0  0.00000000000E+00  0.00000000000E+00  0.45593999997E+02  0.45594000000E+02  0.51100000000E-03 0.  1.
         11   -1    0    0    0    0 -0.00000000000E+00 -0.00000000000E+00 -0.45593999997E+02  0.45594000000E+02  0.51100000000E-03 0. -1.
    9900012    2    1    2    0    0 -0.12276221189E+02 -0.14078658780E+02  0.13315225396E+01  0.72461356093E+02  0.69999720963E+02 0.  0.
        -12    1    1    2    0    0  0.12276221189E+02  0.14078658780E+02 -0.13315225396E+01  0.18726643907E+02  0.00000000000E+00 0.  1.
         11    1    3    3    0    0 -0.78472014757E+01 -0.20487813456E+02  0.17149835271E+02  0.27846829646E+02  0.51100000000E-03 0. -1.
        -11    1    3    3    0    0 -0.18779831096E+02  0.85223867565E+01  0.30152557263E+01  0.20842382287E+02  0.51100000000E-03 0.  1.
         12    1    3    3    0    0  0.14350811382E+02 -0.21132320800E+01 -0.18833568458E+02  0.23772144161E+02  0.00000000000E+00 0. -1.
</event>
<event>
 7    1  0.2655561E-013  0.7246151E+02  0.7816164E-02  0.1226708E+00
        -11   -1    0    0    0    0  0.00000000000E+00  0.00000000000E+00  0.45593999997E+02  0.45594000000E+02  0.51100000000E-03 0.  1.
         11   -1    0    0    0    0 -0.00000000000E+00 -0.00000000000E+00 -0.45593999997E+02  0.45594000000E+02  0.51100000000E-03 0. -1.
    9900012    2    1    2    0    0 -0.17082064434E+02  0.46554583986E+01 -0.61001108598E+01  0.72461506182E+02  0.69999916482E+02 0.  0.
        -12    1    1    2    0    0  0.17082064434E+02 -0.46554583986E+01  0.61001108598E+01  0.18726493818E+02  0.00000000000E+00 0.  1.
         11    1    3    3    0    0 -0.10333691306E+02  0.31981472511E+01  0.36509042429E+01  0.11416760657E+02  0.51100000000E-03 0. -1.
        -11    1    3    3    0    0 -0.29239605035E+02  0.16008861757E+02 -0.33549850770E+01  0.33503642824E+02  0.51100000000E-03 0.  1.
        -12    1    3    3    0    0  0.22491231908E+02 -0.14551550609E+02 -0.63960300257E+01  0.27541102701E+02  0.00000000000E+00 0.  1.
</event>
<event>
 7    1  0.2655561E-013  0.7246169E+02  0.7816164E-02  0.1226708E+00
        -11   -1    0    0    0    0  0.00000000000E+00  0.00000000000E+00  0.45593999997E+02  0.45594000000E+02  0.51100000000E-03 0.  1.
         11   -1    0    0    0    0 -0.00000000000E+00 -0.00000000000E+00 -0.45593999997E+02  0.45594000000E+02  0.51100000000E-03 0. -1.
    9900012    2    1    2    0    0  0.15740280847E+01  0.14309096626E+02 -0.11976935329E+02  0.72461687214E+02  0.70000152310E+02 0.  0.
        -12    1    1    2    0    0 -0.15740280847E+01 -0.14309096626E+02  0.11976935329E+02  0.18726312786E+02  0.00000000000E+00 0.  1.
         11    1    3    3    0    0 -0.19557286349E+01 -0.90600545036E+00 -0.30853643414E+02  0.30928838202E+02  0.51100000000E-03 0. -1.
        -11    1    3    3    0    0 -0.83045147330E+01 -0.75801345501E+01  0.46080960796E+01  0.12151458945E+02  0.51100000000E-03 0.  1.
        -12    1    3    3    0    0  0.11834271453E+02  0.22795236627E+02  0.14268612006E+02  0.29381390067E+02  0.00000000000E+00 0.  1.
</event>
<event>
 7    1  0.2655561E-013  0.7246155E+02  0.7816164E-02  0.1226708E+00
        -11   -1    0    0    0    0  0.00000000000E+00  0.00000000000E+00  0.45593999997E+02  0.45594000000E+02  0.51100000000E-03 0.  1.
         11   -1    0    0    0    0 -0.00000000000E+00 -0.00000000000E+00 -0.45593999997E+02  0.45594000000E+02  0.51100000000E-03 0. -1.
    9900012    2    1    2    0    0  0.46239795367E+01  0.17606823638E+02 -0.43930160307E+01  0.72461547714E+02  0.69999970585E+02 0.  0.
        -12    1    1    2    0    0 -0.46239795367E+01 -0.17606823638E+02  0.43930160307E+01  0.18726452286E+02  0.00000000000E+00 0.  1.
         11    1    3    3    0    0  0.20946617174E+02  0.10892058596E+02  0.12829719589E+02  0.26870046827E+02  0.51100000000E-03 0. -1.
        -11    1    3    3    0    0  0.10517144525E+02  0.27679186546E+01  0.35318935077E+01  0.11434420609E+02  0.51100000000E-03 0.  1.
        -12    1    3    3    0    0 -0.26839782163E+02  0.39468463880E+01 -0.20754629127E+02  0.34157080278E+02  0.00000000000E+00 0.  1.
</event>
<event>
 7    1  0.2655561E-013  0.7246156E+02  0.7816164E-02  0.1226708E+00
        -11   -1    0    0    0    0  0.00000000000E+00  0.00000000000E+00  0.45593999997E+02  0.45594000000E+02  0.51100000000E-03 0.  1.
         11   -1    0    0    0    0 -0.00000000000E+00 -0.00000000000E+00 -0.45593999997E+02  0.45594000000E+02  0.51100000000E-03 0. -1.
    9900012    2    1    2    0    0  0.12447689169E+02 -0.61003839431E+01 -0.12590461934E+02  0.72461564632E+02  0.69999992623E+02 0.  0.
        -12    1    1    2    0    0 -0.12447689169E+02  0.61003839431E+01  0.12590461934E+02  0.18726435368E+02  0.00000000000E+00 0.  1.
         11    1    3    3    0    0  0.36001427562E+00 -0.21400267828E+02 -0.59185670782E+01  0.22206542052E+02  0.51100000000E-03 0. -1.
        -11    1    3    3    0    0  0.11697038599E+02 -0.15125929089E+02 -0.81684559313E-01  0.19121221598E+02  0.51100000000E-03 0.  1.
        -12    1    3    3    0    0  0.39063629432E+00  0.30425812973E+02 -0.65902102961E+01  0.31133800981E+02  0.00000000000E+00 0.  1.
</event>
<event>
 7    1  0.2655561E-013  0.7246160E+02  0.7816164E-02  0.1226708E+00
        -11   -1    0    0    0    0  0.00000000000E+00  0.00000000000E+00  0.45593999997E+02  0.45594000000E+02  0.51100000000E-03 0.  1.
         11   -1    0    0    0    0 -0.00000000000E+00 -0.00000000000E+00 -0.45593999997E+02  0.45594000000E+02  0.51100000000E-03 0. -1.
    9900012    2    1    2    0    0 -0.15280371850E+01 -0.13300555851E+02 -0.13093450471E+02  0.72461598081E+02  0.70000036197E+02 0.  0.
        -12    1    1    2    0    0  0.15280371850E+01  0.13300555851E+02  0.13093450471E+02  0.18726401919E+02  0.00000000000E+00 0.  1.
         11    1    3    3    0    0  0.90755358523E+01  0.21722531896E+02  0.45506535046E+01  0.23977952176E+02  0.51100000000E-03 0. -1.
        -11    1    3    3    0    0  0.40511022855E+01 -0.69227081288E+01  0.50730393693E+01  0.94905767089E+01  0.51100000000E-03 0.  1.
        -12    1    3    3    0    0 -0.14654675323E+02 -0.28100379619E+02 -0.22717143345E+02  0.38993069196E+02  0.00000000000E+00 0.  1.
</event>
<event>
 7    1  0.2655561E-013  0.7246163E+02  0.7816164E-02  0.1226708E+00
        -11   -1    0    0    0    0  0.00000000000E+00  0.00000000000E+00  0.45593999997E+02  0.45594000000E+02  0.51100000000E-03 0.  1.
         11   -1    0    0    0    0 -0.00000000000E+00 -0.00000000000E+00 -0.45593999997E+02  0.45594000000E+02  0.51100000000E-03 0. -1.
    9900012    2    1    2    0    0  0.87768680040E+01 -0.12226642000E+02 -0.11142381077E+02  0.72461632423E+02  0.70000080934E+02 0.  0.
        -12    1    1    2    0    0 -0.87768680040E+01  0.12226642000E+02  0.11142381077E+02  0.18726367577E+02  0.00000000000E+00 0.  1.
         11    1    3    3    0    0  0.13500256885E+01  0.76203988248E+01 -0.23835349093E+01  0.80977951649E+01  0.51100000000E-03 0. -1.
        -11    1    3    3    0    0  0.25867803225E+02 -0.25681517247E+01  0.14716397889E+02  0.29871575353E+02  0.51100000000E-03 0.  1.
        -12    1    3    3    0    0 -0.18440960910E+02 -0.17278889100E+02 -0.23475244056E+02  0.34492261905E+02  0.00000000000E+00 0.  1.
</event>
<event>
 7    1  0.2655561E-013  0.7246161E+02  0.7816164E-02  0.1226708E+00
        -11   -1    0    0    0    0  0.00000000000E+00  0.00000000000E+00  0.45593999997E+02  0.45594000000E+02  0.51100000000E-03 0. -1.
         11   -1    0    0    0    0 -0.00000000000E+00 -0.00000000000E+00 -0.45593999997E+02  0.45594000000E+02  0.51100000000E-03 0.  1.
    9900012    2    1    2    0    0  0.14635848454E+02 -0.10393294832E+02  0.53337798463E+01  0.72461605662E+02  0.70000046073E+02 0.  0.
        -12    1    1    2    0    0 -0.14635848454E+02  0.10393294832E+02 -0.53337798463E+01  0.18726394338E+02  0.00000000000E+00 0.  1.
         11    1    3    3    0    0 -0.75867265339E+01 -0.13467501638E+02  0.14133426920E+02  0.20944826966E+02  0.51100000000E-03 0. -1.
        -11    1    3    3    0    0 -0.29535803085E+01  0.79179487089E+01  0.14558730655E+02  0.16833721720E+02  0.51100000000E-03 0.  1.
        -12    1    3    3    0    0  0.25176155296E+02 -0.48437419037E+01 -0.23358377729E+02  0.34683056977E+02  0.00000000000E+00 0.  1.
</event>
<event>
 7    1  0.2655561E-013  0.7246179E+02  0.7816164E-02  0.1226707E+00
        -11   -1    0    0    0    0  0.00000000000E+00  0.00000000000E+00  0.45593999997E+02  0.45594000000E+02  0.51100000000E-03 0.  1.
         11   -1    0    0    0    0 -0.00000000000E+00 -0.00000000000E+00 -0.45593999997E+02  0.45594000000E+02  0.51100000000E-03 0. -1.
    9900012    2    1    2    0    0 -0.91063216245E+01  0.14002790652E+02 -0.84656803080E+01  0.72461788887E+02  0.70000284757E+02 0.  0.
        -12    1    1    2    0    0  0.91063216245E+01 -0.14002790652E+02  0.84656803080E+01  0.18726211113E+02  0.00000000000E+00 0.  1.
         11    1    3    3    0    0  0.37148578596E+00  0.26771876998E+01  0.80862566936E+01  0.85260121537E+01  0.51100000000E-03 0. -1.
        -11    1    3    3    0    0 -0.13565127058E+02 -0.14953747616E+02  0.13128647644E+02  0.24082953081E+02  0.51100000000E-03 0.  1.
         12    1    3    3    0    0  0.40873196475E+01  0.26279350569E+02 -0.29680584645E+02  0.39852823653E+02  0.00000000000E+00 0. -1.
</event>
<event>
 7    1  0.2655561E-013  0.7246151E+02  0.7816164E-02  0.1226708E+00
        -11   -1    0    0    0    0  0.00000000000E+00  0.00000000000E+00  0.45593999997E+02  0.45594000000E+02  0.51100000000E-03 0.  1.
         11   -1    0    0    0    0 -0.00000000000E+00 -0.00000000000E+00 -0.45593999997E+02  0.45594000000E+02  0.51100000000E-03 0. -1.
    9900012    2    1    2    0    0  0.11412788881E+02 -0.24061914440E+01 -0.14650600798E+02  0.72461505105E+02  0.69999915079E+02 0.  0.
        -12    1    1    2    0    0 -0.11412788881E+02  0.24061914440E+01  0.14650600798E+02  0.18726494895E+02  0.00000000000E+00 0.  1.
         11    1    3    3    0    0  0.92678301590E+01 -0.14123051282E+02 -0.40456128297E+01  0.17370096050E+02  0.51100000000E-03 0. -1.
        -11    1    3    3    0    0 -0.17453116209E+01 -0.18449410532E+02  0.71605809503E+01  0.19867077828E+02  0.51100000000E-03 0.  1.
         12    1    3    3    0    0  0.38902703432E+01  0.30166270370E+02 -0.17765568918E+02  0.35224331227E+02  0.00000000000E+00 0. -1.
</event>
<event>
 7    1  0.2655561E-013  0.7246152E+02  0.7816164E-02  0.1226708E+00
        -11   -1    0    0    0    0  0.00000000000E+00  0.00000000000E+00  0.45593999997E+02  0.45594000000E+02  0.51100000000E-03 0.  1.
         11   -1    0    0    0    0 -0.00000000000E+00 -0.00000000000E+00 -0.45593999997E+02  0.45594000000E+02  0.51100000000E-03 0. -1.
    9900012    2    1    2    0    0 -0.15009189009E+02 -0.88474273107E+01  0.68650098328E+01  0.72461519158E+02  0.69999933386E+02 0.  0.
        -12    1    1    2    0    0  0.15009189009E+02  0.88474273107E+01 -0.68650098328E+01  0.18726480842E+02  0.00000000000E+00 0.  1.
         11    1    3    3    0    0  0.25333109389E+01  0.71587488703E+01  0.22124345277E+02  0.23391280510E+02  0.51100000000E-03 0. -1.
        -11    1    3    3    0    0 -0.13433977268E+02  0.33658976630E+01  0.99207977443E+01  0.17035939671E+02  0.51100000000E-03 0.  1.
         12    1    3    3    0    0 -0.41085226794E+01 -0.19372073844E+02 -0.25180133188E+02  0.32034298978E+02  0.00000000000E+00 0. -1.
</event>
<event>
 7    1  0.2655561E-013  0.7246149E+02  0.7816164E-02  0.1226708E+00
        -11   -1    0    0    0    0  0.00000000000E+00  0.00000000000E+00  0.45593999997E+02  0.45594000000E+02  0.51100000000E-03 0.  1.
         11   -1    0    0    0    0 -0.00000000000E+00 -0.00000000000E+00 -0.45593999997E+02  0.45594000000E+02  0.51100000000E-03 0. -1.
    9900012    2    1    2    0    0 -0.18139301171E+02  0.38899386619E+01 -0.25527270077E+01  0.72461487112E+02  0.69999891640E+02 0.  0.
        -12    1    1    2    0    0  0.18139301171E+02 -0.38899386619E+01  0.25527270077E+01  0.18726512888E+02  0.00000000000E+00 0.  1.
         11    1    3    3    0    0 -0.97477151144E+01  0.11138501071E+02 -0.81805569772E+01  0.16911702126E+02  0.51100000000E-03 0. -1.
        -11    1    3    3    0    0 -0.28403048255E+02  0.51442465732E+01  0.11850538845E+02  0.31203071871E+02  0.51100000000E-03 0.  1.
         12    1    3    3    0    0  0.20011462198E+02 -0.12392808983E+02 -0.62227088757E+01  0.24346713116E+02  0.00000000000E+00 0. -1.
</event>
<event>
 7    1  0.2655561E-013  0.7246159E+02  0.7816164E-02  0.1226708E+00
        -11   -1    0    0    0    0  0.00000000000E+00  0.00000000000E+00  0.45593999997E+02  0.45594000000E+02  0.51100000000E-03 0.  1.
         11   -1    0    0    0    0 -0.00000000000E+00 -0.00000000000E+00 -0.45593999997E+02  0.45594000000E+02  0.51100000000E-03 0. -1.
    9900012    2    1    2    0    0  0.73572462941E+00  0.16557048043E+02 -0.87178700767E+01  0.72461591127E+02  0.70000027138E+02 0.  0.
        -12    1    1    2    0    0 -0.73572462941E+00 -0.16557048043E+02  0.87178700767E+01  0.18726408873E+02  0.00000000000E+00 0.  1.
         11    1    3    3    0    0  0.11524670402E+02  0.98668515819E+01 -0.16520230716E+02  0.22429685936E+02  0.51100000000E-03 0. -1.
        -11    1    3    3    0    0  0.83645044623E+01 -0.88984664060E+01  0.19261934739E+02  0.22807230639E+02  0.51100000000E-03 0.  1.
         12    1    3    3    0    0 -0.19153450235E+02  0.15588662867E+02 -0.11459574099E+02  0.27224674551E+02  0.00000000000E+00 0. -1.
</event>
<event>
 7    1  0.2655561E-013  0.7246164E+02  0.7816164E-02  0.1226708E+00
        -11   -1    0    0    0    0  0.00000000000E+00  0.00000000000E+00  0.45593999997E+02  0.45594000000E+02  0.51100000000E-03 0. -1.
         11   -1    0    0    0    0 -0.00000000000E+00 -0.00000000000E+00 -0.45593999997E+02  0.45594000000E+02  0.51100000000E-03 0.  1.
    9900012    2    1    2    0    0 -0.91701564483E+01 -0.16221793159E+02 -0.18542931337E+01  0.72461635014E+02  0.70000084309E+02 0.  0.
        -12    1    1    2    0    0  0.91701564483E+01  0.16221793159E+02  0.18542931337E+01  0.18726364986E+02  0.00000000000E+00 0.  1.
         11    1    3    3    0    0  0.25684530102E+02  0.89567828051E+01 -0.33345889738E+01  0.27405082168E+02  0.51100000000E-03 0. -1.
        -11    1    3    3    0    0 -0.95689254059E+01 -0.12440776339E+02  0.51234475615E+01  0.16510207889E+02  0.51100000000E-03 0.  1.
        -12    1    3    3    0    0 -0.25285761144E+02 -0.12737799625E+02 -0.36431517215E+01  0.28546344957E+02  0.00000000000E+00 0.  1.
</event>
<event>
 7    1  0.2655561E-013  0.7246159E+02  0.7816164E-02  0.1226708E+00
        -11   -1    0    0    0    0  0.00000000000E+00  0.00000000000E+00  0.45593999997E+02  0.45594000000E+02  0.51100000000E-03 0.  1.
         11   -1    0    0    0    0 -0.00000000000E+00 -0.00000000000E+00 -0.45593999997E+02  0.45594000000E+02  0.51100000000E-03 0. -1.
    9900012    2    1    2    0    0  0.50886095673E+01  0.13388621752E+02 -0.12063552073E+02  0.72461590083E+02  0.70000025778E+02 0.  0.
        -12    1    1    2    0    0 -0.50886095673E+01 -0.13388621752E+02  0.12063552073E+02  0.18726409917E+02  0.00000000000E+00 0.  1.
         11    1    3    3    0    0 -0.34648927552E+01 -0.73337542687E+00 -0.75747692952E+00  0.36217527361E+01  0.51100000000E-03 0. -1.
        -11    1    3    3    0    0  0.11891515655E+02  0.22326042372E+02  0.22523583133E+02  0.33869929288E+02  0.51100000000E-03 0.  1.
         12    1    3    3    0    0 -0.33380133320E+01 -0.82040451934E+01 -0.33829658277E+02  0.34969908059E+02  0.00000000000E+00 0. -1.
</event>
<event>
 7    1  0.2655561E-013  0.7246160E+02  0.7816164E-02  0.1226708E+00
        -11   -1    0    0    0    0  0.00000000000E+00  0.00000000000E+00  0.45593999997E+02  0.45594000000E+02  0.51100000000E-03 0.  1.
         11   -1    0    0    0    0 -0.00000000000E+00 -0.00000000000E+00 -0.45593999997E+02  0.45594000000E+02  0.51100000000E-03 0. -1.
    9900012    2    1    2    0    0  0.30387850070E+01 -0.18953033283E+01 -0.18380737646E+02  0.72461604046E+02  0.70000043968E+02 0.  0.
        -12    1    1    2    0    0 -0.30387850070E+01  0.18953033283E+01  0.18380737646E+02  0.18726395954E+02  0.00000000000E+00 0.  1.
         11    1    3    3    0    0 -0.12680412306E+02  0.16097445834E+02 -0.19531980254E+02  0.28309342478E+02  0.51100000000E-03 0. -1.
        -11    1    3    3    0    0 -0.96226975609E+01 -0.55226281374E+01  0.96002268430E+01  0.14671744463E+02  0.51100000000E-03 0.  1.
        -12    1    3    3    0    0  0.25341894874E+02 -0.12470121025E+02 -0.84489842352E+01  0.29480517105E+02  0.00000000000E+00 0.  1.
</event>
<event>
 7    1  0.2655561E-013  0.7246158E+02  0.7816164E-02  0.1226708E+00
        -11   -1    0    0    0    0  0.00000000000E+00  0.00000000000E+00  0.45593999997E+02  0.45594000000E+02  0.51100000000E-03 0.  1.
         11   -1    0    0    0    0 -0.00000000000E+00 -0.00000000000E+00 -0.45593999997E+02  0.45594000000E+02  0.51100000000E-03 0. -1.
    9900012    2    1    2    0    0 -0.16328698180E+02 -0.77789908521E+01 -0.48517894437E+01  0.72461576323E+02  0.70000007853E+02 0.  0.
        -12    1    1    2    0    0  0.16328698180E+02  0.77789908521E+01  0.48517894437E+01  0.18726423677E+02  0.00000000000E+00 0.  1.
         11    1    3    3    0    0 -0.29188500831E+02  0.97620331638E+01 -0.35559589107E+01  0.30982425926E+02  0.51100000000E-03 0. -1.
        -11    1    3    3    0    0  0.10283413292E+02  0.85126694179E+01 -0.64015046086E+01  0.14805181224E+02  0.51100000000E-03 0.  1.
        -12    1    3    3    0    0  0.25763893585E+01 -0.26053693434E+02  0.51056740755E+01  0.26673969173E+02  0.00000000000E+00 0.  1.
</event>
<event>
 7    1  0.2655561E-013  0.7246157E+02  0.7816164E-02  0.1226708E+00
        -11   -1    0    0    0    0  0.00000000000E+00  0.00000000000E+00  0.45593999997E+02  0.45594000000E+02  0.51100000000E-03 0.  1.
         11   -1    0    0    0    0 -0.00000000000E+00 -0.00000000000E+00 -0.45593999997E+02  0.45594000000E+02  0.51100000000E-03 0. -1.
    9900012    2    1    2    0    0  0.12829898486E+02 -0.23376548281E+01 -0.13439061102E+02  0.72461567116E+02  0.69999995859E+02 0.  0.
        -12    1    1    2    0    0 -0.12829898486E+02  0.23376548281E+01  0.13439061102E+02  0.18726432884E+02  0.00000000000E+00 0.  1.
         11    1    3    3    0    0  0.42152433630E+01  0.37453869180E+01 -0.30413958999E+02  0.30932266358E+02  0.51100000000E-03 0. -1.
        -11    1    3    3    0    0  0.16066726999E+02  0.63207605377E+01 -0.23100656434E+01  0.17419188666E+02  0.51100000000E-03 0.  1.
         12    1    3    3    0    0 -0.74520718756E+01 -0.12403802284E+02  0.19284963540E+02  0.24110112092E+02  0.00000000000E+00 0. -1.
</event>
<event>
 7    1  0.2655561E-013  0.7246170E+02  0.7816164E-02  0.1226708E+00
        -11   -1    0    0    0    0  0.00000000000E+00  0.00000000000E+00  0.45593999997E+02  0.45594000000E+02  0.51100000000E-03 0.  1.
         11   -1    0    0    0    0 -0.00000000000E+00 -0.00000000000E+00 -0.45593999997E+02  0.45594000000E+02  0.51100000000E-03 0. -1.
    9900012    2    1    2    0    0 -0.28022666813E+01  0.10854510959E+02 -0.15000034092E+02  0.72461704865E+02  0.70000175303E+02 0.  0.
        -12    1    1    2    0    0  0.28022666813E+01 -0.10854510959E+02  0.15000034092E+02  0.18726295135E+02  0.00000000000E+00 0.  1.
         11    1    3    3    0    0  0.95648296966E+01  0.86685096134E+01 -0.32328426484E+02  0.34810288497E+02  0.51100000000E-03 0. -1.
        -11    1    3    3    0    0  0.49422610061E+01  0.65753208163E+00 -0.64800462390E+01  0.81761416213E+01  0.51100000000E-03 0.  1.
        -12    1    3    3    0    0 -0.17309357384E+02  0.15284692641E+01  0.23808438631E+02  0.29475274747E+02  0.00000000000E+00 0.  1.
</event>
<event>
 7    1  0.2655561E-013  0.7246156E+02  0.7816164E-02  0.1226708E+00
        -11   -1    0    0    0    0  0.00000000000E+00  0.00000000000E+00  0.45593999997E+02  0.45594000000E+02  0.51100000000E-03 0. -1.
         11   -1    0    0    0    0 -0.00000000000E+00 -0.00000000000E+00 -0.45593999997E+02  0.45594000000E+02  0.51100000000E-03 0.  1.
    9900012    2    1    2    0    0 -0.14423325233E+02  0.81336819464E+01  0.87458791455E+01  0.72461561609E+02  0.69999988686E+02 0.  0.
        -12    1    1    2    0    0  0.14423325233E+02 -0.81336819464E+01 -0.87458791455E+01  0.18726438391E+02  0.00000000000E+00 0.  1.
         11    1    3    3    0    0  0.14686965501E+02 -0.73158850626E+01  0.26037339118E+01  0.16613505362E+02  0.51100000000E-03 0. -1.
        -11    1    3    3    0    0 -0.36647190981E+02 -0.24990339698E+00 -0.18331271866E+01  0.36693860713E+02  0.51100000000E-03 0.  1.
         12    1    3    3    0    0  0.75369002475E+01  0.15699470406E+02  0.79752724203E+01  0.19154195534E+02  0.00000000000E+00 0. -1.
</event>
<event>
 7    1  0.2655561E-013  0.7246159E+02  0.7816164E-02  0.1226708E+00
        -11   -1    0    0    0    0  0.00000000000E+00  0.00000000000E+00  0.45593999997E+02  0.45594000000E+02  0.51100000000E-03 0. -1.
         11   -1    0    0    0    0 -0.00000000000E+00 -0.00000000000E+00 -0.45593999997E+02  0.45594000000E+02  0.51100000000E-03 0.  1.
    9900012    2    1    2    0    0  0.10580285408E+01 -0.14375258807E+02  0.11954541069E+02  0.72461587040E+02  0.70000021815E+02 0.  0.
        -12    1    1    2    0    0 -0.10580285408E+01  0.14375258807E+02 -0.11954541069E+02  0.18726412960E+02  0.00000000000E+00 0.  1.
         11    1    3    3    0    0  0.15116666390E+02 -0.13532019401E+02 -0.46191558210E+01  0.20807829118E+02  0.51100000000E-03 0. -1.
        -11    1    3    3    0    0  0.27962013848E+01 -0.44337643771E+01 -0.14886738688E+02  0.15782648629E+02  0.51100000000E-03 0.  1.
         12    1    3    3    0    0 -0.16854839234E+02  0.35905249714E+01  0.31460435578E+02  0.35871109293E+02  0.00000000000E+00 0. -1.
</event>
<event>
 7    1  0.2655561E-013  0.7246155E+02  0.7816164E-02  0.1226708E+00
        -11   -1    0    0    0    0  0.00000000000E+00  0.00000000000E+00  0.45593999997E+02  0.45594000000E+02  0.51100000000E-03 0.  1.
         11   -1    0    0    0    0 -0.00000000000E+00 -0.00000000000E+00 -0.45593999997E+02  0.45594000000E+02  0.51100000000E-03 0. -1.
    9900012    2    1    2    0    0 -0.11632315545E+02  0.67129176843E+01 -0.13050125335E+02  0.72461553459E+02  0.69999978069E+02 0.  0.
        -12    1    1    2    0    0  0.11632315545E+02 -0.67129176843E+01  0.13050125335E+02  0.18726446541E+02  0.00000000000E+00 0.  1.
         11    1    3    3    0    0  0.38071258169E+01  0.66306986221E+01 -0.23917684411E+02  0.25110077640E+02  0.51100000000E-03 0. -1.
        -11    1    3    3    0    0  0.10845199094E+02 -0.12829573472E+02  0.36825186307E+01  0.17198175560E+02  0.51100000000E-03 0.  1.
        -12    1    3    3    0    0 -0.26284640456E+02  0.12911792534E+02  0.71850404459E+01  0.30153300260E+02  0.00000000000E+00 0.  1.
</event>
<event>
 7    1  0.2655561E-013  0.7246153E+02  0.7816164E-02  0.1226708E+00
        -11   -1    0    0    0    0  0.00000000000E+00  0.00000000000E+00  0.45593999997E+02  0.45594000000E+02  0.51100000000E-03 0.  1.
         11   -1    0    0    0    0 -0.00000000000E+00 -0.00000000000E+00 -0.45593999997E+02  0.45594000000E+02  0.51100000000E-03 0. -1.
    9900012    2    1    2    0    0 -0.34607026390E+01 -0.79799993987E+01 -0.16583837243E+02  0.72461534481E+02  0.69999953346E+02 0.  0.
        -12    1    1    2    0    0  0.34607026390E+01  0.79799993987E+01  0.16583837243E+02  0.18726465519E+02  0.00000000000E+00 0.  1.
         11    1    3    3    0    0 -0.11248457630E+02 -0.27245270293E+02  0.19562645525E+01  0.29540811154E+02  0.51100000000E-03 0. -1.
        -11    1    3    3    0    0  0.68458125746E+01  0.76475293368E+01  0.85954465815E+01  0.13387739053E+02  0.51100000000E-03 0.  1.
         12    1    3    3    0    0  0.94194241674E+00  0.11617741557E+02 -0.27135548376E+02  0.29532984273E+02  0.00000000000E+00 0. -1.
</event>
<event>
 7    1  0.2655561E-013  0.7246160E+02  0.7816164E-02  0.1226708E+00
        -11   -1    0    0    0    0  0.00000000000E+00  0.00000000000E+00  0.45593999997E+02  0.45594000000E+02  0.51100000000E-03 0. -1.
         11   -1    0    0    0    0 -0.00000000000E+00 -0.00000000000E+00 -0.45593999997E+02  0.45594000000E+02  0.51100000000E-03 0.  1.
    9900012    2    1    2    0    0  0.42533843938E+01 -0.15571885057E+02  0.94922706861E+01  0.72461599230E+02  0.70000037694E+02 0.  0.
        -12    1    1    2    0    0 -0.42533843938E+01  0.15571885057E+02 -0.94922706861E+01  0.18726400770E+02  0.00000000000E+00 0.  1.
         11    1    3    3    0    0  0.30576494598E+01 -0.10205797911E+02  0.17802669767E+01  0.10801707365E+02  0.51100000000E-03 0. -1.
        -11    1    3    3    0    0  0.71685645109E+01 -0.31813071163E+02  0.10844233954E+02  0.34366513124E+02  0.51100000000E-03 0.  1.
         12    1    3    3    0    0 -0.59728295768E+01  0.26446984018E+02 -0.31322302450E+01  0.27293378741E+02  0.00000000000E+00 0. -1.
</event>
<event>
 7    1  0.3011190E-013  0.7246159E+02  0.7816164E-02  0.1226708E+00
        -11   -1    0    0    0    0  0.00000000000E+00  0.00000000000E+00  0.45593999997E+02  0.45594000000E+02  0.51100000000E-03 0.  1.
         11   -1    0    0    0    0 -0.00000000000E+00 -0.00000000000E+00 -0.45593999997E+02  0.45594000000E+02  0.51100000000E-03 0. -1.
    9900012    2    1    2    0    0  0.66809335024E+01  0.14260757106E+02 -0.10132838929E+02  0.72461588425E+02  0.70000023619E+02 0.  0.
        -12    1    1    2    0    0 -0.66809335024E+01 -0.14260757106E+02  0.10132838929E+02  0.18726411575E+02  0.00000000000E+00 0.  1.
         11    1    3    3    0    0  0.31696468888E+01  0.18515356496E+02 -0.30487028556E+02  0.35809551771E+02  0.51100000000E-03 0. -1.
        -11    1    3    3    0    0  0.16065882498E+02  0.10885101730E+01  0.69942705894E+01  0.17556117344E+02  0.51100000000E-03 0.  1.
        -12    1    3    3    0    0 -0.12554595885E+02 -0.53431095632E+01  0.13359919037E+02  0.19095919311E+02  0.00000000000E+00 0.  1.
</event>
<event>
 7    1  0.3444682E-013  0.7246209E+02  0.7816164E-02  0.1226707E+00
        -11   -1    0    0    0    0  0.00000000000E+00  0.00000000000E+00  0.45593999997E+02  0.45594000000E+02  0.51100000000E-03 0. -1.
         11   -1    0    0    0    0 -0.00000000000E+00 -0.00000000000E+00 -0.45593999997E+02  0.45594000000E+02  0.51100000000E-03 0.  1.
    9900012    2    1    2    0    0 -0.30883769103E+01 -0.17014013421E+02  0.71864325911E+01  0.72462094467E+02  0.70000682829E+02 0.  0.
        -12    1    1    2    0    0  0.30883769103E+01  0.17014013421E+02 -0.71864325911E+01  0.18725905533E+02  0.00000000000E+00 0.  1.
         11    1    3    3    0    0 -0.53938751966E+01  0.72696038089E+00  0.29147159325E+02  0.29650957118E+02  0.51100000000E-03 0. -1.
        -11    1    3    3    0    0  0.26019731354E+01 -0.19094917788E+02  0.14812475118E+01  0.19328224026E+02  0.51100000000E-03 0.  1.
        -12    1    3    3    0    0 -0.29647484907E+00  0.13539439861E+01 -0.23441974245E+02  0.23482913324E+02  0.00000000000E+00 0.  1.
</event>
<event>
 7    1  0.2655561E-013  0.7246160E+02  0.7816164E-02  0.1226708E+00
        -11   -1    0    0    0    0  0.00000000000E+00  0.00000000000E+00  0.45593999997E+02  0.45594000000E+02  0.51100000000E-03 0.  1.
         11   -1    0    0    0    0 -0.00000000000E+00 -0.00000000000E+00 -0.45593999997E+02  0.45594000000E+02  0.51100000000E-03 0. -1.
    9900012    2    1    2    0    0 -0.18570503368E+02 -0.24044282315E+01 -0.18227424631E+00  0.72461599002E+02  0.70000037397E+02 0.  0.
        -12    1    1    2    0    0  0.18570503368E+02  0.24044282315E+01  0.18227424631E+00  0.18726400998E+02  0.00000000000E+00 0.  1.
         11    1    3    3    0    0  0.82073818843E+01 -0.62557475991E+00 -0.65545239947E-01  0.82314493022E+01  0.51100000000E-03 0. -1.
        -11    1    3    3    0    0 -0.12033556149E+01  0.23392213912E+02  0.12048679780E+02  0.26340357270E+02  0.51100000000E-03 0.  1.
         12    1    3    3    0    0 -0.25574529637E+02 -0.25171067384E+02 -0.12165408786E+02  0.37889792429E+02  0.00000000000E+00 0. -1.
</event>
<event>
 7    1  0.2655561E-013  0.7246154E+02  0.7816164E-02  0.1226708E+00
        -11   -1    0    0    0    0  0.00000000000E+00  0.00000000000E+00  0.45593999997E+02  0.45594000000E+02  0.51100000000E-03 0.  1.
         11   -1    0    0    0    0 -0.00000000000E+00 -0.00000000000E+00 -0.45593999997E+02  0.45594000000E+02  0.51100000000E-03 0. -1.
    9900012    2    1    2    0    0  0.76273786222E+01  0.16904287714E+02  0.25977530704E+01  0.72461543614E+02  0.69999965244E+02 0.  0.
        -12    1    1    2    0    0 -0.76273786222E+01 -0.16904287714E+02 -0.25977530704E+01  0.18726456386E+02  0.00000000000E+00 0.  1.
         11    1    3    3    0    0 -0.22205140265E+02 -0.58041142467E+00 -0.13101973954E+02  0.25788890115E+02  0.51100000000E-03 0. -1.
        -11    1    3    3    0    0  0.37211019441E+01  0.85401912421E+01  0.16624075660E+02  0.19056268206E+02  0.51100000000E-03 0.  1.
        -12    1    3    3    0    0  0.26111416943E+02  0.89445078965E+01 -0.92434863569E+00  0.27616385293E+02  0.00000000000E+00 0.  1.
</event>
<event>
 7    1  0.2655561E-013  0.7246162E+02  0.7816164E-02  0.1226708E+00
        -11   -1    0    0    0    0  0.00000000000E+00  0.00000000000E+00  0.45593999997E+02  0.45594000000E+02  0.51100000000E-03 0. -1.
         11   -1    0    0    0    0 -0.00000000000E+00 -0.00000000000E+00 -0.45593999997E+02  0.45594000000E+02  0.51100000000E-03 0.  1.
    9900012    2    1    2    0    0  0.18184962174E+02 -0.39823305171E+00 -0.44526226941E+01  0.72461620540E+02  0.70000065454E+02 0.  0.
        -12    1    1    2    0    0 -0.18184962174E+02  0.39823305171E+00  0.44526226941E+01  0.18726379460E+02  0.00000000000E+00 0.  1.
         11    1    3    3    0    0 -0.59288698775E+01  0.52327195740E+01  0.47625142620E+01  0.92311643101E+01  0.51100000000E-03 0. -1.
        -11    1    3    3    0    0  0.21263267932E+01 -0.17176962444E+02  0.18960353717E+02  0.25672248008E+02  0.51100000000E-03 0.  1.
        -12    1    3    3    0    0  0.21987505258E+02  0.11546009818E+02 -0.28175490673E+02  0.37558208222E+02  0.00000000000E+00 0.  1.
</event>
<event>
 7    1  0.2655561E-013  0.7246149E+02  0.7816164E-02  0.1226708E+00
        -11   -1    0    0    0    0  0.00000000000E+00  0.00000000000E+00  0.45593999997E+02  0.45594000000E+02  0.51100000000E-03 0.  1.
         11   -1    0    0    0    0 -0.00000000000E+00 -0.00000000000E+00 -0.45593999997E+02  0.45594000000E+02  0.51100000000E-03 0. -1.
    9900012    2    1    2    0    0  0.55048331665E+00 -0.15034835958E+02 -0.11150468855E+02  0.72461487248E+02  0.69999891817E+02 0.  0.
        -12    1    1    2    0    0 -0.55048331665E+00  0.15034835958E+02  0.11150468855E+02  0.18726512752E+02  0.00000000000E+00 0.  1.
         11    1    3    3    0    0 -0.19178798809E+02 -0.21555379384E+02 -0.10422788705E+02  0.30677275446E+02  0.51100000000E-03 0. -1.
        -11    1    3    3    0    0  0.43848630220E-01 -0.13165838711E+02  0.35043634730E+01  0.13624308983E+02  0.51100000000E-03 0.  1.
        -12    1    3    3    0    0  0.19685433496E+02  0.19686382136E+02 -0.42320436231E+01  0.28159902819E+02  0.00000000000E+00 0.  1.
</event>
<event>
 7    1  0.2655561E-013  0.7246157E+02  0.7816164E-02  0.1226708E+00
        -11   -1    0    0    0    0  0.00000000000E+00  0.00000000000E+00  0.45593999997E+02  0.45594000000E+02  0.51100000000E-03 0.  1.
         11   -1    0    0    0    0 -0.00000000000E+00 -0.00000000000E+00 -0.45593999997E+02  0.45594000000E+02  0.51100000000E-03 0. -1.
    9900012    2    1    2    0    0  0.63106035369E+01  0.10793301534E+02 -0.13941306383E+02  0.72461572186E+02  0.70000002464E+02 0.  0.
        -12    1    1    2    0    0 -0.63106035369E+01 -0.10793301534E+02  0.13941306383E+02  0.18726427814E+02  0.00000000000E+00 0.  1.
         11    1    3    3    0    0  0.94195501119E+01 -0.11506087368E+02 -0.11157432844E+02  0.18590488933E+02  0.51100000000E-03 0. -1.
        -11    1    3    3    0    0  0.13564320348E+01 -0.99958381307E+01 -0.15817127743E+02  0.18760016474E+02  0.51100000000E-03 0.  1.
        -12    1    3    3    0    0 -0.44653786098E+01  0.32295227033E+02  0.13033254204E+02  0.35111066779E+02  0.00000000000E+00 0.  1.
</event>
<event>
 7    1  0.2655561E-013  0.7246162E+02  0.7816164E-02  0.1226708E+00
        -11   -1    0    0    0    0  0.00000000000E+00  0.00000000000E+00  0.45593999997E+02  0.45594000000E+02  0.51100000000E-03 0.  1.
         11   -1    0    0    0    0 -0.00000000000E+00 -0.00000000000E+00 -0.45593999997E+02  0.45594000000E+02  0.51100000000E-03 0. -1.
    9900012    2    1    2    0    0  0.66821950089E+01  0.26815972557E+01 -0.17286833074E+02  0.72461620432E+02  0.70000065314E+02 0.  0.
        -12    1    1    2    0    0 -0.66821950089E+01 -0.26815972557E+01  0.17286833074E+02  0.18726379568E+02  0.00000000000E+00 0.  1.
         11    1    3    3    0    0 -0.24844696561E+02 -0.13703976195E+02  0.40131754024E+01  0.28655950304E+02  0.51100000000E-03 0. -1.
        -11    1    3    3    0    0  0.28507676308E+01  0.22313888025E+01  0.20949091360E+01  0.41826566464E+01  0.51100000000E-03 0.  1.
        -12    1    3    3    0    0  0.28676123939E+02  0.14154184648E+02 -0.23394917613E+02  0.39623013481E+02  0.00000000000E+00 0.  1.
</event>
<event>
 7    1  0.2655561E-013  0.7246157E+02  0.7816164E-02  0.1226708E+00
        -11   -1    0    0    0    0  0.00000000000E+00  0.00000000000E+00  0.45593999997E+02  0.45594000000E+02  0.51100000000E-03 0.  1.
         11   -1    0    0    0    0 -0.00000000000E+00 -0.00000000000E+00 -0.45593999997E+02  0.45594000000E+02  0.51100000000E-03 0. -1.
    9900012    2    1    2    0    0 -0.15167148170E+02  0.84630963573E+01 -0.70009053753E+01  0.72461573228E+02  0.70000003822E+02 0.  0.
        -12    1    1    2    0    0  0.15167148170E+02 -0.84630963573E+01  0.70009053753E+01  0.18726426772E+02  0.00000000000E+00 0.  1.
         11    1    3    3    0    0 -0.17537286113E+02 -0.12603887785E+02 -0.10966847116E+02  0.24221604560E+02  0.51100000000E-03 0. -1.
        -11    1    3    3    0    0 -0.23201094899E+01 -0.37222719678E+00  0.20580337504E+02  0.20714047242E+02  0.51100000000E-03 0.  1.
         12    1    3    3    0    0  0.46902474330E+01  0.21439211339E+02 -0.16614395763E+02  0.27525921426E+02  0.00000000000E+00 0. -1.
</event>
<event>
 7    1  0.2655561E-013  0.7246157E+02  0.7816164E-02  0.1226708E+00
        -11   -1    0    0    0    0  0.00000000000E+00  0.00000000000E+00  0.45593999997E+02  0.45594000000E+02  0.51100000000E-03 0. -1.
         11   -1    0    0    0    0 -0.00000000000E+00 -0.00000000000E+00 -0.45593999997E+02  0.45594000000E+02  0.51100000000E-03 0.  1.
    9900012    2    1    2    0    0  0.17387228383E+02 -0.65823970645E+01  0.22439880883E+01  0.72461570962E+02  0.70000000870E+02 0.  0.
        -12    1    1    2    0    0 -0.17387228383E+02  0.65823970645E+01 -0.22439880883E+01  0.18726429038E+02  0.00000000000E+00 0.  1.
         11    1    3    3    0    0 -0.55147531561E+01  0.77806619963E+01  0.16108463730E+01  0.96719196529E+01  0.51100000000E-03 0. -1.
        -11    1    3    3    0    0  0.39544730237E+01  0.17522285003E+02  0.14609067346E+02  0.23153686048E+02  0.51100000000E-03 0.  1.
        -12    1    3    3    0    0  0.18947508515E+02 -0.31885344064E+02 -0.13975925631E+02  0.39635965262E+02  0.00000000000E+00 0.  1.
</event>
<event>
 7    1  0.2655561E-013  0.7246167E+02  0.7816164E-02  0.1226708E+00
        -11   -1    0    0    0    0  0.00000000000E+00  0.00000000000E+00  0.45593999997E+02  0.45594000000E+02  0.51100000000E-03 0. -1.
         11   -1    0    0    0    0 -0.00000000000E+00 -0.00000000000E+00 -0.45593999997E+02  0.45594000000E+02  0.51100000000E-03 0.  1.
    9900012    2    1    2    0    0 -0.61975565186E+01  0.15572962537E+02  0.83515625157E+01  0.72461669195E+02  0.70000128836E+02 0.  0.
        -12    1    1    2    0    0  0.61975565186E+01 -0.15572962537E+02 -0.83515625157E+01  0.18726330805E+02  0.00000000000E+00 0.  1.
         11    1    3    3    0    0 -0.11007090819E+02  0.12018646148E+02 -0.14753201912E+02  0.21983195183E+02  0.51100000000E-03 0. -1.
        -11    1    3    3    0    0 -0.29159671163E+01  0.22852723929E+01 -0.13008784364E+02  0.13526041736E+02  0.51100000000E-03 0.  1.
         12    1    3    3    0    0  0.77255014162E+01  0.12690439961E+01  0.36113548792E+02  0.36952432276E+02  0.00000000000E+00 0. -1.
</event>
<event>
 7    1  0.2655561E-013  0.7246157E+02  0.7816164E-02  0.1226708E+00
        -11   -1    0    0    0    0  0.00000000000E+00  0.00000000000E+00  0.45593999997E+02  0.45594000000E+02  0.51100000000E-03 0. -1.
         11   -1    0    0    0    0 -0.00000000000E+00 -0.00000000000E+00 -0.45593999997E+02  0.45594000000E+02  0.51100000000E-03 0.  1.
    9900012    2    1    2    0    0  0.94205571969E+01 -0.25667602879E+00 -0.16182283274E+02  0.72461572887E+02  0.70000003377E+02 0.  0.
        -12    1    1    2    0    0 -0.94205571969E+01  0.25667602879E+00  0.16182283274E+02  0.18726427113E+02  0.00000000000E+00 0.  1.
         11    1    3    3    0    0 -0.21169480252E+01  0.20411042962E+02  0.95295597376E+01  0.22625310005E+02  0.51100000000E-03 0. -1.
        -11    1    3    3    0    0  0.11763001997E+01  0.93481711125E+01 -0.76123640712E+00  0.94525904618E+01  0.51100000000E-03 0.  1.
        -12    1    3    3    0    0  0.10361205022E+02 -0.30015890104E+02 -0.24950606604E+02  0.40383672420E+02  0.00000000000E+00 0.  1.
</event>
<event>
 7    1  0.2655561E-013  0.7246156E+02  0.7816164E-02  0.1226708E+00
        -11   -1    0    0    0    0  0.00000000000E+00  0.00000000000E+00  0.45593999997E+02  0.45594000000E+02  0.51100000000E-03 0.  1.
         11   -1    0    0    0    0 -0.00000000000E+00 -0.00000000000E+00 -0.45593999997E+02  0.45594000000E+02  0.51100000000E-03 0. -1.
    9900012    2    1    2    0    0 -0.57500999044E+01 -0.83278670787E+01 -0.15756352839E+02  0.72461556831E+02  0.69999982461E+02 0.  0.
        -12    1    1    2    0    0  0.57500999044E+01  0.83278670787E+01  0.15756352839E+02  0.18726443169E+02  0.00000000000E+00 0.  1.
         11    1    3    3    0    0 -0.31599357262E+02  0.48929322647E+01  0.61420810113E+00  0.31981829488E+02  0.51100000000E-03 0. -1.
        -11    1    3    3    0    0 -0.20299604359E+00 -0.98204725877E+01 -0.60913521598E+00  0.98414396920E+01  0.51100000000E-03 0.  1.
        -12    1    3    3    0    0  0.26052253401E+02 -0.34003267557E+01 -0.15761425724E+02  0.30638287651E+02  0.00000000000E+00 0.  1.
</event>
<event>
 7    1  0.2655561E-013  0.7246166E+02  0.7816164E-02  0.1226708E+00
        -11   -1    0    0    0    0  0.00000000000E+00  0.00000000000E+00  0.45593999997E+02  0.45594000000E+02  0.51100000000E-03 0. -1.
         11   -1    0    0    0    0 -0.00000000000E+00 -0.00000000000E+00 -0.45593999997E+02  0.45594000000E+02  0.51100000000E-03 0.  1.
    9900012    2    1    2    0    0 -0.24991472174E+01  0.82515935775E+00  0.18540476927E+02  0.72461657339E+02  0.70000113392E+02 0.  0.
        -12    1    1    2    0    0  0.24991472174E+01 -0.82515935775E+00 -0.18540476927E+02  0.18726342661E+02  0.00000000000E+00 0.  1.
         11    1    3    3    0    0 -0.12921992196E+02  0.41993256928E+01  0.81412064962E+01  0.15839553721E+02  0.51100000000E-03 0. -1.
        -11    1    3    3    0    0 -0.20283868883E+02  0.25873827379E+01 -0.59913296061E+01  0.21307883917E+02  0.51100000000E-03 0.  1.
         12    1    3    3    0    0  0.30706713862E+02 -0.59615490729E+01  0.16390600037E+02  0.35314219701E+02  0.00000000000E+00 0. -1.
</event>
<event>
 7    1  0.2655561E-013  0.7246153E+02  0.7816164E-02  0.1226708E+00
        -11   -1    0    0    0    0  0.00000000000E+00  0.00000000000E+00  0.45593999997E+02  0.45594000000E+02  0.51100000000E-03 0. -1.
         11   -1    0    0    0    0 -0.00000000000E+00 -0.00000000000E+00 -0.45593999997E+02  0.45594000000E+02  0.51100000000E-03 0.  1.
    9900012    2    1    2    0    0  0.22220505971E+01  0.48090519428E+01  0.17961518589E+02  0.72461531046E+02  0.69999948872E+02 0.  0.
        -12    1    1    2    0    0 -0.22220505971E+01 -0.48090519428E+01 -0.17961518589E+02  0.18726468954E+02  0.00000000000E+00 0.  1.
         11    1    3    3    0    0 -0.49955511494E+01 -0.13090879997E+02 -0.50504729761E+01  0.14894091041E+02  0.51100000000E-03 0. -1.
        -11    1    3    3    0    0 -0.84935969903E+01 -0.11477540961E+02  0.19355942814E+02  0.24052601914E+02  0.51100000000E-03 0.  1.
         12    1    3    3    0    0  0.15711198737E+02  0.29377472902E+02  0.36560487521E+01  0.33514838092E+02  0.00000000000E+00 0. -1.
</event>
<event>
 7    1  0.2655561E-013  0.7246151E+02  0.7816164E-02  0.1226708E+00
        -11   -1    0    0    0    0  0.00000000000E+00  0.00000000000E+00  0.45593999997E+02  0.45594000000E+02  0.51100000000E-03 0. -1.
         11   -1    0    0    0    0 -0.00000000000E+00 -0.00000000000E+00 -0.45593999997E+02  0.45594000000E+02  0.51100000000E-03 0.  1.
    9900012    2    1    2    0    0  0.31034149405E+01 -0.33179324011E+01  0.18167046742E+02  0.72461509484E+02  0.69999920783E+02 0.  0.
        -12    1    1    2    0    0 -0.31034149405E+01  0.33179324011E+01 -0.18167046742E+02  0.18726490516E+02  0.00000000000E+00 0.  1.
         11    1    3    3    0    0 -0.21354192162E+02  0.12076682712E+02  0.29368367589E+02  0.38266810728E+02  0.51100000000E-03 0. -1.
        -11    1    3    3    0    0  0.59041253604E+01  0.16773980956E+01  0.94253447231E+00  0.62097288294E+01  0.51100000000E-03 0.  1.
        -12    1    3    3    0    0  0.18553481742E+02 -0.17072013209E+02 -0.12143855319E+02  0.27984969926E+02  0.00000000000E+00 0.  1.
</event>
<event>
 7    1  0.2655561E-013  0.7246151E+02  0.7816164E-02  0.1226708E+00
        -11   -1    0    0    0    0  0.00000000000E+00  0.00000000000E+00  0.45593999997E+02  0.45594000000E+02  0.51100000000E-03 0. -1.
         11   -1    0    0    0    0 -0.00000000000E+00 -0.00000000000E+00 -0.45593999997E+02  0.45594000000E+02  0.51100000000E-03 0.  1.
    9900012    2    1    2    0    0  0.11538521702E+02  0.72379767430E+01  0.12851291016E+02  0.72461508840E+02  0.69999919944E+02 0.  0.
        -12    1    1    2    0    0 -0.11538521702E+02 -0.72379767430E+01 -0.12851291016E+02  0.18726491160E+02  0.00000000000E+00 0.  1.
         11    1    3    3    0    0  0.39391497679E+00 -0.12220137384E+02 -0.49285875906E+01  0.13182484690E+02  0.51100000000E-03 0. -1.
        -11    1    3    3    0    0 -0.19220008023E+02 -0.14126230933E+01  0.26713948843E+01  0.19456118916E+02  0.51100000000E-03 0.  1.
         12    1    3    3    0    0  0.30364614748E+02  0.20870737221E+02  0.15108483722E+02  0.39822905234E+02  0.00000000000E+00 0. -1.
</event>
<event>
 7    1  0.2655561E-013  0.7246157E+02  0.7816164E-02  0.1226708E+00
        -11   -1    0    0    0    0  0.00000000000E+00  0.00000000000E+00  0.45593999997E+02  0.45594000000E+02  0.51100000000E-03 0.  1.
         11   -1    0    0    0    0 -0.00000000000E+00 -0.00000000000E+00 -0.45593999997E+02  0.45594000000E+02  0.51100000000E-03 0. -1.
    9900012    2    1    2    0    0 -0.79080745133E+00  0.16848256768E+02 -0.81357292254E+01  0.72461568878E+02  0.69999998155E+02 0.  0.
        -12    1    1    2    0    0  0.79080745133E+00 -0.16848256768E+02  0.81357292254E+01  0.18726431122E+02  0.00000000000E+00 0.  1.
         11    1    3    3    0    0 -0.12650469326E+02  0.22645282450E+01 -0.18674511765E+02  0.22669359326E+02  0.51100000000E-03 0. -1.
        -11    1    3    3    0    0 -0.13209371065E+02 -0.61937485162E+01 -0.23433304937E+01  0.14776373123E+02  0.51100000000E-03 0.  1.
        -12    1    3    3    0    0  0.25069032939E+02  0.20777477039E+02  0.12882113033E+02  0.35015836429E+02  0.00000000000E+00 0.  1.
</event>
<event>
 7    1  0.2655561E-013  0.7246157E+02  0.7816164E-02  0.1226708E+00
        -11   -1    0    0    0    0  0.00000000000E+00  0.00000000000E+00  0.45593999997E+02  0.45594000000E+02  0.51100000000E-03 0.  1.
         11   -1    0    0    0    0 -0.00000000000E+00 -0.00000000000E+00 -0.45593999997E+02  0.45594000000E+02  0.51100000000E-03 0. -1.
    9900012    2    1    2    0    0 -0.11595708918E+02  0.91393550939E+01 -0.11519149371E+02  0.72461572709E+02  0.70000003145E+02 0.  0.
        -12    1    1    2    0    0  0.11595708918E+02 -0.91393550939E+01  0.11519149371E+02  0.18726427291E+02  0.00000000000E+00 0.  1.
         11    1    3    3    0    0  0.36939083131E+01  0.26723012378E+01  0.50413278710E+01  0.67971420093E+01  0.51100000000E-03 0. -1.
        -11    1    3    3    0    0  0.12482519842E+02 -0.80420324908E+00  0.17251427938E+02  0.21308960806E+02  0.51100000000E-03 0.  1.
         12    1    3    3    0    0 -0.27772137073E+02  0.72712571052E+01 -0.33811905181E+02  0.44355469893E+02  0.00000000000E+00 0. -1.
</event>
<event>
 7    1  0.2655561E-013  0.7246158E+02  0.7816164E-02  0.1226708E+00
        -11   -1    0    0    0    0  0.00000000000E+00  0.00000000000E+00  0.45593999997E+02  0.45594000000E+02  0.51100000000E-03 0. -1.
         11   -1    0    0    0    0 -0.00000000000E+00 -0.00000000000E+00 -0.45593999997E+02  0.45594000000E+02  0.51100000000E-03 0.  1.
    9900012    2    1    2    0    0  0.38941323257E+01 -0.15751752098E+02 -0.93486204929E+01  0.72461583742E+02  0.70000017518E+02 0.  0.
        -12    1    1    2    0    0 -0.38941323257E+01  0.15751752098E+02  0.93486204929E+01  0.18726416258E+02  0.00000000000E+00 0.  1.
         11    1    3    3    0    0  0.80428017243E+01  0.11843680547E+02  0.10957068973E+02  0.18028222020E+02  0.51100000000E-03 0. -1.
        -11    1    3    3    0    0  0.16056611495E+02  0.21660878881E+00 -0.78035574686E+01  0.17853772753E+02  0.51100000000E-03 0.  1.
        -12    1    3    3    0    0 -0.20205280894E+02 -0.27812041434E+02 -0.12502131997E+02  0.36579588970E+02  0.00000000000E+00 0.  1.
</event>
<event>
 7    1  0.2655561E-013  0.7246154E+02  0.7816164E-02  0.1226708E+00
        -11   -1    0    0    0    0  0.00000000000E+00  0.00000000000E+00  0.45593999997E+02  0.45594000000E+02  0.51100000000E-03 0. -1.
         11   -1    0    0    0    0 -0.00000000000E+00 -0.00000000000E+00 -0.45593999997E+02  0.45594000000E+02  0.51100000000E-03 0.  1.
    9900012    2    1    2    0    0 -0.35948505043E+01  0.18149547234E+02  0.28898588892E+01  0.72461540128E+02  0.69999960703E+02 0.  0.
        -12    1    1    2    0    0  0.35948505043E+01 -0.18149547234E+02 -0.28898588892E+01  0.18726459872E+02  0.00000000000E+00 0.  1.
         11    1    3    3    0    0 -0.17857606627E+02  0.19369299260E+02 -0.11889015404E+02  0.28903504213E+02  0.51100000000E-03 0. -1.
        -11    1    3    3    0    0 -0.30784228680E+01 -0.75219377736E+01  0.22222615289E+02  0.23662224447E+02  0.51100000000E-03 0.  1.
         12    1    3    3    0    0  0.17341178990E+02  0.63021857476E+01 -0.74437409957E+01  0.19895811468E+02  0.00000000000E+00 0. -1.
</event>
<event>
 7    1  0.2655561E-013  0.7246136E+02  0.7816164E-02  0.1226709E+00
        -11   -1    0    0    0    0  0.00000000000E+00  0.00000000000E+00  0.45593999997E+02  0.45594000000E+02  0.51100000000E-03 0. -1.
         11   -1    0    0    0    0 -0.00000000000E+00 -0.00000000000E+00 -0.45593999997E+02  0.45594000000E+02  0.51100000000E-03 0.  1.
    9900012    2    1    2    0    0 -0.91497206181E+01  0.30654056272E+01  0.16049082889E+02  0.72461356931E+02  0.69999722054E+02 0.  0.
        -12    1    1    2    0    0  0.91497206181E+01 -0.30654056272E+01 -0.16049082889E+02  0.18726643069E+02  0.00000000000E+00 0.  1.
         11    1    3    3    0    0 -0.25388813242E+02  0.18931250919E+02  0.14632851850E+01  0.31703711187E+02  0.51100000000E-03 0. -1.
        -11    1    3    3    0    0 -0.33225416490E+01 -0.77810653272E+01  0.17455094980E+02  0.19397541124E+02  0.51100000000E-03 0.  1.
        -12    1    3    3    0    0  0.19561634273E+02 -0.80847799649E+01 -0.28692972764E+01  0.21360104620E+02  0.00000000000E+00 0.  1.
</event>
<event>
 7    1  0.2655561E-013  0.7246157E+02  0.7816164E-02  0.1226708E+00
        -11   -1    0    0    0    0  0.00000000000E+00  0.00000000000E+00  0.45593999997E+02  0.45594000000E+02  0.51100000000E-03 0.  1.
         11   -1    0    0    0    0 -0.00000000000E+00 -0.00000000000E+00 -0.45593999997E+02  0.45594000000E+02  0.51100000000E-03 0. -1.
    9900012    2    1    2    0    0  0.28803171948E+01  0.18431591173E+02 -0.16307644665E+01  0.72461570200E+02  0.69999999877E+02 0.  0.
        -12    1    1    2    0    0 -0.28803171948E+01 -0.18431591173E+02  0.16307644665E+01  0.18726429800E+02  0.00000000000E+00 0.  1.
         11    1    3    3    0    0 -0.13139938256E+02  0.94585615219E+01  0.23128944910E+02  0.28232436245E+02  0.51100000000E-03 0. -1.
        -11    1    3    3    0    0  0.17694216682E+02  0.15992216441E+02 -0.66883869436E+01  0.24770361540E+02  0.51100000000E-03 0.  1.
        -12    1    3    3    0    0 -0.16739612312E+01 -0.70191867894E+01 -0.18071322433E+02  0.19458772414E+02  0.00000000000E+00 0.  1.
</event>
<event>
 7    1  0.2655561E-013  0.7246156E+02  0.7816164E-02  0.1226708E+00
        -11   -1    0    0    0    0  0.00000000000E+00  0.00000000000E+00  0.45593999997E+02  0.45594000000E+02  0.51100000000E-03 0. -1.
         11   -1    0    0    0    0 -0.00000000000E+00 -0.00000000000E+00 -0.45593999997E+02  0.45594000000E+02  0.51100000000E-03 0.  1.
    9900012    2    1    2    0    0 -0.26623563419E+00  0.96783096996E+01  0.16029319492E+02  0.72461557641E+02  0.69999983516E+02 0.  0.
        -12    1    1    2    0    0  0.26623563419E+00 -0.96783096996E+01 -0.16029319492E+02  0.18726442359E+02  0.00000000000E+00 0.  1.
         11    1    3    3    0    0 -0.10224069264E+02  0.91018663448E+01  0.66672248210E+00  0.13704746711E+02  0.51100000000E-03 0. -1.
        -11    1    3    3    0    0  0.58468638366E+00  0.21671051024E+01 -0.21026656753E+02  0.21146122508E+02  0.51100000000E-03 0.  1.
        -12    1    3    3    0    0  0.93731472466E+01 -0.15906617476E+01  0.36389253763E+02  0.37610688421E+02  0.00000000000E+00 0.  1.
</event>
<event>
 7    1  0.2655561E-013  0.7246158E+02  0.7816164E-02  0.1226708E+00
        -11   -1    0    0    0    0  0.00000000000E+00  0.00000000000E+00  0.45593999997E+02  0.45594000000E+02  0.51100000000E-03 0.  1.
         11   -1    0    0    0    0 -0.00000000000E+00 -0.00000000000E+00 -0.45593999997E+02  0.45594000000E+02  0.51100000000E-03 0. -1.
    9900012    2    1    2    0    0  0.16835089544E+02  0.65313165536E+00 -0.81750873777E+01  0.72461578170E+02  0.70000010260E+02 0.  0.
        -12    1    1    2    0    0 -0.16835089544E+02 -0.65313165536E+00  0.81750873777E+01  0.18726421830E+02  0.00000000000E+00 0.  1.
         11    1    3    3    0    0  0.65559747929E+01  0.53035518661E+01 -0.29733239649E+01  0.89414273773E+01  0.51100000000E-03 0. -1.
        -11    1    3    3    0    0  0.22848396566E+02 -0.27336843059E+02  0.43262351066E+01  0.35889671558E+02  0.51100000000E-03 0.  1.
         12    1    3    3    0    0 -0.12569281815E+02  0.22686422848E+02 -0.95279985194E+01  0.27630479235E+02  0.00000000000E+00 0. -1.
</event>
<event>
 7    1  0.2655561E-013  0.7246163E+02  0.7816164E-02  0.1226708E+00
        -11   -1    0    0    0    0  0.00000000000E+00  0.00000000000E+00  0.45593999997E+02  0.45594000000E+02  0.51100000000E-03 0. -1.
         11   -1    0    0    0    0 -0.00000000000E+00 -0.00000000000E+00 -0.45593999997E+02  0.45594000000E+02  0.51100000000E-03 0.  1.
    9900012    2    1    2    0    0 -0.17208063316E+01 -0.70195976093E+01  0.17275446043E+02  0.72461629262E+02  0.70000076817E+02 0.  0.
        -12    1    1    2    0    0  0.17208063316E+01  0.70195976093E+01 -0.17275446043E+02  0.18726370738E+02  0.00000000000E+00 0.  1.
         11    1    3    3    0    0  0.51549847714E+01  0.65712976138E+01 -0.56203099289E+01  0.10066961025E+02  0.51100000000E-03 0. -1.
        -11    1    3    3    0    0 -0.53567843340E+01 -0.10123730076E+02 -0.17994038802E+02  0.21330037077E+02  0.51100000000E-03 0.  1.
         12    1    3    3    0    0 -0.15190067690E+01 -0.34671651475E+01  0.40889794773E+02  0.41064631160E+02  0.00000000000E+00 0. -1.
</event>
<event>
 7    1  0.2655561E-013  0.7246162E+02  0.7816164E-02  0.1226708E+00
        -11   -1    0    0    0    0  0.00000000000E+00  0.00000000000E+00  0.45593999997E+02  0.45594000000E+02  0.51100000000E-03 0.  1.
         11   -1    0    0    0    0 -0.00000000000E+00 -0.00000000000E+00 -0.45593999997E+02  0.45594000000E+02  0.51100000000E-03 0. -1.
    9900012    2    1    2    0    0 -0.85725461099E+01 -0.64462111761E+01 -0.15350410029E+02  0.72461620921E+02  0.70000065951E+02 0.  0.
        -12    1    1    2    0    0  0.85725461099E+01  0.64462111761E+01  0.15350410029E+02  0.18726379079E+02  0.00000000000E+00 0.  1.
         11    1    3    3    0    0 -0.11484260069E+02 -0.20147958012E+02 -0.11306467094E+02  0.25800477511E+02  0.51100000000E-03 0. -1.
        -11    1    3    3    0    0 -0.16116015133E+02  0.14082429676E+02 -0.13607845634E+02  0.25361668566E+02  0.51100000000E-03 0.  1.
        -12    1    3    3    0    0  0.19027729092E+02 -0.38068284074E+00  0.95639026995E+01  0.21299474845E+02  0.00000000000E+00 0.  1.
</event>
<event>
 7    1  0.2655561E-013  0.7246151E+02  0.7816164E-02  0.1226708E+00
        -11   -1    0    0    0    0  0.00000000000E+00  0.00000000000E+00  0.45593999997E+02  0.45594000000E+02  0.51100000000E-03 0.  1.
         11   -1    0    0    0    0 -0.00000000000E+00 -0.00000000000E+00 -0.45593999997E+02  0.45594000000E+02  0.51100000000E-03 0. -1.
    9900012    2    1    2    0    0  0.15041725539E+02  0.10016017930E+02 -0.49099069384E+01  0.72461513183E+02  0.69999925602E+02 0.  0.
        -12    1    1    2    0    0 -0.15041725539E+02 -0.10016017930E+02  0.49099069384E+01  0.18726486817E+02  0.00000000000E+00 0.  1.
         11    1    3    3    0    0  0.22145725296E+02  0.13253589612E+02  0.10562137888E+02  0.27886368417E+02  0.51100000000E-03 0. -1.
        -11    1    3    3    0    0 -0.19774856080E+01  0.12629549700E+02  0.85164390155E+01  0.15360524363E+02  0.51100000000E-03 0.  1.
        -12    1    3    3    0    0 -0.51265141495E+01 -0.15867121381E+02 -0.23988483841E+02  0.29214620402E+02  0.00000000000E+00 0.  1.
</event>
<event>
 7    1  0.2655561E-013  0.7246157E+02  0.7816164E-02  0.1226708E+00
        -11   -1    0    0    0    0  0.00000000000E+00  0.00000000000E+00  0.45593999997E+02  0.45594000000E+02  0.51100000000E-03 0.  1.
         11   -1    0    0    0    0 -0.00000000000E+00 -0.00000000000E+00 -0.45593999997E+02  0.45594000000E+02  0.51100000000E-03 0. -1.
    9900012    2    1    2    0    0 -0.17790386895E+02  0.28091153240E+01 -0.51274110028E+01  0.72461565786E+02  0.69999994128E+02 0.  0.
        -12    1    1    2    0    0  0.17790386895E+02 -0.28091153240E+01  0.51274110028E+01  0.18726434214E+02  0.00000000000E+00 0.  1.
         11    1    3    3    0    0  0.66785610648E+00  0.14067356492E+02 -0.55797758562E+01  0.15148282058E+02  0.51100000000E-03 0. -1.
        -11    1    3    3    0    0  0.13699732624E+02 -0.20515572638E+01 -0.15042194390E+02  0.20448940645E+02  0.51100000000E-03 0.  1.
         12    1    3    3    0    0 -0.32157975625E+02 -0.92066839043E+01  0.15494559243E+02  0.36864343083E+02  0.00000000000E+00 0. -1.
</event>
<event>
 7    1  0.2655561E-013  0.7246157E+02  0.7816164E-02  0.1226708E+00
        -11   -1    0    0    0    0  0.00000000000E+00  0.00000000000E+00  0.45593999997E+02  0.45594000000E+02  0.51100000000E-03 0. -1.
         11   -1    0    0    0    0 -0.00000000000E+00 -0.00000000000E+00 -0.45593999997E+02  0.45594000000E+02  0.51100000000E-03 0.  1.
    9900012    2    1    2    0    0 -0.11950606223E+02  0.68352518294E+01  0.12694157850E+02  0.72461566805E+02  0.69999995455E+02 0.  0.
        -12    1    1    2    0    0  0.11950606223E+02 -0.68352518294E+01 -0.12694157850E+02  0.18726433195E+02  0.00000000000E+00 0.  1.
         11    1    3    3    0    0 -0.62041814175E+01 -0.10616559436E+02  0.12903809935E+02  0.17824463875E+02  0.51100000000E-03 0. -1.
        -11    1    3    3    0    0 -0.94920545788E+01  0.89326664522E+01 -0.24980098643E+02  0.28176177145E+02  0.51100000000E-03 0.  1.
         12    1    3    3    0    0  0.37456297729E+01  0.85191448133E+01  0.24770446557E+02  0.26460925785E+02  0.00000000000E+00 0. -1.
</event>
<event>
 7    1  0.2655561E-013  0.7246154E+02  0.7816164E-02  0.1226708E+00
        -11   -1    0    0    0    0  0.00000000000E+00  0.00000000000E+00  0.45593999997E+02  0.45594000000E+02  0.51100000000E-03 0. -1.
         11   -1    0    0    0    0 -0.00000000000E+00 -0.00000000000E+00 -0.45593999997E+02  0.45594000000E+02  0.51100000000E-03 0.  1.
    9900012    2    1    2    0    0  0.63672525115E+01  0.17231030299E+02  0.36373229265E+01  0.72461536698E+02  0.69999956235E+02 0.  0.
        -12    1    1    2    0    0 -0.63672525115E+01 -0.17231030299E+02 -0.36373229265E+01  0.18726463302E+02  0.00000000000E+00 0.  1.
         11    1    3    3    0    0  0.23671035470E+02 -0.74865793740E+01 -0.11036354664E+02  0.27169245766E+02  0.51100000000E-03 0. -1.
        -11    1    3    3    0    0  0.34286381087E+01  0.17258985521E+02  0.15200705541E+02  0.23252732952E+02  0.51100000000E-03 0.  1.
        -12    1    3    3    0    0 -0.20732421067E+02  0.74586241516E+01 -0.52702795084E+00  0.22039557981E+02  0.00000000000E+00 0.  1.
</event>
<event>
 7    1  0.2655561E-013  0.7246157E+02  0.7816164E-02  0.1226708E+00
        -11   -1    0    0    0    0  0.00000000000E+00  0.00000000000E+00  0.45593999997E+02  0.45594000000E+02  0.51100000000E-03 0.  1.
         11   -1    0    0    0    0 -0.00000000000E+00 -0.00000000000E+00 -0.45593999997E+02  0.45594000000E+02  0.51100000000E-03 0. -1.
    9900012    2    1    2    0    0  0.37596202831E+01 -0.88310107404E+01 -0.16079728373E+02  0.72461570550E+02  0.70000000333E+02 0.  0.
        -12    1    1    2    0    0 -0.37596202831E+01  0.88310107404E+01  0.16079728373E+02  0.18726429450E+02  0.00000000000E+00 0.  1.
         11    1    3    3    0    0 -0.11129824606E+02 -0.13251349920E+02 -0.11721207501E+01  0.17344887943E+02  0.51100000000E-03 0.  1.
        -11    1    3    3    0    0  0.23003833440E+02 -0.17987228937E+02 -0.91215265070E+01  0.30592793332E+02  0.51100000000E-03 0. -1.
        -12    1    3    3    0    0 -0.81143885510E+01  0.22407568117E+02 -0.57860811163E+01  0.24523889275E+02  0.00000000000E+00 0.  1.
</event>
<event>
 7    1  0.2655561E-013  0.7246160E+02  0.7816164E-02  0.1226708E+00
        -11   -1    0    0    0    0  0.00000000000E+00  0.00000000000E+00  0.45593999997E+02  0.45594000000E+02  0.51100000000E-03 0. -1.
         11   -1    0    0    0    0 -0.00000000000E+00 -0.00000000000E+00 -0.45593999997E+02  0.45594000000E+02  0.51100000000E-03 0.  1.
    9900012    2    1    2    0    0  0.16173354882E+02 -0.94392967408E+01 -0.20180629924E-01  0.72461597826E+02  0.70000035865E+02 0.  0.
        -12    1    1    2    0    0 -0.16173354882E+02  0.94392967408E+01  0.20180629924E-01  0.18726402174E+02  0.00000000000E+00 0.  1.
         11    1    3    3    0    0  0.56543747372E+00 -0.13257139711E+01  0.96059661619E+01  0.97134866673E+01  0.51100000000E-03 0. -1.
        -11    1    3    3    0    0 -0.11765830696E+02 -0.14383323035E+02  0.16157111841E+02  0.24624520641E+02  0.51100000000E-03 0.  1.
        -12    1    3    3    0    0  0.27373748105E+02  0.62697402654E+01 -0.25783258633E+02  0.38123590518E+02  0.00000000000E+00 0.  1.
</event>
<event>
 7    1  0.2655561E-013  0.7246160E+02  0.7816164E-02  0.1226708E+00
        -11   -1    0    0    0    0  0.00000000000E+00  0.00000000000E+00  0.45593999997E+02  0.45594000000E+02  0.51100000000E-03 0. -1.
         11   -1    0    0    0    0 -0.00000000000E+00 -0.00000000000E+00 -0.45593999997E+02  0.45594000000E+02  0.51100000000E-03 0.  1.
    9900012    2    1    2    0    0 -0.51463736707E+01  0.17425275895E+02 -0.45334840930E+01  0.72461604725E+02  0.70000044853E+02 0.  0.
        -12    1    1    2    0    0  0.51463736707E+01 -0.17425275895E+02  0.45334840930E+01  0.18726395275E+02  0.00000000000E+00 0.  1.
         11    1    3    3    0    0  0.17134746443E+02  0.14297128494E+02  0.60422188226E+00  0.22324258178E+02  0.51100000000E-03 0. -1.
        -11    1    3    3    0    0 -0.17924762841E+02  0.13108445246E+02 -0.21219993345E+02  0.30715087131E+02  0.51100000000E-03 0.  1.
        -12    1    3    3    0    0 -0.43563572729E+01 -0.99802978452E+01  0.16082287370E+02  0.19422259416E+02  0.00000000000E+00 0.  1.
</event>
<event>
 7    1  0.2655561E-013  0.7246157E+02  0.7816164E-02  0.1226708E+00
        -11   -1    0    0    0    0  0.00000000000E+00  0.00000000000E+00  0.45593999997E+02  0.45594000000E+02  0.51100000000E-03 0. -1.
         11   -1    0    0    0    0 -0.00000000000E+00 -0.00000000000E+00 -0.45593999997E+02  0.45594000000E+02  0.51100000000E-03 0.  1.
    9900012    2    1    2    0    0  0.22348454963E+01 -0.12215703691E+02  0.14016467563E+02  0.72461566437E+02  0.69999994975E+02 0.  0.
        -12    1    1    2    0    0 -0.22348454963E+01  0.12215703691E+02 -0.14016467563E+02  0.18726433563E+02  0.00000000000E+00 0.  1.
         11    1    3    3    0    0 -0.76123135701E+01 -0.21085927602E+02 -0.86327877537E+01  0.24022670239E+02  0.51100000000E-03 0. -1.
        -11    1    3    3    0    0  0.18098815004E+02 -0.51285708569E+01  0.25756563820E+02  0.31894669204E+02  0.51100000000E-03 0.  1.
        -12    1    3    3    0    0 -0.82516559374E+01  0.13998794769E+02 -0.31073085032E+01  0.16544226994E+02  0.00000000000E+00 0.  1.
</event>
<event>
 7    1  0.2655561E-013  0.7246157E+02  0.7816164E-02  0.1226708E+00
        -11   -1    0    0    0    0  0.00000000000E+00  0.00000000000E+00  0.45593999997E+02  0.45594000000E+02  0.51100000000E-03 0.  1.
         11   -1    0    0    0    0 -0.00000000000E+00 -0.00000000000E+00 -0.45593999997E+02  0.45594000000E+02  0.51100000000E-03 0. -1.
    9900012    2    1    2    0    0 -0.14706721691E+02  0.11492729337E+02  0.15194675938E+01  0.72461567551E+02  0.69999996426E+02 0.  0.
        -12    1    1    2    0    0  0.14706721691E+02 -0.11492729337E+02 -0.15194675938E+01  0.18726432449E+02  0.00000000000E+00 0.  1.
         11    1    3    3    0    0  0.52412270507E+00 -0.64582050800E+01 -0.12209680463E+02  0.13822424343E+02  0.51100000000E-03 0. -1.
        -11    1    3    3    0    0 -0.29706482760E+02  0.75163070008E+01  0.23202432991E+02  0.38435958241E+02  0.51100000000E-03 0.  1.
         12    1    3    3    0    0  0.14475638363E+02  0.10434627416E+02 -0.94732849349E+01  0.20203184967E+02  0.00000000000E+00 0. -1.
</event>
<event>
 7    1  0.2655561E-013  0.7246154E+02  0.7816164E-02  0.1226708E+00
        -11   -1    0    0    0    0  0.00000000000E+00  0.00000000000E+00  0.45593999997E+02  0.45594000000E+02  0.51100000000E-03 0.  1.
         11   -1    0    0    0    0 -0.00000000000E+00 -0.00000000000E+00 -0.45593999997E+02  0.45594000000E+02  0.51100000000E-03 0. -1.
    9900012    2    1    2    0    0 -0.12242910111E+02  0.11453167147E+02 -0.83436348689E+01  0.72461544689E+02  0.69999966644E+02 0.  0.
        -12    1    1    2    0    0  0.12242910111E+02 -0.11453167147E+02  0.83436348689E+01  0.18726455311E+02  0.00000000000E+00 0.  1.
         11    1    3    3    0    0 -0.22012496398E+02 -0.10084798742E+02 -0.95650900891E+01  0.26033519010E+02  0.51100000000E-03 0. -1.
        -11    1    3    3    0    0 -0.27490055044E+01 -0.42489590667E+01 -0.13346409472E+02  0.14273658622E+02  0.51100000000E-03 0.  1.
        -12    1    3    3    0    0  0.12518591791E+02  0.25786924956E+02  0.14567864692E+02  0.32154367057E+02  0.00000000000E+00 0.  1.
</event>
<event>
 7    1  0.2655561E-013  0.7246161E+02  0.7816164E-02  0.1226708E+00
        -11   -1    0    0    0    0  0.00000000000E+00  0.00000000000E+00  0.45593999997E+02  0.45594000000E+02  0.51100000000E-03 0.  1.
         11   -1    0    0    0    0 -0.00000000000E+00 -0.00000000000E+00 -0.45593999997E+02  0.45594000000E+02  0.51100000000E-03 0. -1.
    9900012    2    1    2    0    0  0.80192610409E+01 -0.13924989770E+02 -0.96158052956E+01  0.72461612222E+02  0.70000054618E+02 0.  0.
        -12    1    1    2    0    0 -0.80192610409E+01  0.13924989770E+02  0.96158052956E+01  0.18726387778E+02  0.00000000000E+00 0.  1.
         11    1    3    3    0    0 -0.86269795631E+01  0.32682503783E+01 -0.11159717030E+02  0.14479140906E+02  0.51100000000E-03 0. -1.
        -11    1    3    3    0    0  0.25955067039E+02  0.10627940228E+02 -0.33279827490E+01  0.28243478680E+02  0.51100000000E-03 0.  1.
         12    1    3    3    0    0 -0.93088264352E+01 -0.27821180377E+02  0.48718944832E+01  0.29738992636E+02  0.00000000000E+00 0. -1.
</event>
<event>
 7    1  0.2655561E-013  0.7246157E+02  0.7816164E-02  0.1226708E+00
        -11   -1    0    0    0    0  0.00000000000E+00  0.00000000000E+00  0.45593999997E+02  0.45594000000E+02  0.51100000000E-03 0.  1.
         11   -1    0    0    0    0 -0.00000000000E+00 -0.00000000000E+00 -0.45593999997E+02  0.45594000000E+02  0.51100000000E-03 0. -1.
    9900012    2    1    2    0    0  0.13811565287E+02  0.49033631091E+01 -0.11656631134E+02  0.72461565346E+02  0.69999993554E+02 0.  0.
        -12    1    1    2    0    0 -0.13811565287E+02 -0.49033631091E+01  0.11656631134E+02  0.18726434654E+02  0.00000000000E+00 0.  1.
         11    1    3    3    0    0 -0.59881565258E+01  0.21752918926E+02 -0.27328952639E+02  0.35438949659E+02  0.51100000000E-03 0. -1.
        -11    1    3    3    0    0 -0.28669852313E+01  0.12028225105E+01 -0.13787617420E+01  0.34010837259E+01  0.51100000000E-03 0.  1.
        -12    1    3    3    0    0  0.22666707044E+02 -0.18052378328E+02  0.17051083247E+02  0.33621531961E+02  0.00000000000E+00 0.  1.
</event>
<event>
 7    1  0.2655561E-013  0.7246158E+02  0.7816164E-02  0.1226708E+00
        -11   -1    0    0    0    0  0.00000000000E+00  0.00000000000E+00  0.45593999997E+02  0.45594000000E+02  0.51100000000E-03 0.  1.
         11   -1    0    0    0    0 -0.00000000000E+00 -0.00000000000E+00 -0.45593999997E+02  0.45594000000E+02  0.51100000000E-03 0. -1.
    9900012    2    1    2    0    0  0.57365190624E+01  0.17540207164E+02  0.31799770758E+01  0.72461580894E+02  0.70000013809E+02 0.  0.
        -12    1    1    2    0    0 -0.57365190624E+01 -0.17540207164E+02 -0.31799770758E+01  0.18726419106E+02  0.00000000000E+00 0.  1.
         11    1    3    3    0    0 -0.87180473660E+01 -0.44119979706E+00 -0.14526567161E+02  0.16947570943E+02  0.51100000000E-03 0. -1.
        -11    1    3    3    0    0 -0.40904264166E+00 -0.15698981697E+02  0.68414729115E+01  0.17129830532E+02  0.51100000000E-03 0.  1.
         12    1    3    3    0    0  0.14863609070E+02  0.33680388658E+02  0.10865071325E+02  0.38384179419E+02  0.00000000000E+00 0. -1.
</event>
<event>
 7    1  0.2655561E-013  0.7246191E+02  0.7816164E-02  0.1226707E+00
        -11   -1    0    0    0    0  0.00000000000E+00  0.00000000000E+00  0.45593999997E+02  0.45594000000E+02  0.51100000000E-03 0. -1.
         11   -1    0    0    0    0 -0.00000000000E+00 -0.00000000000E+00 -0.45593999997E+02  0.45594000000E+02  0.51100000000E-03 0.  1.
    9900012    2    1    2    0    0  0.17176901409E+02 -0.52316473349E+01  0.53151155520E+01  0.72461907798E+02  0.70000439659E+02 0.  0.
        -12    1    1    2    0    0 -0.17176901409E+02  0.52316473349E+01 -0.53151155520E+01  0.18726092202E+02  0.00000000000E+00 0.  1.
         11    1    3    3    0    0  0.17849603869E+02 -0.27295080840E+02 -0.59428357338E+01  0.33150370935E+02  0.51100000000E-03 0. -1.
        -11    1    3    3    0    0  0.96058907510E+00 -0.74671576761E+01  0.51225361109E+01  0.91061271460E+01  0.51100000000E-03 0.  1.
        -12    1    3    3    0    0 -0.16332915348E+01  0.29530591181E+02  0.61354151749E+01  0.30205409716E+02  0.00000000000E+00 0.  1.
</event>
<event>
 7    1  0.2655561E-013  0.7246160E+02  0.7816164E-02  0.1226708E+00
        -11   -1    0    0    0    0  0.00000000000E+00  0.00000000000E+00  0.45593999997E+02  0.45594000000E+02  0.51100000000E-03 0.  1.
         11   -1    0    0    0    0 -0.00000000000E+00 -0.00000000000E+00 -0.45593999997E+02  0.45594000000E+02  0.51100000000E-03 0. -1.
    9900012    2    1    2    0    0 -0.10173935985E+02  0.54272122784E+01 -0.14755150650E+02  0.72461599458E+02  0.70000037992E+02 0.  0.
        -12    1    1    2    0    0  0.10173935985E+02 -0.54272122784E+01  0.14755150650E+02  0.18726400542E+02  0.00000000000E+00 0.  1.
         11    1    3    3    0    0 -0.25893152925E+02  0.22459367218E+02 -0.21015598637E+01  0.34340866301E+02  0.51100000000E-03 0. -1.
        -11    1    3    3    0    0 -0.70388147624E+01 -0.37255450948E+01 -0.81152360116E+01  0.11370209114E+02  0.51100000000E-03 0.  1.
        -12    1    3    3    0    0  0.22758031702E+02 -0.13306609845E+02 -0.45383547745E+01  0.26750524043E+02  0.00000000000E+00 0.  1.
</event>
<event>
 7    1  0.2655561E-013  0.7246151E+02  0.7816164E-02  0.1226708E+00
        -11   -1    0    0    0    0  0.00000000000E+00  0.00000000000E+00  0.45593999997E+02  0.45594000000E+02  0.51100000000E-03 0. -1.
         11   -1    0    0    0    0 -0.00000000000E+00 -0.00000000000E+00 -0.45593999997E+02  0.45594000000E+02  0.51100000000E-03 0.  1.
    9900012    2    1    2    0    0 -0.15746543071E+02 -0.93156529936E+01  0.39933121897E+01  0.72461506692E+02  0.69999917146E+02 0.  0.
        -12    1    1    2    0    0  0.15746543071E+02  0.93156529936E+01 -0.39933121897E+01  0.18726493308E+02  0.00000000000E+00 0.  1.
         11    1    3    3    0    0 -0.99810064818E+01 -0.18316695402E+02 -0.34627531251E+01  0.21145034413E+02  0.51100000000E-03 0. -1.
        -11    1    3    3    0    0  0.17477627837E+02 -0.33527535986E+01 -0.93336387710E+01  0.20095403566E+02  0.51100000000E-03 0.  1.
         12    1    3    3    0    0 -0.23243164426E+02  0.12353796007E+02  0.16789704086E+02  0.31221068713E+02  0.00000000000E+00 0. -1.
</event>
<event>
 7    1  0.2655561E-013  0.7246153E+02  0.7816164E-02  0.1226708E+00
        -11   -1    0    0    0    0  0.00000000000E+00  0.00000000000E+00  0.45593999997E+02  0.45594000000E+02  0.51100000000E-03 0.  1.
         11   -1    0    0    0    0 -0.00000000000E+00 -0.00000000000E+00 -0.45593999997E+02  0.45594000000E+02  0.51100000000E-03 0. -1.
    9900012    2    1    2    0    0  0.30520275637E+01  0.88731636811E+01 -0.16205952908E+02  0.72461526343E+02  0.69999942745E+02 0.  0.
        -12    1    1    2    0    0 -0.30520275637E+01 -0.88731636811E+01  0.16205952908E+02  0.18726473657E+02  0.00000000000E+00 0.  1.
         11    1    3    3    0    0  0.22191505651E+02  0.18039916542E+02 -0.16509261886E+02  0.33022072015E+02  0.51100000000E-03 0. -1.
        -11    1    3    3    0    0  0.72633734170E+01 -0.40041720953E+01  0.79315448590E+01  0.11476035538E+02  0.51100000000E-03 0.  1.
         12    1    3    3    0    0 -0.26402851504E+02 -0.51625807659E+01 -0.76282358815E+01  0.27963418789E+02  0.00000000000E+00 0. -1.
</event>
<event>
 7    1  0.2655561E-013  0.7246157E+02  0.7816164E-02  0.1226708E+00
        -11   -1    0    0    0    0  0.00000000000E+00  0.00000000000E+00  0.45593999997E+02  0.45594000000E+02  0.51100000000E-03 0.  1.
         11   -1    0    0    0    0 -0.00000000000E+00 -0.00000000000E+00 -0.45593999997E+02  0.45594000000E+02  0.51100000000E-03 0. -1.
    9900012    2    1    2    0    0  0.73409402377E+00 -0.17776147860E+02  0.58436940713E+01  0.72461572493E+02  0.70000002864E+02 0.  0.
        -12    1    1    2    0    0 -0.73409402377E+00  0.17776147860E+02 -0.58436940713E+01  0.18726427507E+02  0.00000000000E+00 0.  1.
         11    1    3    3    0    0 -0.11615153670E+01  0.12972850757E+01  0.10776417990E+02  0.10916192169E+02  0.51100000000E-03 0.  1.
        -11    1    3    3    0    0  0.14952046611E+02 -0.32771751142E+02 -0.16226494805E+02  0.39507600594E+02  0.51100000000E-03 0. -1.
         12    1    3    3    0    0 -0.13056437221E+02  0.13698318207E+02  0.11293770887E+02  0.22037779730E+02  0.00000000000E+00 0. -1.
</event>
<event>
 7    1  0.2655561E-013  0.7246157E+02  0.7816164E-02  0.1226708E+00
        -11   -1    0    0    0    0  0.00000000000E+00  0.00000000000E+00  0.45593999997E+02  0.45594000000E+02  0.51100000000E-03 0.  1.
         11   -1    0    0    0    0 -0.00000000000E+00 -0.00000000000E+00 -0.45593999997E+02  0.45594000000E+02  0.51100000000E-03 0. -1.
    9900012    2    1    2    0    0 -0.59164772960E+01 -0.58229477549E+00 -0.17757684098E+02  0.72461571742E+02  0.70000001885E+02 0.  0.
        -12    1    1    2    0    0  0.59164772960E+01  0.58229477549E+00  0.17757684098E+02  0.18726428258E+02  0.00000000000E+00 0.  1.
         11    1    3    3    0    0  0.38061050645E+01 -0.59298901542E+01 -0.15798784946E+00  0.70480489091E+01  0.51100000000E-03 0. -1.
        -11    1    3    3    0    0  0.28051914767E+01 -0.22592806076E+02  0.93606784487E+01  0.24615570009E+02  0.51100000000E-03 0.  1.
         12    1    3    3    0    0 -0.12527773837E+02  0.27940401455E+02 -0.26960374697E+02  0.40797952823E+02  0.00000000000E+00 0. -1.
</event>
<event>
 7    1  0.2655561E-013  0.7246164E+02  0.7816164E-02  0.1226708E+00
        -11   -1    0    0    0    0  0.00000000000E+00  0.00000000000E+00  0.45593999997E+02  0.45594000000E+02  0.51100000000E-03 0.  1.
         11   -1    0    0    0    0 -0.00000000000E+00 -0.00000000000E+00 -0.45593999997E+02  0.45594000000E+02  0.51100000000E-03 0. -1.
    9900012    2    1    2    0    0 -0.15124524655E+02 -0.38809109603E+00 -0.11035163144E+02  0.72461636596E+02  0.70000086370E+02 0.  0.
        -12    1    1    2    0    0  0.15124524655E+02  0.38809109603E+00  0.11035163144E+02  0.18726363404E+02  0.00000000000E+00 0.  1.
         11    1    3    3    0    0  0.11525266540E+01  0.14304396371E+02 -0.19357789147E+00  0.14352057200E+02  0.51100000000E-03 0. -1.
        -11    1    3    3    0    0 -0.17880128181E+02  0.35385285364E+01  0.16912436483E+02  0.24864647113E+02  0.51100000000E-03 0.  1.
        -12    1    3    3    0    0  0.16030768725E+01 -0.18231016003E+02 -0.27754021736E+02  0.33244932283E+02  0.00000000000E+00 0.  1.
</event>
<event>
 7    1  0.2655561E-013  0.7246158E+02  0.7816164E-02  0.1226708E+00
        -11   -1    0    0    0    0  0.00000000000E+00  0.00000000000E+00  0.45593999997E+02  0.45594000000E+02  0.51100000000E-03 0. -1.
         11   -1    0    0    0    0 -0.00000000000E+00 -0.00000000000E+00 -0.45593999997E+02  0.45594000000E+02  0.51100000000E-03 0.  1.
    9900012    2    1    2    0    0  0.14717588701E+02 -0.50732183132E+01  0.10408361197E+02  0.72461576315E+02  0.70000007843E+02 0.  0.
        -12    1    1    2    0    0 -0.14717588701E+02  0.50732183132E+01 -0.10408361197E+02  0.18726423685E+02  0.00000000000E+00 0.  1.
         11    1    3    3    0    0 -0.17303135070E+01 -0.22756461630E+02  0.13505625774E+02  0.26518907567E+02  0.51100000000E-03 0. -1.
        -11    1    3    3    0    0 -0.96742797891E+01  0.11432449169E+02 -0.10248539019E+02  0.18147317591E+02  0.51100000000E-03 0.  1.
         12    1    3    3    0    0  0.26122181997E+02  0.62507941477E+01  0.71512744425E+01  0.27795351157E+02  0.00000000000E+00 0. -1.
</event>
<event>
 7    1  0.2655561E-013  0.7246157E+02  0.7816164E-02  0.1226708E+00
        -11   -1    0    0    0    0  0.00000000000E+00  0.00000000000E+00  0.45593999997E+02  0.45594000000E+02  0.51100000000E-03 0.  1.
         11   -1    0    0    0    0 -0.00000000000E+00 -0.00000000000E+00 -0.45593999997E+02  0.45594000000E+02  0.51100000000E-03 0. -1.
    9900012    2    1    2    0    0  0.70445705304E+01 -0.98218490925E+01 -0.14303298554E+02  0.72461573670E+02  0.70000004398E+02 0.  0.
        -12    1    1    2    0    0 -0.70445705304E+01  0.98218490925E+01  0.14303298554E+02  0.18726426330E+02  0.00000000000E+00 0.  1.
         11    1    3    3    0    0  0.29480441401E+01  0.18350767831E+02 -0.64836705167E+01  0.19684502226E+02  0.51100000000E-03 0. -1.
        -11    1    3    3    0    0  0.11973707514E+02  0.65411240942E+01  0.55819970738E+01  0.14741596510E+02  0.51100000000E-03 0.  1.
        -12    1    3    3    0    0 -0.78771811241E+01 -0.34713741018E+02 -0.13401625111E+02  0.38035474935E+02  0.00000000000E+00 0.  1.
</event>
<event>
 7    1  0.2655561E-013  0.7246150E+02  0.7816164E-02  0.1226708E+00
        -11   -1    0    0    0    0  0.00000000000E+00  0.00000000000E+00  0.45593999997E+02  0.45594000000E+02  0.51100000000E-03 0.  1.
         11   -1    0    0    0    0 -0.00000000000E+00 -0.00000000000E+00 -0.45593999997E+02  0.45594000000E+02  0.51100000000E-03 0. -1.
    9900012    2    1    2    0    0  0.10026524959E+02 -0.17109661041E+01 -0.15723331336E+02  0.72461501233E+02  0.69999910035E+02 0.  0.
        -12    1    1    2    0    0 -0.10026524959E+02  0.17109661041E+01  0.15723331336E+02  0.18726498767E+02  0.00000000000E+00 0.  1.
         11    1    3    3    0    0  0.57149635686E+01  0.45726406317E-01  0.79926476421E+01  0.98257476095E+01  0.51100000000E-03 0. -1.
        -11    1    3    3    0    0  0.12034126245E+02  0.77413341385E+00  0.17152394857E+02  0.20967215519E+02  0.51100000000E-03 0.  1.
         12    1    3    3    0    0 -0.77225648549E+01 -0.25308259243E+01 -0.40868373836E+02  0.41668538105E+02  0.00000000000E+00 0. -1.
</event>
<event>
 7    1  0.2655561E-013  0.7246157E+02  0.7816164E-02  0.1226708E+00
        -11   -1    0    0    0    0  0.00000000000E+00  0.00000000000E+00  0.45593999997E+02  0.45594000000E+02  0.51100000000E-03 0.  1.
         11   -1    0    0    0    0 -0.00000000000E+00 -0.00000000000E+00 -0.45593999997E+02  0.45594000000E+02  0.51100000000E-03 0. -1.
    9900012    2    1    2    0    0 -0.82412677863E+01  0.16384754805E+02 -0.37815945646E+01  0.72461571024E+02  0.70000000950E+02 0.  0.
        -12    1    1    2    0    0  0.82412677863E+01 -0.16384754805E+02  0.37815945646E+01  0.18726428976E+02  0.00000000000E+00 0.  1.
         11    1    3    3    0    0  0.97113602466E+01  0.44996217241E+01  0.12559827696E+01  0.10776576751E+02  0.51100000000E-03 0. -1.
        -11    1    3    3    0    0 -0.45736721584E+01 -0.20807679685E+02  0.97009932004E+01  0.23409128139E+02  0.51100000000E-03 0.  1.
         12    1    3    3    0    0 -0.13378955874E+02  0.32692812766E+02 -0.14738570535E+02  0.38275866133E+02  0.00000000000E+00 0. -1.
</event>
<event>
 7    1  0.2655561E-013  0.7246158E+02  0.7816164E-02  0.1226708E+00
        -11   -1    0    0    0    0  0.00000000000E+00  0.00000000000E+00  0.45593999997E+02  0.45594000000E+02  0.51100000000E-03 0.  1.
         11   -1    0    0    0    0 -0.00000000000E+00 -0.00000000000E+00 -0.45593999997E+02  0.45594000000E+02  0.51100000000E-03 0. -1.
    9900012    2    1    2    0    0  0.10939973511E+02 -0.78614158731E+01  0.13007450861E+02  0.72461583956E+02  0.70000017797E+02 0.  0.
        -12    1    1    2    0    0 -0.10939973511E+02  0.78614158731E+01 -0.13007450861E+02  0.18726416044E+02  0.00000000000E+00 0.  1.
         11    1    3    3    0    0 -0.14196071507E+02  0.67363465449E+01 -0.15329735621E+02  0.21952394071E+02  0.51100000000E-03 0. -1.
        -11    1    3    3    0    0 -0.51325624996E+01 -0.96413657340E+01  0.52452774220E+01  0.12116602928E+02  0.51100000000E-03 0.  1.
        -12    1    3    3    0    0  0.30268607518E+02 -0.49563966839E+01  0.23091909060E+02  0.38392586956E+02  0.00000000000E+00 0.  1.
</event>
<event>
 7    1  0.2655561E-013  0.7246154E+02  0.7816164E-02  0.1226708E+00
        -11   -1    0    0    0    0  0.00000000000E+00  0.00000000000E+00  0.45593999997E+02  0.45594000000E+02  0.51100000000E-03 0. -1.
         11   -1    0    0    0    0 -0.00000000000E+00 -0.00000000000E+00 -0.45593999997E+02  0.45594000000E+02  0.51100000000E-03 0.  1.
    9900012    2    1    2    0    0  0.17261997119E+02 -0.28732100703E+01  0.66669636815E+01  0.72461540500E+02  0.69999961188E+02 0.  0.
        -12    1    1    2    0    0 -0.17261997119E+02  0.28732100703E+01 -0.66669636815E+01  0.18726459500E+02  0.00000000000E+00 0.  1.
         11    1    3    3    0    0 -0.76699099947E+01  0.56159247919E+01 -0.36643400280E+01  0.10187910419E+02  0.51100000000E-03 0. -1.
        -11    1    3    3    0    0  0.26980032383E+02 -0.10284644911E+02  0.30454856255E+02  0.41966585972E+02  0.51100000000E-03 0.  1.
         12    1    3    3    0    0 -0.20481252693E+01  0.17955100485E+01 -0.20123552545E+02  0.20307044110E+02  0.00000000000E+00 0. -1.
</event>
<event>
 7    1  0.2655561E-013  0.7246159E+02  0.7816164E-02  0.1226708E+00
        -11   -1    0    0    0    0  0.00000000000E+00  0.00000000000E+00  0.45593999997E+02  0.45594000000E+02  0.51100000000E-03 0. -1.
         11   -1    0    0    0    0 -0.00000000000E+00 -0.00000000000E+00 -0.45593999997E+02  0.45594000000E+02  0.51100000000E-03 0.  1.
    9900012    2    1    2    0    0 -0.86160884485E+01  0.15629975552E+02  0.56696797369E+01  0.72461591262E+02  0.70000027314E+02 0.  0.
        -12    1    1    2    0    0  0.86160884485E+01 -0.15629975552E+02 -0.56696797369E+01  0.18726408738E+02  0.00000000000E+00 0.  1.
         11    1    3    3    0    0  0.15975051373E+02  0.15135200256E+01  0.18481906563E+02  0.24475985776E+02  0.51100000000E-03 0. -1.
        -11    1    3    3    0    0 -0.19520031346E+01 -0.74482926469E+01  0.74613176536E+01  0.10721876747E+02  0.51100000000E-03 0.  1.
        -12    1    3    3    0    0 -0.22639136686E+02  0.21564748174E+02 -0.20273544480E+02  0.37263728738E+02  0.00000000000E+00 0.  1.
</event>
<event>
 7    1  0.2655561E-013  0.7246155E+02  0.7816164E-02  0.1226708E+00
        -11   -1    0    0    0    0  0.00000000000E+00  0.00000000000E+00  0.45593999997E+02  0.45594000000E+02  0.51100000000E-03 0. -1.
         11   -1    0    0    0    0 -0.00000000000E+00 -0.00000000000E+00 -0.45593999997E+02  0.45594000000E+02  0.51100000000E-03 0.  1.
    9900012    2    1    2    0    0  0.18380038995E+02  0.21755088795E+01 -0.28498044899E+01  0.72461546572E+02  0.69999969098E+02 0.  0.
        -12    1    1    2    0    0 -0.18380038995E+02 -0.21755088795E+01  0.28498044899E+01  0.18726453428E+02  0.00000000000E+00 0.  1.
         11    1    3    3    0    0  0.30668523817E+01 -0.10608070728E+02  0.44335829337E+01  0.11899302752E+02  0.51100000000E-03 0. -1.
        -11    1    3    3    0    0  0.23475981922E+02 -0.15758642132E+02  0.44850263649E+01  0.28628167786E+02  0.51100000000E-03 0.  1.
         12    1    3    3    0    0 -0.81627953082E+01  0.28542221739E+02 -0.11768413788E+02  0.31934076034E+02  0.00000000000E+00 0. -1.
</event>
<event>
 7    1  0.2655561E-013  0.7246155E+02  0.7816164E-02  0.1226708E+00
        -11   -1    0    0    0    0  0.00000000000E+00  0.00000000000E+00  0.45593999997E+02  0.45594000000E+02  0.51100000000E-03 0.  1.
         11   -1    0    0    0    0 -0.00000000000E+00 -0.00000000000E+00 -0.45593999997E+02  0.45594000000E+02  0.51100000000E-03 0. -1.
    9900012    2    1    2    0    0 -0.85642297727E+01  0.16653311819E+02  0.35898214984E-01  0.72461545055E+02  0.69999967121E+02 0.  0.
        -12    1    1    2    0    0  0.85642297727E+01 -0.16653311819E+02 -0.35898214984E-01  0.18726454945E+02  0.00000000000E+00 0.  1.
         11    1    3    3    0    0 -0.88822992020E+01  0.16459443197E+02  0.20203367258E+02  0.27531519360E+02  0.51100000000E-03 0.  1.
        -11    1    3    3    0    0 -0.15490425465E+02  0.85054148704E+01  0.41765106960E+00  0.17676815207E+02  0.51100000000E-03 0. -1.
        -12    1    3    3    0    0  0.15808494894E+02 -0.83115462485E+01 -0.20585120112E+02  0.27253210488E+02  0.00000000000E+00 0.  1.
</event>
<event>
 7    1  0.2655561E-013  0.7246157E+02  0.7816164E-02  0.1226708E+00
        -11   -1    0    0    0    0  0.00000000000E+00  0.00000000000E+00  0.45593999997E+02  0.45594000000E+02  0.51100000000E-03 0. -1.
         11   -1    0    0    0    0 -0.00000000000E+00 -0.00000000000E+00 -0.45593999997E+02  0.45594000000E+02  0.51100000000E-03 0.  1.
    9900012    2    1    2    0    0 -0.17565142175E+02  0.35735706434E+01  0.54198405169E+01  0.72461566864E+02  0.69999995532E+02 0.  0.
        -12    1    1    2    0    0  0.17565142175E+02 -0.35735706434E+01 -0.54198405169E+01  0.18726433136E+02  0.00000000000E+00 0.  1.
         11    1    3    3    0    0 -0.84412731376E+01  0.20249018376E+02  0.12484481111E+02  0.25241634382E+02  0.51100000000E-03 0. -1.
        -11    1    3    3    0    0 -0.10358142962E+02 -0.86086513703E+01  0.17069604735E+02  0.21743307249E+02  0.51100000000E-03 0.  1.
        -12    1    3    3    0    0  0.12342739251E+01 -0.80667963626E+01 -0.24134245329E+02  0.25476625234E+02  0.00000000000E+00 0.  1.
</event>
<event>
 7    1  0.2655561E-013  0.7246158E+02  0.7816164E-02  0.1226708E+00
        -11   -1    0    0    0    0  0.00000000000E+00  0.00000000000E+00  0.45593999997E+02  0.45594000000E+02  0.51100000000E-03 0.  1.
         11   -1    0    0    0    0 -0.00000000000E+00 -0.00000000000E+00 -0.45593999997E+02  0.45594000000E+02  0.51100000000E-03 0. -1.
    9900012    2    1    2    0    0  0.15204877716E+02 -0.67623667171E+01 -0.85884199300E+01  0.72461578375E+02  0.70000010527E+02 0.  0.
        -12    1    1    2    0    0 -0.15204877716E+02  0.67623667171E+01  0.85884199300E+01  0.18726421625E+02  0.00000000000E+00 0.  1.
         11    1    3    3    0    0  0.96427643928E+01 -0.24940340584E+01 -0.26876857586E+02  0.28663017723E+02  0.51100000000E-03 0. -1.
        -11    1    3    3    0    0 -0.84988733284E+01  0.10380851566E+02 -0.36515477704E+01  0.13904198231E+02  0.51100000000E-03 0.  1.
        -12    1    3    3    0    0  0.14060986651E+02 -0.14649184224E+02  0.21939985426E+02  0.29894362421E+02  0.00000000000E+00 0.  1.
</event>
<event>
 7    1  0.2655561E-013  0.7246157E+02  0.7816164E-02  0.1226708E+00
        -11   -1    0    0    0    0  0.00000000000E+00  0.00000000000E+00  0.45593999997E+02  0.45594000000E+02  0.51100000000E-03 0. -1.
         11   -1    0    0    0    0 -0.00000000000E+00 -0.00000000000E+00 -0.45593999997E+02  0.45594000000E+02  0.51100000000E-03 0.  1.
    9900012    2    1    2    0    0  0.10722593214E+02  0.11815815562E+02 -0.98026349746E+01  0.72461570680E+02  0.70000000503E+02 0.  0.
        -12    1    1    2    0    0 -0.10722593214E+02 -0.11815815562E+02  0.98026349746E+01  0.18726429320E+02  0.00000000000E+00 0.  1.
         11    1    3    3    0    0  0.63933238435E+01  0.17507029318E+02 -0.11979537396E+02  0.22155811467E+02  0.51100000000E-03 0. -1.
        -11    1    3    3    0    0  0.28778195178E+01  0.11365445112E+02 -0.19458286961E+02  0.22717396847E+02  0.51100000000E-03 0.  1.
        -12    1    3    3    0    0  0.14514498531E+01 -0.17056658868E+02  0.21635189382E+02  0.27588362366E+02  0.00000000000E+00 0.  1.
</event>
<event>
 7    1  0.2655561E-013  0.7246153E+02  0.7816164E-02  0.1226708E+00
        -11   -1    0    0    0    0  0.00000000000E+00  0.00000000000E+00  0.45593999997E+02  0.45594000000E+02  0.51100000000E-03 0.  1.
         11   -1    0    0    0    0 -0.00000000000E+00 -0.00000000000E+00 -0.45593999997E+02  0.45594000000E+02  0.51100000000E-03 0. -1.
    9900012    2    1    2    0    0  0.87597488847E+00  0.16089467892E+02 -0.95416081134E+01  0.72461532249E+02  0.69999950439E+02 0.  0.
        -12    1    1    2    0    0 -0.87597488847E+00 -0.16089467892E+02  0.95416081134E+01  0.18726467751E+02  0.00000000000E+00 0.  1.
         11    1    3    3    0    0  0.23289003349E+02 -0.75499577055E+01 -0.94796259593E+01  0.26253434955E+02  0.51100000000E-03 0. -1.
        -11    1    3    3    0    0 -0.20834515148E+01 -0.70948791913E+01 -0.51469017503E+01  0.90093661732E+01  0.51100000000E-03 0.  1.
        -12    1    3    3    0    0 -0.20329576946E+02  0.30734304789E+02  0.50849195962E+01  0.37198731120E+02  0.00000000000E+00 0.  1.
</event>
<event>
 7    1  0.2655561E-013  0.7246156E+02  0.7816164E-02  0.1226708E+00
        -11   -1    0    0    0    0  0.00000000000E+00  0.00000000000E+00  0.45593999997E+02  0.45594000000E+02  0.51100000000E-03 0. -1.
         11   -1    0    0    0    0 -0.00000000000E+00 -0.00000000000E+00 -0.45593999997E+02  0.45594000000E+02  0.51100000000E-03 0.  1.
    9900012    2    1    2    0    0 -0.13860955910E+02  0.73862705918E+01  0.10197864107E+02  0.72461560821E+02  0.69999987659E+02 0.  0.
        -12    1    1    2    0    0  0.13860955910E+02 -0.73862705918E+01 -0.10197864107E+02  0.18726439179E+02  0.00000000000E+00 0.  1.
         11    1    3    3    0    0  0.26659272859E+02 -0.31355404860E+01 -0.38515005835E+00  0.26845796400E+02  0.51100000000E-03 0.  1.
        -11    1    3    3    0    0 -0.11516523702E+02  0.91437264465E+01  0.72302430928E+01  0.16386411045E+02  0.51100000000E-03 0. -1.
        -12    1    3    3    0    0 -0.29003705067E+02  0.13780846312E+01  0.33527710724E+01  0.29229353375E+02  0.00000000000E+00 0.  1.
</event>
<event>
 7    1  0.2655561E-013  0.7246159E+02  0.7816164E-02  0.1226708E+00
        -11   -1    0    0    0    0  0.00000000000E+00  0.00000000000E+00  0.45593999997E+02  0.45594000000E+02  0.51100000000E-03 0.  1.
         11   -1    0    0    0    0 -0.00000000000E+00 -0.00000000000E+00 -0.45593999997E+02  0.45594000000E+02  0.51100000000E-03 0. -1.
    9900012    2    1    2    0    0  0.17319362319E+02  0.33996771056E+01 -0.62578096819E+01  0.72461593576E+02  0.70000030328E+02 0.  0.
        -12    1    1    2    0    0 -0.17319362319E+02 -0.33996771056E+01  0.62578096819E+01  0.18726406424E+02  0.00000000000E+00 0.  1.
         11    1    3    3    0    0 -0.14645364760E+02  0.91169897492E+01  0.67725235648E+01  0.18533032314E+02  0.51100000000E-03 0. -1.
        -11    1    3    3    0    0 -0.49034208566E+01  0.10229057653E+02  0.98129768427E+00  0.11385960740E+02  0.51100000000E-03 0.  1.
        -12    1    3    3    0    0  0.36868147936E+02 -0.15946370296E+02 -0.14011630931E+02  0.42542600522E+02  0.00000000000E+00 0.  1.
</event>
<event>
 7    1  0.2655561E-013  0.7246154E+02  0.7816164E-02  0.1226708E+00
        -11   -1    0    0    0    0  0.00000000000E+00  0.00000000000E+00  0.45593999997E+02  0.45594000000E+02  0.51100000000E-03 0. -1.
         11   -1    0    0    0    0 -0.00000000000E+00 -0.00000000000E+00 -0.45593999997E+02  0.45594000000E+02  0.51100000000E-03 0.  1.
    9900012    2    1    2    0    0 -0.10116223546E+02 -0.15399902178E+02  0.33444251235E+01  0.72461544240E+02  0.69999966060E+02 0.  0.
        -12    1    1    2    0    0  0.10116223546E+02  0.15399902178E+02 -0.33444251235E+01  0.18726455760E+02  0.00000000000E+00 0.  1.
         11    1    3    3    0    0 -0.62076471379E+01 -0.23700400824E+01  0.42055142812E+00  0.66579904435E+01  0.51100000000E-03 0. -1.
        -11    1    3    3    0    0 -0.16834157548E+02 -0.21898273922E+02 -0.22708802280E+02  0.35757697946E+02  0.51100000000E-03 0.  1.
         12    1    3    3    0    0  0.12925581140E+02  0.88684118271E+01  0.25632675976E+02  0.30045855851E+02  0.00000000000E+00 0. -1.
</event>
<event>
 7    1  0.2655561E-013  0.7246158E+02  0.7816164E-02  0.1226708E+00
        -11   -1    0    0    0    0  0.00000000000E+00  0.00000000000E+00  0.45593999997E+02  0.45594000000E+02  0.51100000000E-03 0.  1.
         11   -1    0    0    0    0 -0.00000000000E+00 -0.00000000000E+00 -0.45593999997E+02  0.45594000000E+02  0.51100000000E-03 0. -1.
    9900012    2    1    2    0    0  0.83338064237E+01 -0.16318293955E+02  0.38651961302E+01  0.72461580475E+02  0.70000013262E+02 0.  0.
        -12    1    1    2    0    0 -0.83338064237E+01  0.16318293955E+02 -0.38651961302E+01  0.18726419525E+02  0.00000000000E+00 0.  1.
         11    1    3    3    0    0  0.26330817620E+02 -0.24720032146E+02 -0.83863150079E+01  0.37077246736E+02  0.51100000000E-03 0. -1.
        -11    1    3    3    0    0  0.54989036811E+01 -0.38321176794E+01  0.26684429294E+01  0.72141288824E+01  0.51100000000E-03 0.  1.
        -12    1    3    3    0    0 -0.23495914877E+02  0.12233855870E+02  0.95830682087E+01  0.28170204857E+02  0.00000000000E+00 0.  1.
</event>
<event>
 7    1  0.2655561E-013  0.7246183E+02  0.7816164E-02  0.1226707E+00
        -11   -1    0    0    0    0  0.00000000000E+00  0.00000000000E+00  0.45593999997E+02  0.45594000000E+02  0.51100000000E-03 0.  1.
         11   -1    0    0    0    0 -0.00000000000E+00 -0.00000000000E+00 -0.45593999997E+02  0.45594000000E+02  0.51100000000E-03 0. -1.
    9900012    2    1    2    0    0  0.12379128624E+02 -0.12399587833E+02 -0.66088566168E+01  0.72461826079E+02  0.70000333207E+02 0.  0.
        -12    1    1    2    0    0 -0.12379128624E+02  0.12399587833E+02  0.66088566168E+01  0.18726173921E+02  0.00000000000E+00 0.  1.
         11    1    3    3    0    0  0.33113508896E+02 -0.44184752199E+01 -0.69018324220E+01  0.34112500431E+02  0.51100000000E-03 0. -1.
        -11    1    3    3    0    0 -0.18981306064E+01 -0.60451347180E+01 -0.13506633210E+02  0.14918970960E+02  0.51100000000E-03 0.  1.
        -12    1    3    3    0    0 -0.18836249665E+02 -0.19359778952E+01  0.13799609015E+02  0.23430354688E+02  0.00000000000E+00 0.  1.
</event>
<event>
 7    1  0.2655561E-013  0.7246161E+02  0.7816164E-02  0.1226708E+00
        -11   -1    0    0    0    0  0.00000000000E+00  0.00000000000E+00  0.45593999997E+02  0.45594000000E+02  0.51100000000E-03 0. -1.
         11   -1    0    0    0    0 -0.00000000000E+00 -0.00000000000E+00 -0.45593999997E+02  0.45594000000E+02  0.51100000000E-03 0.  1.
    9900012    2    1    2    0    0 -0.16888718942E+02  0.50944246303E+01  0.62845693093E+01  0.72461606829E+02  0.70000047593E+02 0.  0.
        -12    1    1    2    0    0  0.16888718942E+02 -0.50944246303E+01 -0.62845693093E+01  0.18726393171E+02  0.00000000000E+00 0.  1.
         11    1    3    3    0    0 -0.19167155109E+02  0.44342968863E+01 -0.12870750787E+02  0.23509552312E+02  0.51100000000E-03 0. -1.
        -11    1    3    3    0    0 -0.14810276277E+02  0.42674186992E+01 -0.74557868793E+01  0.17121445734E+02  0.51100000000E-03 0.  1.
         12    1    3    3    0    0  0.17088712444E+02 -0.36072909553E+01  0.26611106975E+02  0.31830608783E+02  0.00000000000E+00 0. -1.
</event>
<event>
 7    1  0.2655561E-013  0.7246174E+02  0.7816164E-02  0.1226708E+00
        -11   -1    0    0    0    0  0.00000000000E+00  0.00000000000E+00  0.45593999997E+02  0.45594000000E+02  0.51100000000E-03 0.  1.
         11   -1    0    0    0    0 -0.00000000000E+00 -0.00000000000E+00 -0.45593999997E+02  0.45594000000E+02  0.51100000000E-03 0. -1.
    9900012    2    1    2    0    0 -0.17723185109E+02  0.74110761905E+00 -0.60010298533E+01  0.72461737955E+02  0.70000218408E+02 0.  0.
        -12    1    1    2    0    0  0.17723185109E+02 -0.74110761905E+00  0.60010298533E+01  0.18726262045E+02  0.00000000000E+00 0.  1.
         11    1    3    3    0    0  0.89131508335E+00  0.82913371468E+01 -0.11608454449E+02  0.14293247679E+02  0.51100000000E-03 0. -1.
        -11    1    3    3    0    0 -0.53227264750E+01  0.16832389843E+02  0.20175738440E+02  0.26808975863E+02  0.51100000000E-03 0.  1.
         12    1    3    3    0    0 -0.13291773717E+02 -0.24382619371E+02 -0.14568313844E+02  0.31359514412E+02  0.00000000000E+00 0. -1.
</event>
<event>
 7    1  0.2655561E-013  0.7246158E+02  0.7816164E-02  0.1226708E+00
        -11   -1    0    0    0    0  0.00000000000E+00  0.00000000000E+00  0.45593999997E+02  0.45594000000E+02  0.51100000000E-03 0.  1.
         11   -1    0    0    0    0 -0.00000000000E+00 -0.00000000000E+00 -0.45593999997E+02  0.45594000000E+02  0.51100000000E-03 0. -1.
    9900012    2    1    2    0    0  0.12202947452E+02 -0.32527046623E+01 -0.13827026320E+02  0.72461583605E+02  0.70000017340E+02 0.  0.
        -12    1    1    2    0    0 -0.12202947452E+02  0.32527046623E+01  0.13827026320E+02  0.18726416395E+02  0.00000000000E+00 0.  1.
         11    1    3    3    0    0  0.18298588924E+02  0.27251663638E+02 -0.95256710857E+01  0.34179378835E+02  0.51100000000E-03 0. -1.
        -11    1    3    3    0    0 -0.18395484076E+01 -0.14457368008E+01 -0.83174125979E+01  0.86402225565E+01  0.51100000000E-03 0.  1.
        -12    1    3    3    0    0 -0.42560930648E+01 -0.29058631500E+02  0.40160573632E+01  0.29641982214E+02  0.00000000000E+00 0.  1.
</event>
<event>
 7    1  0.2992810E-013  0.7246157E+02  0.7816164E-02  0.1226708E+00
        -11   -1    0    0    0    0  0.00000000000E+00  0.00000000000E+00  0.45593999997E+02  0.45594000000E+02  0.51100000000E-03 0. -1.
         11   -1    0    0    0    0 -0.00000000000E+00 -0.00000000000E+00 -0.45593999997E+02  0.45594000000E+02  0.51100000000E-03 0.  1.
    9900012    2    1    2    0    0  0.10966075139E+02 -0.11844522516E+02  0.94937710335E+01  0.72461569320E+02  0.69999998730E+02 0.  0.
        -12    1    1    2    0    0 -0.10966075139E+02  0.11844522516E+02 -0.94937710335E+01  0.18726430680E+02  0.00000000000E+00 0.  1.
         11    1    3    3    0    0  0.16451393477E+02  0.72240341197E+01  0.20391495846E+02  0.27178081599E+02  0.51100000000E-03 0. -1.
        -11    1    3    3    0    0 -0.10917851151E+02 -0.10462882411E+02  0.12595708519E+02  0.19680529857E+02  0.51100000000E-03 0.  1.
        -12    1    3    3    0    0  0.54325328126E+01 -0.86056742255E+01 -0.23493433332E+02  0.25602957864E+02  0.00000000000E+00 0.  1.
</event>
<event>
 7    1  0.2655561E-013  0.7246160E+02  0.7816164E-02  0.1226708E+00
        -11   -1    0    0    0    0  0.00000000000E+00  0.00000000000E+00  0.45593999997E+02  0.45594000000E+02  0.51100000000E-03 0. -1.
         11   -1    0    0    0    0 -0.00000000000E+00 -0.00000000000E+00 -0.45593999997E+02  0.45594000000E+02  0.51100000000E-03 0.  1.
    9900012    2    1    2    0    0  0.15172395181E+02  0.26648987766E+01  0.10647760506E+02  0.72461599790E+02  0.70000038424E+02 0.  0.
        -12    1    1    2    0    0 -0.15172395181E+02 -0.26648987766E+01 -0.10647760506E+02  0.18726400210E+02  0.00000000000E+00 0.  1.
         11    1    3    3    0    0  0.81167644589E+00  0.18362825110E+01  0.12065141184E+02  0.12231041827E+02  0.51100000000E-03 0. -1.
        -11    1    3    3    0    0  0.34354363635E+02 -0.91840725750E+01  0.71721771386E+01  0.36276846817E+02  0.51100000000E-03 0.  1.
         12    1    3    3    0    0 -0.19993644900E+02  0.10012688841E+02 -0.85895578168E+01  0.23953711147E+02  0.00000000000E+00 0. -1.
</event>
<event>
 7    1  0.2655561E-013  0.7246158E+02  0.7816164E-02  0.1226708E+00
        -11   -1    0    0    0    0  0.00000000000E+00  0.00000000000E+00  0.45593999997E+02  0.45594000000E+02  0.51100000000E-03 0.  1.
         11   -1    0    0    0    0 -0.00000000000E+00 -0.00000000000E+00 -0.45593999997E+02  0.45594000000E+02  0.51100000000E-03 0. -1.
    9900012    2    1    2    0    0 -0.78864369098E+01 -0.65689190468E+01 -0.15663083829E+02  0.72461580705E+02  0.70000013561E+02 0.  0.
        -12    1    1    2    0    0  0.78864369098E+01  0.65689190468E+01  0.15663083829E+02  0.18726419295E+02  0.00000000000E+00 0.  1.
         11    1    3    3    0    0  0.58603728855E+01 -0.35979712280E+01 -0.49075279007E+01  0.84482659565E+01  0.51100000000E-03 0. -1.
        -11    1    3    3    0    0  0.23868318930E+02 -0.12912934722E+01 -0.11110111901E+02  0.26359034013E+02  0.51100000000E-03 0.  1.
         12    1    3    3    0    0 -0.37615128726E+02 -0.16796543467E+01  0.35455597197E+00  0.37654280735E+02  0.00000000000E+00 0. -1.
</event>
<event>
 7    1  0.2655561E-013  0.7246155E+02  0.7816164E-02  0.1226708E+00
        -11   -1    0    0    0    0  0.00000000000E+00  0.00000000000E+00  0.45593999997E+02  0.45594000000E+02  0.51100000000E-03 0.  1.
         11   -1    0    0    0    0 -0.00000000000E+00 -0.00000000000E+00 -0.45593999997E+02  0.45594000000E+02  0.51100000000E-03 0. -1.
    9900012    2    1    2    0    0  0.16120784861E+02  0.77772520442E+01  0.55058829372E+01  0.72461545429E+02  0.69999967608E+02 0.  0.
        -12    1    1    2    0    0 -0.16120784861E+02 -0.77772520442E+01 -0.55058829372E+01  0.18726454571E+02  0.00000000000E+00 0.  1.
         11    1    3    3    0    0  0.74527819454E+01 -0.26305137636E+02  0.62836067596E+00  0.27347743274E+02  0.51100000000E-03 0. -1.
        -11    1    3    3    0    0  0.28358683113E+01 -0.32535066803E+01  0.59014592715E+01  0.73112705183E+01  0.51100000000E-03 0.  1.
        -12    1    3    3    0    0  0.58321346040E+01  0.37335896361E+02 -0.10239370102E+01  0.37802531636E+02  0.00000000000E+00 0.  1.
</event>
<event>
 7    1  0.2655561E-013  0.7246159E+02  0.7816164E-02  0.1226708E+00
        -11   -1    0    0    0    0  0.00000000000E+00  0.00000000000E+00  0.45593999997E+02  0.45594000000E+02  0.51100000000E-03 0. -1.
         11   -1    0    0    0    0 -0.00000000000E+00 -0.00000000000E+00 -0.45593999997E+02  0.45594000000E+02  0.51100000000E-03 0.  1.
    9900012    2    1    2    0    0 -0.13909825618E+02  0.11884130969E+02  0.39953140482E+01  0.72461592123E+02  0.70000028436E+02 0.  0.
        -12    1    1    2    0    0  0.13909825618E+02 -0.11884130969E+02 -0.39953140482E+01  0.18726407877E+02  0.00000000000E+00 0.  1.
         11    1    3    3    0    0 -0.66797977635E+00 -0.14962491017E+02  0.16440010278E+02  0.22239520512E+02  0.51100000000E-03 0. -1.
        -11    1    3    3    0    0  0.10440586819E+02  0.10140505232E+02  0.61363120483E+01  0.15795253252E+02  0.51100000000E-03 0.  1.
        -12    1    3    3    0    0 -0.23682432660E+02  0.16706116754E+02 -0.18581008278E+02  0.34426818359E+02  0.00000000000E+00 0.  1.
</event>
<event>
 7    1  0.2655561E-013  0.7246156E+02  0.7816164E-02  0.1226708E+00
        -11   -1    0    0    0    0  0.00000000000E+00  0.00000000000E+00  0.45593999997E+02  0.45594000000E+02  0.51100000000E-03 0. -1.
         11   -1    0    0    0    0 -0.00000000000E+00 -0.00000000000E+00 -0.45593999997E+02  0.45594000000E+02  0.51100000000E-03 0.  1.
    9900012    2    1    2    0    0 -0.18379700081E+02 -0.18885100500E+01 -0.30495516292E+01  0.72461558523E+02  0.69999984665E+02 0.  0.
        -12    1    1    2    0    0  0.18379700081E+02  0.18885100500E+01  0.30495516292E+01  0.18726441477E+02  0.00000000000E+00 0.  1.
         11    1    3    3    0    0  0.81255142336E+00 -0.61053968322E+01 -0.80257455106E+00  0.62112990965E+01  0.51100000000E-03 0. -1.
        -11    1    3    3    0    0 -0.52683696987E+01 -0.23325784422E+02 -0.19532889389E+02  0.30876879802E+02  0.51100000000E-03 0.  1.
         12    1    3    3    0    0 -0.13923881805E+02  0.27542671204E+02  0.17285912311E+02  0.35373379624E+02  0.00000000000E+00 0. -1.
</event>
<event>
 7    1  0.2655561E-013  0.7246150E+02  0.7816164E-02  0.1226708E+00
        -11   -1    0    0    0    0  0.00000000000E+00  0.00000000000E+00  0.45593999997E+02  0.45594000000E+02  0.51100000000E-03 0.  1.
         11   -1    0    0    0    0 -0.00000000000E+00 -0.00000000000E+00 -0.45593999997E+02  0.45594000000E+02  0.51100000000E-03 0. -1.
    9900012    2    1    2    0    0 -0.11356966152E+02 -0.81365787913E+01 -0.12469846914E+02  0.72461503353E+02  0.69999912796E+02 0.  0.
        -12    1    1    2    0    0  0.11356966152E+02  0.81365787913E+01  0.12469846914E+02  0.18726496647E+02  0.00000000000E+00 0.  1.
         11    1    3    3    0    0 -0.82355259457E+01 -0.46854519171E+01  0.10762808202E+02  0.14339295238E+02  0.51100000000E-03 0. -1.
        -11    1    3    3    0    0  0.12369332695E+02 -0.19058840886E+02 -0.27551824424E+02  0.35711942492E+02  0.51100000000E-03 0.  1.
         12    1    3    3    0    0 -0.15490772902E+02  0.15607714012E+02  0.43191693081E+01  0.22410265622E+02  0.00000000000E+00 0. -1.
</event>
<event>
 7    1  0.2655561E-013  0.7246154E+02  0.7816164E-02  0.1226708E+00
        -11   -1    0    0    0    0  0.00000000000E+00  0.00000000000E+00  0.45593999997E+02  0.45594000000E+02  0.51100000000E-03 0.  1.
         11   -1    0    0    0    0 -0.00000000000E+00 -0.00000000000E+00 -0.45593999997E+02  0.45594000000E+02  0.51100000000E-03 0. -1.
    9900012    2    1    2    0    0 -0.15668562216E+01  0.31349848057E+00 -0.18658164000E+02  0.72461537345E+02  0.69999957078E+02 0.  0.
        -12    1    1    2    0    0  0.15668562216E+01 -0.31349848057E+00  0.18658164000E+02  0.18726462655E+02  0.00000000000E+00 0.  1.
         11    1    3    3    0    0 -0.43015634419E+01  0.24304183548E+02 -0.18088720408E+02  0.30600630585E+02  0.51100000000E-03 0. -1.
        -11    1    3    3    0    0  0.33857881720E+00  0.64815804854E+01  0.78215420213E+01  0.10163761167E+02  0.51100000000E-03 0.  1.
        -12    1    3    3    0    0  0.23961284031E+01 -0.30472265552E+02 -0.83909856130E+01  0.31697145593E+02  0.00000000000E+00 0.  1.
</event>
<event>
 7    1  0.2655561E-013  0.7246160E+02  0.7816164E-02  0.1226708E+00
        -11   -1    0    0    0    0  0.00000000000E+00  0.00000000000E+00  0.45593999997E+02  0.45594000000E+02  0.51100000000E-03 0.  1.
         11   -1    0    0    0    0 -0.00000000000E+00 -0.00000000000E+00 -0.45593999997E+02  0.45594000000E+02  0.51100000000E-03 0. -1.
    9900012    2    1    2    0    0  0.13995630288E+02  0.68370656699E+00 -0.12423076040E+02  0.72461603119E+02  0.70000042761E+02 0.  0.
        -12    1    1    2    0    0 -0.13995630288E+02 -0.68370656699E+00  0.12423076040E+02  0.18726396881E+02  0.00000000000E+00 0.  1.
         11    1    3    3    0    0  0.31764925044E+02 -0.49838081493E+01 -0.15607438301E+02  0.35741305758E+02  0.51100000000E-03 0. -1.
        -11    1    3    3    0    0  0.34643411102E+01  0.61544953783E+01  0.11838919425E+02  0.13785480989E+02  0.51100000000E-03 0.  1.
         12    1    3    3    0    0 -0.21233635866E+02 -0.48698066197E+00 -0.86545571650E+01  0.22934816372E+02  0.00000000000E+00 0. -1.
</event>
<event>
 7    1  0.2655561E-013  0.7246205E+02  0.7816164E-02  0.1226707E+00
        -11   -1    0    0    0    0  0.00000000000E+00  0.00000000000E+00  0.45593999997E+02  0.45594000000E+02  0.51100000000E-03 0.  1.
         11   -1    0    0    0    0 -0.00000000000E+00 -0.00000000000E+00 -0.45593999997E+02  0.45594000000E+02  0.51100000000E-03 0. -1.
    9900012    2    1    2    0    0 -0.47667702238E+01 -0.73680661657E+01 -0.16542386193E+02  0.72462054407E+02  0.70000630644E+02 0.  0.
        -12    1    1    2    0    0  0.47667702238E+01  0.73680661657E+01  0.16542386193E+02  0.18725945593E+02  0.00000000000E+00 0.  1.
         11    1    3    3    0    0 -0.21356107635E+02 -0.31337631096E+01 -0.33046282583E+02  0.39471009581E+02  0.51100000000E-03 0. -1.
        -11    1    3    3    0    0  0.45416749937E+01  0.79957462616E+01  0.12226878603E+02  0.15298866973E+02  0.51100000000E-03 0.  1.
        -12    1    3    3    0    0  0.12047662417E+02 -0.12230049318E+02  0.42770177875E+01  0.17692177853E+02  0.00000000000E+00 0.  1.
</event>
<event>
 7    1  0.2655561E-013  0.7246169E+02  0.7816164E-02  0.1226708E+00
        -11   -1    0    0    0    0  0.00000000000E+00  0.00000000000E+00  0.45593999997E+02  0.45594000000E+02  0.51100000000E-03 0.  1.
         11   -1    0    0    0    0 -0.00000000000E+00 -0.00000000000E+00 -0.45593999997E+02  0.45594000000E+02  0.51100000000E-03 0. -1.
    9900012    2    1    2    0    0 -0.41241329718E+01  0.88360337252E+01 -0.15987203933E+02  0.72461690851E+02  0.70000157047E+02 0.  0.
        -12    1    1    2    0    0  0.41241329718E+01 -0.88360337252E+01  0.15987203933E+02  0.18726309149E+02  0.00000000000E+00 0.  1.
         11    1    3    3    0    0 -0.10550017587E+02  0.81457346509E+01 -0.19104930323E+02  0.23294939944E+02  0.51100000000E-03 0. -1.
        -11    1    3    3    0    0 -0.11800468909E+02 -0.18575696589E+02 -0.22030907931E+01  0.22116988483E+02  0.51100000000E-03 0.  1.
        -12    1    3    3    0    0  0.18226353524E+02  0.19265995663E+02  0.53208171840E+01  0.27049762424E+02  0.00000000000E+00 0.  1.
</event>
<event>
 7    1  0.2655561E-013  0.7246156E+02  0.7816164E-02  0.1226708E+00
        -11   -1    0    0    0    0  0.00000000000E+00  0.00000000000E+00  0.45593999997E+02  0.45594000000E+02  0.51100000000E-03 0.  1.
         11   -1    0    0    0    0 -0.00000000000E+00 -0.00000000000E+00 -0.45593999997E+02  0.45594000000E+02  0.51100000000E-03 0. -1.
    9900012    2    1    2    0    0 -0.18235468555E+02  0.19652702696E+01  0.37795577119E+01  0.72461557274E+02  0.69999983039E+02 0.  0.
        -12    1    1    2    0    0  0.18235468555E+02 -0.19652702696E+01 -0.37795577119E+01  0.18726442726E+02  0.00000000000E+00 0.  1.
         11    1    3    3    0    0 -0.79897833295E+01 -0.67029673202E+01 -0.10218693955E+02  0.14600962809E+02  0.51100000000E-03 0. -1.
        -11    1    3    3    0    0  0.33540270116E+01 -0.22086575841E+02  0.78285522472E+01  0.23671767152E+02  0.51100000000E-03 0.  1.
         12    1    3    3    0    0 -0.13599712237E+02  0.30754813431E+02  0.61696994197E+01  0.34188827313E+02  0.00000000000E+00 0. -1.
</event>
<event>
 7    1  0.2655561E-013  0.7246157E+02  0.7816164E-02  0.1226708E+00
        -11   -1    0    0    0    0  0.00000000000E+00  0.00000000000E+00  0.45593999997E+02  0.45594000000E+02  0.51100000000E-03 0.  1.
         11   -1    0    0    0    0 -0.00000000000E+00 -0.00000000000E+00 -0.45593999997E+02  0.45594000000E+02  0.51100000000E-03 0. -1.
    9900012    2    1    2    0    0 -0.66103379000E+01 -0.11053802587E+02  0.13593968339E+02  0.72461572311E+02  0.70000002627E+02 0.  0.
        -12    1    1    2    0    0  0.66103379000E+01  0.11053802587E+02 -0.13593968339E+02  0.18726427689E+02  0.00000000000E+00 0.  1.
         11    1    3    3    0    0 -0.91300634145E+01  0.23517790515E+01  0.10426215355E+02  0.14056844936E+02  0.51100000000E-03 0. -1.
        -11    1    3    3    0    0  0.12384775346E+02  0.19400963802E+02  0.66820430067E+01  0.23967264254E+02  0.51100000000E-03 0.  1.
         12    1    3    3    0    0 -0.98650498312E+01 -0.32806545441E+02 -0.35142900225E+01  0.34437463122E+02  0.00000000000E+00 0. -1.
</event>
<event>
 7    1  0.2655561E-013  0.7246158E+02  0.7816164E-02  0.1226708E+00
        -11   -1    0    0    0    0  0.00000000000E+00  0.00000000000E+00  0.45593999997E+02  0.45594000000E+02  0.51100000000E-03 0. -1.
         11   -1    0    0    0    0 -0.00000000000E+00 -0.00000000000E+00 -0.45593999997E+02  0.45594000000E+02  0.51100000000E-03 0.  1.
    9900012    2    1    2    0    0 -0.68146196329E+01  0.17420848762E+02 -0.86820078552E+00  0.72461580563E+02  0.70000013377E+02 0.  0.
        -12    1    1    2    0    0  0.68146196329E+01 -0.17420848762E+02  0.86820078552E+00  0.18726419437E+02  0.00000000000E+00 0.  1.
         11    1    3    3    0    0  0.26874244718E+01  0.59783372820E+01  0.12546110549E+02  0.14155128297E+02  0.51100000000E-03 0. -1.
        -11    1    3    3    0    0 -0.92349496210E+01 -0.93380879137E+01  0.16992374933E+02  0.21476149248E+02  0.51100000000E-03 0.  1.
        -12    1    3    3    0    0 -0.26709448370E+00  0.20780599393E+02 -0.30406686268E+02  0.36830303018E+02  0.00000000000E+00 0.  1.
</event>
<event>
 7    1  0.2655561E-013  0.7246156E+02  0.7816164E-02  0.1226708E+00
        -11   -1    0    0    0    0  0.00000000000E+00  0.00000000000E+00  0.45593999997E+02  0.45594000000E+02  0.51100000000E-03 0.  1.
         11   -1    0    0    0    0 -0.00000000000E+00 -0.00000000000E+00 -0.45593999997E+02  0.45594000000E+02  0.51100000000E-03 0. -1.
    9900012    2    1    2    0    0 -0.12573827941E+02 -0.49108158025E+01 -0.12979301791E+02  0.72461560511E+02  0.69999987256E+02 0.  0.
        -12    1    1    2    0    0  0.12573827941E+02  0.49108158025E+01  0.12979301791E+02  0.18726439489E+02  0.00000000000E+00 0.  1.
         11    1    3    3    0    0  0.11862702286E+01 -0.93956783008E+01  0.30578197100E+01  0.99516968115E+01  0.51100000000E-03 0. -1.
        -11    1    3    3    0    0  0.53538060933E+01 -0.24238058868E+02 -0.91297374209E+00  0.24839087316E+02  0.51100000000E-03 0.  1.
         12    1    3    3    0    0 -0.19113904263E+02  0.28722921366E+02 -0.15124147759E+02  0.37670776384E+02  0.00000000000E+00 0. -1.
</event>
<event>
 7    1  0.2655561E-013  0.7246164E+02  0.7816164E-02  0.1226708E+00
        -11   -1    0    0    0    0  0.00000000000E+00  0.00000000000E+00  0.45593999997E+02  0.45594000000E+02  0.51100000000E-03 0. -1.
         11   -1    0    0    0    0 -0.00000000000E+00 -0.00000000000E+00 -0.45593999997E+02  0.45594000000E+02  0.51100000000E-03 0.  1.
    9900012    2    1    2    0    0  0.18348409166E+02 -0.10113928654E+01  0.36041124953E+01  0.72461637264E+02  0.70000087240E+02 0.  0.
        -12    1    1    2    0    0 -0.18348409166E+02  0.10113928654E+01 -0.36041124953E+01  0.18726362736E+02  0.00000000000E+00 0.  1.
         11    1    3    3    0    0 -0.76266326664E+01  0.11853404264E+02  0.82381889675E+01  0.16325944879E+02  0.51100000000E-03 0. -1.
        -11    1    3    3    0    0  0.37556807744E+01  0.77120926531E+01 -0.20301338900E+02  0.22039189472E+02  0.51100000000E-03 0.  1.
        -12    1    3    3    0    0  0.22219361058E+02 -0.20576889782E+02  0.15667262428E+02  0.34096502913E+02  0.00000000000E+00 0.  1.
</event>
<event>
 7    1  0.2655561E-013  0.7246160E+02  0.7816164E-02  0.1226708E+00
        -11   -1    0    0    0    0  0.00000000000E+00  0.00000000000E+00  0.45593999997E+02  0.45594000000E+02  0.51100000000E-03 0. -1.
         11   -1    0    0    0    0 -0.00000000000E+00 -0.00000000000E+00 -0.45593999997E+02  0.45594000000E+02  0.51100000000E-03 0.  1.
    9900012    2    1    2    0    0  0.32938113741E+01 -0.61720190750E+01  0.17370523735E+02  0.72461598646E+02  0.70000036934E+02 0.  0.
        -12    1    1    2    0    0 -0.32938113741E+01  0.61720190750E+01 -0.17370523735E+02  0.18726401354E+02  0.00000000000E+00 0.  1.
         11    1    3    3    0    0 -0.56948363336E+00  0.35616087577E+01 -0.42786789721E+01  0.55961113783E+01  0.51100000000E-03 0. -1.
        -11    1    3    3    0    0 -0.28813317756E+02 -0.21458173437E+01  0.46729354824E+01  0.29268552039E+02  0.51100000000E-03 0.  1.
         12    1    3    3    0    0  0.32676612764E+02 -0.75878104891E+01  0.16976267225E+02  0.37596935229E+02  0.00000000000E+00 0. -1.
</event>
<event>
 7    1  0.2655561E-013  0.7246155E+02  0.7816164E-02  0.1226708E+00
        -11   -1    0    0    0    0  0.00000000000E+00  0.00000000000E+00  0.45593999997E+02  0.45594000000E+02  0.51100000000E-03 0. -1.
         11   -1    0    0    0    0 -0.00000000000E+00 -0.00000000000E+00 -0.45593999997E+02  0.45594000000E+02  0.51100000000E-03 0.  1.
    9900012    2    1    2    0    0 -0.41714770971E+01 -0.30870416260E+01  0.17993023296E+02  0.72461549869E+02  0.69999973392E+02 0.  0.
        -12    1    1    2    0    0  0.41714770971E+01  0.30870416260E+01 -0.17993023296E+02  0.18726450131E+02  0.00000000000E+00 0.  1.
         11    1    3    3    0    0  0.66043026065E+01 -0.19924219966E+02  0.28861060536E+02  0.35686862704E+02  0.51100000000E-03 0. -1.
        -11    1    3    3    0    0  0.87251474173E+01  0.48636662029E+01  0.24670450200E+01  0.10289303075E+02  0.51100000000E-03 0.  1.
        -12    1    3    3    0    0 -0.19500927121E+02  0.11973512137E+02 -0.13335082259E+02  0.26485384089E+02  0.00000000000E+00 0.  1.
</event>
<event>
 7    1  0.2655561E-013  0.7246159E+02  0.7816164E-02  0.1226708E+00
        -11   -1    0    0    0    0  0.00000000000E+00  0.00000000000E+00  0.45593999997E+02  0.45594000000E+02  0.51100000000E-03 0. -1.
         11   -1    0    0    0    0 -0.00000000000E+00 -0.00000000000E+00 -0.45593999997E+02  0.45594000000E+02  0.51100000000E-03 0.  1.
    9900012    2    1    2    0    0 -0.31252623037E+01  0.13847242846E+01  0.18411777914E+02  0.72461593731E+02  0.70000030530E+02 0.  0.
        -12    1    1    2    0    0  0.31252623037E+01 -0.13847242846E+01 -0.18411777914E+02  0.18726406269E+02  0.00000000000E+00 0.  1.
         11    1    3    3    0    0  0.48878699686E+01  0.15057979432E+02  0.60545106506E+01  0.16949664212E+02  0.51100000000E-03 0. -1.
        -11    1    3    3    0    0 -0.24356964729E+02 -0.13038799862E+02 -0.85931500532E+01  0.28932926930E+02  0.51100000000E-03 0.  1.
         12    1    3    3    0    0  0.16343832457E+02 -0.63445528553E+00  0.20950417316E+02  0.26579002589E+02  0.00000000000E+00 0. -1.
</event>
<event>
 7    1  0.2655561E-013  0.7246157E+02  0.7816164E-02  0.1226708E+00
        -11   -1    0    0    0    0  0.00000000000E+00  0.00000000000E+00  0.45593999997E+02  0.45594000000E+02  0.51100000000E-03 0.  1.
         11   -1    0    0    0    0 -0.00000000000E+00 -0.00000000000E+00 -0.45593999997E+02  0.45594000000E+02  0.51100000000E-03 0. -1.
    9900012    2    1    2    0    0  0.10682124009E+02  0.36035194654E+01  0.14952792429E+02  0.72461571421E+02  0.70000001468E+02 0.  0.
        -12    1    1    2    0    0 -0.10682124009E+02 -0.36035194654E+01 -0.14952792429E+02  0.18726428579E+02  0.00000000000E+00 0.  1.
         11    1    3    3    0    0  0.40258056674E+01 -0.13458823914E+02 -0.41931375759E+01  0.14660472551E+02  0.51100000000E-03 0. -1.
        -11    1    3    3    0    0 -0.11120957200E+02  0.23185946858E+01  0.30149092063E+02  0.32218307262E+02  0.51100000000E-03 0.  1.
         12    1    3    3    0    0  0.17777275542E+02  0.14743748693E+02 -0.11003162057E+02  0.25582791609E+02  0.00000000000E+00 0. -1.
</event>
<event>
 7    1  0.2655561E-013  0.7246157E+02  0.7816164E-02  0.1226708E+00
        -11   -1    0    0    0    0  0.00000000000E+00  0.00000000000E+00  0.45593999997E+02  0.45594000000E+02  0.51100000000E-03 0.  1.
         11   -1    0    0    0    0 -0.00000000000E+00 -0.00000000000E+00 -0.45593999997E+02  0.45594000000E+02  0.51100000000E-03 0. -1.
    9900012    2    1    2    0    0 -0.12959527455E+02  0.16974105488E+00 -0.13516692785E+02  0.72461570876E+02  0.70000000758E+02 0.  0.
        -12    1    1    2    0    0  0.12959527455E+02 -0.16974105488E+00  0.13516692785E+02  0.18726429124E+02  0.00000000000E+00 0.  1.
         11    1    3    3    0    0  0.36309868995E+01  0.19201439399E+02  0.24974769524E+01  0.19700678472E+02  0.51100000000E-03 0. -1.
        -11    1    3    3    0    0 -0.15421104809E+02 -0.16695282714E+02  0.11258543646E+02  0.25363314920E+02  0.51100000000E-03 0.  1.
         12    1    3    3    0    0 -0.11694095450E+01 -0.23364156301E+01 -0.27272713384E+02  0.27397577484E+02  0.00000000000E+00 0. -1.
</event>
<event>
 7    1  0.2655561E-013  0.7246159E+02  0.7816164E-02  0.1226708E+00
        -11   -1    0    0    0    0  0.00000000000E+00  0.00000000000E+00  0.45593999997E+02  0.45594000000E+02  0.51100000000E-03 0.  1.
         11   -1    0    0    0    0 -0.00000000000E+00 -0.00000000000E+00 -0.45593999997E+02  0.45594000000E+02  0.51100000000E-03 0. -1.
    9900012    2    1    2    0    0  0.46045903756E+01 -0.32387512549E+01 -0.17860198823E+02  0.72461589126E+02  0.70000024532E+02 0.  0.
        -12    1    1    2    0    0 -0.46045903756E+01  0.32387512549E+01  0.17860198823E+02  0.18726410874E+02  0.00000000000E+00 0.  1.
         11    1    3    3    0    0 -0.14462605609E+02 -0.23385550211E+01 -0.18365500100E+02  0.23493135057E+02  0.51100000000E-03 0. -1.
        -11    1    3    3    0    0 -0.71266563386E+01  0.11615139867E+02  0.11594622997E+02  0.17892344379E+02  0.51100000000E-03 0.  1.
        -12    1    3    3    0    0  0.26193852324E+02 -0.12515336100E+02 -0.11089321720E+02  0.31076109690E+02  0.00000000000E+00 0.  1.
</event>
<event>
 7    1  0.2655561E-013  0.7246156E+02  0.7816164E-02  0.1226708E+00
        -11   -1    0    0    0    0  0.00000000000E+00  0.00000000000E+00  0.45593999997E+02  0.45594000000E+02  0.51100000000E-03 0. -1.
         11   -1    0    0    0    0 -0.00000000000E+00 -0.00000000000E+00 -0.45593999997E+02  0.45594000000E+02  0.51100000000E-03 0.  1.
    9900012    2    1    2    0    0  0.94633908328E+01  0.93373532264E+01  0.13188540823E+02  0.72461560393E+02  0.69999987102E+02 0.  0.
        -12    1    1    2    0    0 -0.94633908328E+01 -0.93373532264E+01 -0.13188540823E+02  0.18726439607E+02  0.00000000000E+00 0.  1.
         11    1    3    3    0    0 -0.79248369443E+01  0.17595043047E+02  0.24828707015E+02  0.31446037473E+02  0.51100000000E-03 0. -1.
        -11    1    3    3    0    0 -0.90656805038E+01 -0.78073503011E+01 -0.77958870289E+01  0.14279955761E+02  0.51100000000E-03 0.  1.
         12    1    3    3    0    0  0.26453908281E+02 -0.45033951938E+00 -0.38442791639E+01  0.26735567159E+02  0.00000000000E+00 0. -1.
</event>
<event>
 7    1  0.2655561E-013  0.7246157E+02  0.7816164E-02  0.1226708E+00
        -11   -1    0    0    0    0  0.00000000000E+00  0.00000000000E+00  0.45593999997E+02  0.45594000000E+02  0.51100000000E-03 0. -1.
         11   -1    0    0    0    0 -0.00000000000E+00 -0.00000000000E+00 -0.45593999997E+02  0.45594000000E+02  0.51100000000E-03 0.  1.
    9900012    2    1    2    0    0 -0.80027590512E+01  0.59901242098E+01  0.15835194179E+02  0.72461571745E+02  0.70000001890E+02 0.  0.
        -12    1    1    2    0    0  0.80027590512E+01 -0.59901242098E+01 -0.15835194179E+02  0.18726428255E+02  0.00000000000E+00 0.  1.
         11    1    3    3    0    0 -0.91999614047E+01  0.78135115521E+01  0.32490578430E+02  0.34660178009E+02  0.51100000000E-03 0. -1.
        -11    1    3    3    0    0 -0.15203020797E+02  0.91234070924E-01 -0.13093563978E+01  0.15259573371E+02  0.51100000000E-03 0.  1.
         12    1    3    3    0    0  0.16400223151E+02 -0.19146214132E+01 -0.15346027853E+02  0.22541820366E+02  0.00000000000E+00 0. -1.
</event>
<event>
 7    1  0.2655561E-013  0.7246156E+02  0.7816164E-02  0.1226708E+00
        -11   -1    0    0    0    0  0.00000000000E+00  0.00000000000E+00  0.45593999997E+02  0.45594000000E+02  0.51100000000E-03 0.  1.
         11   -1    0    0    0    0 -0.00000000000E+00 -0.00000000000E+00 -0.45593999997E+02  0.45594000000E+02  0.51100000000E-03 0. -1.
    9900012    2    1    2    0    0 -0.38105715071E+00  0.67847346236E+01 -0.17449977011E+02  0.72461560773E+02  0.69999987596E+02 0.  0.
        -12    1    1    2    0    0  0.38105715071E+00 -0.67847346236E+01  0.17449977011E+02  0.18726439227E+02  0.00000000000E+00 0.  1.
         11    1    3    3    0    0 -0.10409777705E+02 -0.13126989265E+00 -0.18718447172E+02  0.21418706040E+02  0.51100000000E-03 0.  1.
        -11    1    3    3    0    0 -0.39010628289E+01  0.10829810746E+02 -0.21313351361E+02  0.24223171520E+02  0.51100000000E-03 0. -1.
        -12    1    3    3    0    0  0.13929783383E+02 -0.39138062293E+01  0.22581821523E+02  0.26819683212E+02  0.00000000000E+00 0.  1.
</event>
<event>
 7    1  0.2655561E-013  0.7246154E+02  0.7816164E-02  0.1226708E+00
        -11   -1    0    0    0    0  0.00000000000E+00  0.00000000000E+00  0.45593999997E+02  0.45594000000E+02  0.51100000000E-03 0.  1.
         11   -1    0    0    0    0 -0.00000000000E+00 -0.00000000000E+00 -0.45593999997E+02  0.45594000000E+02  0.51100000000E-03 0. -1.
    9900012    2    1    2    0    0  0.32468483513E+01  0.32804750194E+01 -0.18148736205E+02  0.72461543678E+02  0.69999965327E+02 0.  0.
        -12    1    1    2    0    0 -0.32468483513E+01 -0.32804750194E+01  0.18148736205E+02  0.18726456322E+02  0.00000000000E+00 0.  1.
         11    1    3    3    0    0  0.23346119563E+02 -0.58132417383E+01 -0.18813975846E+02  0.30541787203E+02  0.51100000000E-03 0. -1.
        -11    1    3    3    0    0  0.96029653533E+01  0.10501302458E+01 -0.46015598567E+01  0.10700190208E+02  0.51100000000E-03 0.  1.
        -12    1    3    3    0    0 -0.29702236565E+02  0.80435865119E+01  0.52667994984E+01  0.31219566267E+02  0.00000000000E+00 0.  1.
</event>
<event>
 7    1  0.2655561E-013  0.7246156E+02  0.7816164E-02  0.1226708E+00
        -11   -1    0    0    0    0  0.00000000000E+00  0.00000000000E+00  0.45593999997E+02  0.45594000000E+02  0.51100000000E-03 0.  1.
         11   -1    0    0    0    0 -0.00000000000E+00 -0.00000000000E+00 -0.45593999997E+02  0.45594000000E+02  0.51100000000E-03 0. -1.
    9900012    2    1    2    0    0 -0.33854103922E+00 -0.83800142413E+01 -0.16743368495E+02  0.72461557805E+02  0.69999983730E+02 0.  0.
        -12    1    1    2    0    0  0.33854103922E+00  0.83800142413E+01  0.16743368495E+02  0.18726442195E+02  0.00000000000E+00 0.  1.
         11    1    3    3    0    0 -0.32255093562E+02 -0.52723819451E+01 -0.92200329092E+01  0.33958770284E+02  0.51100000000E-03 0. -1.
        -11    1    3    3    0    0  0.88800495352E+00 -0.89570349737E+00  0.48602201675E+01  0.50212127908E+01  0.51100000000E-03 0.  1.
        -12    1    3    3    0    0  0.31028547570E+02 -0.22119287989E+01 -0.12383555754E+02  0.33481574730E+02  0.00000000000E+00 0.  1.
</event>
<event>
 7    1  0.2655561E-013  0.7246166E+02  0.7816164E-02  0.1226708E+00
        -11   -1    0    0    0    0  0.00000000000E+00  0.00000000000E+00  0.45593999997E+02  0.45594000000E+02  0.51100000000E-03 0. -1.
         11   -1    0    0    0    0 -0.00000000000E+00 -0.00000000000E+00 -0.45593999997E+02  0.45594000000E+02  0.51100000000E-03 0.  1.
    9900012    2    1    2    0    0  0.79415172517E+01  0.73559919447E+01  0.15280625701E+02  0.72461659312E+02  0.70000115962E+02 0.  0.
        -12    1    1    2    0    0 -0.79415172517E+01 -0.73559919447E+01 -0.15280625701E+02  0.18726340688E+02  0.00000000000E+00 0.  1.
         11    1    3    3    0    0  0.16408829563E+02  0.71773054896E+01  0.21139438470E+02  0.27706303630E+02  0.51100000000E-03 0. -1.
        -11    1    3    3    0    0  0.12028001435E+02  0.93076333880E+01  0.91617939939E+01  0.17755092995E+02  0.51100000000E-03 0.  1.
        -12    1    3    3    0    0 -0.20495313746E+02 -0.91289469329E+01 -0.15020606764E+02  0.27000262688E+02  0.00000000000E+00 0.  1.
</event>
<event>
 7    1  0.2655561E-013  0.7246158E+02  0.7816164E-02  0.1226708E+00
        -11   -1    0    0    0    0  0.00000000000E+00  0.00000000000E+00  0.45593999997E+02  0.45594000000E+02  0.51100000000E-03 0. -1.
         11   -1    0    0    0    0 -0.00000000000E+00 -0.00000000000E+00 -0.45593999997E+02  0.45594000000E+02  0.51100000000E-03 0.  1.
    9900012    2    1    2    0    0  0.27474104507E+01 -0.14496125993E+02  0.11532259159E+02  0.72461576575E+02  0.70000008182E+02 0.  0.
        -12    1    1    2    0    0 -0.27474104507E+01  0.14496125993E+02 -0.11532259159E+02  0.18726423425E+02  0.00000000000E+00 0.  1.
         11    1    3    3    0    0 -0.39158441566E+01 -0.13920789724E+01 -0.27061017005E+01  0.49593049915E+01  0.51100000000E-03 0. -1.
        -11    1    3    3    0    0  0.13106857142E+02  0.13504895025E+02 -0.17422372509E+02  0.25645876041E+02  0.51100000000E-03 0.  1.
         12    1    3    3    0    0 -0.64436025348E+01 -0.26608942046E+02  0.31660733368E+02  0.41856395543E+02  0.00000000000E+00 0. -1.
</event>
<event>
 7    1  0.2655561E-013  0.7246157E+02  0.7816164E-02  0.1226708E+00
        -11   -1    0    0    0    0  0.00000000000E+00  0.00000000000E+00  0.45593999997E+02  0.45594000000E+02  0.51100000000E-03 0.  1.
         11   -1    0    0    0    0 -0.00000000000E+00 -0.00000000000E+00 -0.45593999997E+02  0.45594000000E+02  0.51100000000E-03 0. -1.
    9900012    2    1    2    0    0  0.11674850779E+02  0.97372680093E+01  0.10934477383E+02  0.72461566153E+02  0.69999994605E+02 0.  0.
        -12    1    1    2    0    0 -0.11674850779E+02 -0.97372680093E+01 -0.10934477383E+02  0.18726433847E+02  0.00000000000E+00 0.  1.
         11    1    3    3    0    0 -0.99399614378E+00 -0.12308700877E+02  0.34342505182E+01  0.12817418714E+02  0.51100000000E-03 0. -1.
        -11    1    3    3    0    0  0.18147629625E+02 -0.71660784065E+01 -0.13082737217E+02  0.23491427247E+02  0.51100000000E-03 0.  1.
        -12    1    3    3    0    0 -0.54787827026E+01  0.29212047292E+02  0.20582964082E+02  0.36152720192E+02  0.00000000000E+00 0.  1.
</event>
<event>
 7    1  0.2655561E-013  0.7246160E+02  0.7816164E-02  0.1226708E+00
        -11   -1    0    0    0    0  0.00000000000E+00  0.00000000000E+00  0.45593999997E+02  0.45594000000E+02  0.51100000000E-03 0.  1.
         11   -1    0    0    0    0 -0.00000000000E+00 -0.00000000000E+00 -0.45593999997E+02  0.45594000000E+02  0.51100000000E-03 0. -1.
    9900012    2    1    2    0    0  0.15078515342E+02 -0.35696035640E+01 -0.10515440522E+02  0.72461596611E+02  0.70000034283E+02 0.  0.
        -12    1    1    2    0    0 -0.15078515342E+02  0.35696035640E+01  0.10515440522E+02  0.18726403389E+02  0.00000000000E+00 0.  1.
         11    1    3    3    0    0  0.61650763439E+01 -0.48574597773E+01  0.11191356969E+02  0.13669292333E+02  0.51100000000E-03 0. -1.
        -11    1    3    3    0    0  0.24843552221E+02 -0.32200085911E+01  0.66833828696E+01  0.25927555788E+02  0.51100000000E-03 0.  1.
         12    1    3    3    0    0 -0.15930113223E+02  0.45078648044E+01 -0.28390180361E+02  0.32864748490E+02  0.00000000000E+00 0. -1.
</event>
<event>
 7    1  0.2655561E-013  0.7246154E+02  0.7816164E-02  0.1226708E+00
        -11   -1    0    0    0    0  0.00000000000E+00  0.00000000000E+00  0.45593999997E+02  0.45594000000E+02  0.51100000000E-03 0.  1.
         11   -1    0    0    0    0 -0.00000000000E+00 -0.00000000000E+00 -0.45593999997E+02  0.45594000000E+02  0.51100000000E-03 0. -1.
    9900012    2    1    2    0    0 -0.11525271544E+02 -0.13922352856E+02 -0.49006475674E+01  0.72461544388E+02  0.69999966253E+02 0.  0.
        -12    1    1    2    0    0  0.11525271544E+02  0.13922352856E+02  0.49006475674E+01  0.18726455612E+02  0.00000000000E+00 0.  1.
         11    1    3    3    0    0  0.69557875412E+01 -0.21280490552E+02 -0.79849015236E+01  0.23769747812E+02  0.51100000000E-03 0. -1.
        -11    1    3    3    0    0 -0.15739643446E+02 -0.17317564655E+02 -0.14795008451E+01  0.23448312187E+02  0.51100000000E-03 0.  1.
        -12    1    3    3    0    0 -0.27414156391E+01  0.24675702351E+02  0.45637548013E+01  0.25243484390E+02  0.00000000000E+00 0.  1.
</event>
<event>
 7    1  0.2655561E-013  0.7246139E+02  0.7816164E-02  0.1226708E+00
        -11   -1    0    0    0    0  0.00000000000E+00  0.00000000000E+00  0.45593999997E+02  0.45594000000E+02  0.51100000000E-03 0.  1.
         11   -1    0    0    0    0 -0.00000000000E+00 -0.00000000000E+00 -0.45593999997E+02  0.45594000000E+02  0.51100000000E-03 0. -1.
    9900012    2    1    2    0    0  0.15010188602E+02 -0.98491456675E+01 -0.53267583584E+01  0.72461393611E+02  0.69999769837E+02 0.  0.
        -12    1    1    2    0    0 -0.15010188602E+02  0.98491456675E+01  0.53267583584E+01  0.18726606389E+02  0.00000000000E+00 0.  1.
         11    1    3    3    0    0  0.10605427572E+02 -0.29680396331E+02 -0.59615902361E+01  0.32077119241E+02  0.51100000000E-03 0. -1.
        -11    1    3    3    0    0 -0.13513509178E+01  0.11873871168E+02 -0.16655568028E+02  0.20499339317E+02  0.51100000000E-03 0.  1.
        -12    1    3    3    0    0  0.57561119476E+01  0.79573794959E+01  0.17290399906E+02  0.19884935054E+02  0.00000000000E+00 0.  1.
</event>
<event>
 7    1  0.2655561E-013  0.7246158E+02  0.7816164E-02  0.1226708E+00
        -11   -1    0    0    0    0  0.00000000000E+00  0.00000000000E+00  0.45593999997E+02  0.45594000000E+02  0.51100000000E-03 0.  1.
         11   -1    0    0    0    0 -0.00000000000E+00 -0.00000000000E+00 -0.45593999997E+02  0.45594000000E+02  0.51100000000E-03 0. -1.
    9900012    2    1    2    0    0  0.14198249948E+02 -0.12047547380E+02 -0.19862443173E+01  0.72461578400E+02  0.70000010559E+02 0.  0.
        -12    1    1    2    0    0 -0.14198249948E+02  0.12047547380E+02  0.19862443173E+01  0.18726421600E+02  0.00000000000E+00 0.  1.
         11    1    3    3    0    0 -0.19805485998E+01  0.46935455906E+01 -0.57513481568E+01  0.76830950046E+01  0.51100000000E-03 0. -1.
        -11    1    3    3    0    0 -0.10081968848E+02  0.17307751787E+02 -0.55434330500E+01  0.20783022350E+02  0.51100000000E-03 0.  1.
        -12    1    3    3    0    0  0.26260767396E+02 -0.34048844758E+02  0.93085368894E+01  0.43995461045E+02  0.00000000000E+00 0.  1.
</event>
<event>
 7    1  0.2655561E-013  0.7246160E+02  0.7816164E-02  0.1226708E+00
        -11   -1    0    0    0    0  0.00000000000E+00  0.00000000000E+00  0.45593999997E+02  0.45594000000E+02  0.51100000000E-03 0. -1.
         11   -1    0    0    0    0 -0.00000000000E+00 -0.00000000000E+00 -0.45593999997E+02  0.45594000000E+02  0.51100000000E-03 0.  1.
    9900012    2    1    2    0    0 -0.16592671485E+01  0.76194332646E+01  0.17025540131E+02  0.72461602923E+02  0.70000042504E+02 0.  0.
        -12    1    1    2    0    0  0.16592671485E+01 -0.76194332646E+01 -0.17025540131E+02  0.18726397077E+02  0.00000000000E+00 0.  1.
         11    1    3    3    0    0  0.55636348220E+01  0.11713613277E+01  0.23439460783E+01  0.61498132713E+01  0.51100000000E-03 0. -1.
        -11    1    3    3    0    0  0.28031044538E+02 -0.29098469734E+01  0.58323307853E+01  0.28778859428E+02  0.51100000000E-03 0.  1.
         12    1    3    3    0    0 -0.35253946509E+02  0.93579189104E+01  0.88492632674E+01  0.37532930223E+02  0.00000000000E+00 0. -1.
</event>
<event>
 7    1  0.2655561E-013  0.7246162E+02  0.7816164E-02  0.1226708E+00
        -11   -1    0    0    0    0  0.00000000000E+00  0.00000000000E+00  0.45593999997E+02  0.45594000000E+02  0.51100000000E-03 0.  1.
         11   -1    0    0    0    0 -0.00000000000E+00 -0.00000000000E+00 -0.45593999997E+02  0.45594000000E+02  0.51100000000E-03 0. -1.
    9900012    2    1    2    0    0 -0.12088470660E+02 -0.64549459407E+01 -0.12762442860E+02  0.72461617601E+02  0.70000061626E+02 0.  0.
        -12    1    1    2    0    0  0.12088470660E+02  0.64549459407E+01  0.12762442860E+02  0.18726382399E+02  0.00000000000E+00 0.  1.
         11    1    3    3    0    0  0.62854507764E+01 -0.84213487413E+01  0.14715336560E+01  0.10610910312E+02  0.51100000000E-03 0. -1.
        -11    1    3    3    0    0  0.12108532451E+01 -0.14993927563E+01  0.21162008990E+02  0.21249587501E+02  0.51100000000E-03 0.  1.
         12    1    3    3    0    0 -0.19584774681E+02  0.34657955569E+01 -0.35395985506E+02  0.40601119788E+02  0.00000000000E+00 0. -1.
</event>
<event>
 7    1  0.2655561E-013  0.7246157E+02  0.7816164E-02  0.1226708E+00
        -11   -1    0    0    0    0  0.00000000000E+00  0.00000000000E+00  0.45593999997E+02  0.45594000000E+02  0.51100000000E-03 0. -1.
         11   -1    0    0    0    0 -0.00000000000E+00 -0.00000000000E+00 -0.45593999997E+02  0.45594000000E+02  0.51100000000E-03 0.  1.
    9900012    2    1    2    0    0 -0.38530685754E+01  0.74929768179E+00  0.18310424073E+02  0.72461569102E+02  0.69999998447E+02 0.  0.
        -12    1    1    2    0    0  0.38530685754E+01 -0.74929768179E+00 -0.18310424073E+02  0.18726430898E+02  0.00000000000E+00 0.  1.
         11    1    3    3    0    0 -0.23542867318E+02 -0.57549022950E+01  0.28548672397E+02  0.37448794344E+02  0.51100000000E-03 0. -1.
        -11    1    3    3    0    0 -0.40817949615E+01 -0.55015868193E+01 -0.20063590683E+01  0.71382059798E+01  0.51100000000E-03 0.  1.
        -12    1    3    3    0    0  0.23771593704E+02  0.12005786796E+02 -0.82318892560E+01  0.27874568778E+02  0.00000000000E+00 0.  1.
</event>
<event>
 7    1  0.2655561E-013  0.7246150E+02  0.7816164E-02  0.1226708E+00
        -11   -1    0    0    0    0  0.00000000000E+00  0.00000000000E+00  0.45593999997E+02  0.45594000000E+02  0.51100000000E-03 0. -1.
         11   -1    0    0    0    0 -0.00000000000E+00 -0.00000000000E+00 -0.45593999997E+02  0.45594000000E+02  0.51100000000E-03 0.  1.
    9900012    2    1    2    0    0 -0.22990465228E+01  0.17814804092E+02 -0.52942249714E+01  0.72461503323E+02  0.69999912757E+02 0.  0.
        -12    1    1    2    0    0  0.22990465228E+01 -0.17814804092E+02  0.52942249714E+01  0.18726496677E+02  0.00000000000E+00 0.  1.
         11    1    3    3    0    0  0.32487799432E+01 -0.76566771259E+01  0.15898961626E+02  0.17943139546E+02  0.51100000000E-03 0. -1.
        -11    1    3    3    0    0 -0.86759647323E+01  0.13135215973E+02  0.11460806903E+02  0.19471937701E+02  0.51100000000E-03 0.  1.
        -12    1    3    3    0    0  0.31281382663E+01  0.12336265245E+02 -0.32653993500E+02  0.35046426076E+02  0.00000000000E+00 0.  1.
</event>
<event>
 7    1  0.2655561E-013  0.7246158E+02  0.7816164E-02  0.1226708E+00
        -11   -1    0    0    0    0  0.00000000000E+00  0.00000000000E+00  0.45593999997E+02  0.45594000000E+02  0.51100000000E-03 0.  1.
         11   -1    0    0    0    0 -0.00000000000E+00 -0.00000000000E+00 -0.45593999997E+02  0.45594000000E+02  0.51100000000E-03 0. -1.
    9900012    2    1    2    0    0  0.16449770277E+01  0.13849679623E+02 -0.12496366723E+02  0.72461581326E+02  0.70000014371E+02 0.  0.
        -12    1    1    2    0    0 -0.16449770277E+01 -0.13849679623E+02  0.12496366723E+02  0.18726418674E+02  0.00000000000E+00 0.  1.
         11    1    3    3    0    0 -0.59791901568E+00 -0.82866195201E+01 -0.30812480472E+02  0.31912920946E+02  0.51100000000E-03 0. -1.
        -11    1    3    3    0    0 -0.30145556865E+01 -0.53385364977E+01  0.93363124392E+01  0.11169344123E+02  0.51100000000E-03 0.  1.
         12    1    3    3    0    0  0.52574517299E+01  0.27474835640E+02  0.89798013098E+01  0.29379316257E+02  0.00000000000E+00 0. -1.
</event>
<event>
 7    1  0.2655561E-013  0.7246151E+02  0.7816164E-02  0.1226708E+00
        -11   -1    0    0    0    0  0.00000000000E+00  0.00000000000E+00  0.45593999997E+02  0.45594000000E+02  0.51100000000E-03 0. -1.
         11   -1    0    0    0    0 -0.00000000000E+00 -0.00000000000E+00 -0.45593999997E+02  0.45594000000E+02  0.51100000000E-03 0.  1.
    9900012    2    1    2    0    0  0.52677449889E+01  0.16833058007E+02  0.62913081468E+01  0.72461507074E+02  0.69999917643E+02 0.  0.
        -12    1    1    2    0    0 -0.52677449889E+01 -0.16833058007E+02 -0.62913081468E+01  0.18726492926E+02  0.00000000000E+00 0.  1.
         11    1    3    3    0    0  0.10138160265E+02 -0.57225341193E+01  0.75226849582E+01  0.13860753210E+02  0.51100000000E-03 0. -1.
        -11    1    3    3    0    0  0.80962134142E+01 -0.13333154696E+02  0.10352948009E+02  0.18721784599E+02  0.51100000000E-03 0.  1.
         12    1    3    3    0    0 -0.12966628690E+02  0.35888746823E+02 -0.11584324821E+02  0.39878969265E+02  0.00000000000E+00 0. -1.
</event>
<event>
 7    1  0.2655561E-013  0.7246157E+02  0.7816164E-02  0.1226708E+00
        -11   -1    0    0    0    0  0.00000000000E+00  0.00000000000E+00  0.45593999997E+02  0.45594000000E+02  0.51100000000E-03 0.  1.
         11   -1    0    0    0    0 -0.00000000000E+00 -0.00000000000E+00 -0.45593999997E+02  0.45594000000E+02  0.51100000000E-03 0. -1.
    9900012    2    1    2    0    0  0.76051350406E+01 -0.13060255154E+02 -0.11057621598E+02  0.72461565767E+02  0.69999994103E+02 0.  0.
        -12    1    1    2    0    0 -0.76051350406E+01  0.13060255154E+02  0.11057621598E+02  0.18726434233E+02  0.00000000000E+00 0.  1.
         11    1    3    3    0    0 -0.22728412733E+02 -0.61085895674E+00  0.66268488492E+01  0.23682673412E+02  0.51100000000E-03 0. -1.
        -11    1    3    3    0    0 -0.27255581019E+01  0.64877442273E+01 -0.71975835075E+00  0.70737221087E+01  0.51100000000E-03 0.  1.
        -12    1    3    3    0    0  0.33059105875E+02 -0.18937140425E+02 -0.16964712096E+02  0.41705170246E+02  0.00000000000E+00 0.  1.
</event>
<event>
 7    1  0.2655561E-013  0.7246163E+02  0.7816164E-02  0.1226708E+00
        -11   -1    0    0    0    0  0.00000000000E+00  0.00000000000E+00  0.45593999997E+02  0.45594000000E+02  0.51100000000E-03 0.  1.
         11   -1    0    0    0    0 -0.00000000000E+00 -0.00000000000E+00 -0.45593999997E+02  0.45594000000E+02  0.51100000000E-03 0. -1.
    9900012    2    1    2    0    0  0.20535558652E+01 -0.68586821900E+01 -0.17303711687E+02  0.72461626854E+02  0.70000073679E+02 0.  0.
        -12    1    1    2    0    0 -0.20535558652E+01  0.68586821900E+01  0.17303711687E+02  0.18726373146E+02  0.00000000000E+00 0.  1.
         11    1    3    3    0    0 -0.38887343492E+00  0.37386920524E+01 -0.20207313594E+01  0.42675984229E+01  0.51100000000E-03 0. -1.
        -11    1    3    3    0    0  0.12258576393E+02  0.12477567341E+02 -0.33096703670E+02  0.37434665432E+02  0.51100000000E-03 0.  1.
         12    1    3    3    0    0 -0.98161470928E+01 -0.23074941583E+02  0.17813723342E+02  0.30759362999E+02  0.00000000000E+00 0. -1.
</event>
<event>
 7    1  0.2655561E-013  0.7246149E+02  0.7816164E-02  0.1226708E+00
        -11   -1    0    0    0    0  0.00000000000E+00  0.00000000000E+00  0.45593999997E+02  0.45594000000E+02  0.51100000000E-03 0.  1.
         11   -1    0    0    0    0 -0.00000000000E+00 -0.00000000000E+00 -0.45593999997E+02  0.45594000000E+02  0.51100000000E-03 0. -1.
    9900012    2    1    2    0    0 -0.12535737181E+02  0.34013600893E+01 -0.13489558647E+02  0.72461490725E+02  0.69999896346E+02 0.  0.
        -12    1    1    2    0    0  0.12535737181E+02 -0.34013600893E+01  0.13489558647E+02  0.18726509275E+02  0.00000000000E+00 0.  1.
         11    1    3    3    0    0 -0.12020353850E+02 -0.63315698210E+01 -0.16032062759E+02  0.21014393154E+02  0.51100000000E-03 0. -1.
        -11    1    3    3    0    0 -0.25294741408E+01 -0.20298225089E+02  0.55605509379E+01  0.21197544863E+02  0.51100000000E-03 0.  1.
         12    1    3    3    0    0  0.20140908098E+01  0.30031155000E+02 -0.30180468262E+01  0.30249552708E+02  0.00000000000E+00 0. -1.
</event>
<event>
 7    1  0.2655561E-013  0.7246148E+02  0.7816164E-02  0.1226708E+00
        -11   -1    0    0    0    0  0.00000000000E+00  0.00000000000E+00  0.45593999997E+02  0.45594000000E+02  0.51100000000E-03 0. -1.
         11   -1    0    0    0    0 -0.00000000000E+00 -0.00000000000E+00 -0.45593999997E+02  0.45594000000E+02  0.51100000000E-03 0.  1.
    9900012    2    1    2    0    0 -0.66832307501E+01  0.16474294466E+02 -0.58834018590E+01  0.72461484872E+02  0.69999888721E+02 0.  0.
        -12    1    1    2    0    0  0.66832307501E+01 -0.16474294466E+02  0.58834018590E+01  0.18726515128E+02  0.00000000000E+00 0.  1.
         11    1    3    3    0    0  0.84680028230E+01  0.41116082030E+01  0.27451618674E+01  0.98055243493E+01  0.51100000000E-03 0. -1.
        -11    1    3    3    0    0  0.21780614263E+02  0.35754409573E+01  0.44254658204E+01  0.22511412299E+02  0.51100000000E-03 0.  1.
         12    1    3    3    0    0 -0.36931847836E+02  0.87872453060E+01 -0.13054029547E+02  0.40144548223E+02  0.00000000000E+00 0. -1.
</event>
<event>
 7    1  0.2655561E-013  0.7246158E+02  0.7816164E-02  0.1226708E+00
        -11   -1    0    0    0    0  0.00000000000E+00  0.00000000000E+00  0.45593999997E+02  0.45594000000E+02  0.51100000000E-03 0.  1.
         11   -1    0    0    0    0 -0.00000000000E+00 -0.00000000000E+00 -0.45593999997E+02  0.45594000000E+02  0.51100000000E-03 0. -1.
    9900012    2    1    2    0    0 -0.10218526274E+02 -0.13739932792E+02 -0.75812143646E+01  0.72461578997E+02  0.70000011337E+02 0.  0.
        -12    1    1    2    0    0  0.10218526274E+02  0.13739932792E+02  0.75812143646E+01  0.18726421003E+02  0.00000000000E+00 0.  1.
         11    1    3    3    0    0 -0.10259017694E+02 -0.31636191231E+02 -0.21547421189E+02  0.39628113755E+02  0.51100000000E-03 0. -1.
        -11    1    3    3    0    0 -0.52681078622E+01  0.25552016768E+01 -0.51195305334E+01  0.77776351933E+01  0.51100000000E-03 0.  1.
        -12    1    3    3    0    0  0.53085992820E+01  0.15341056762E+02  0.19085737358E+02  0.25055830049E+02  0.00000000000E+00 0.  1.
</event>
<event>
 7    1  0.2655561E-013  0.7246139E+02  0.7816164E-02  0.1226708E+00
        -11   -1    0    0    0    0  0.00000000000E+00  0.00000000000E+00  0.45593999997E+02  0.45594000000E+02  0.51100000000E-03 0.  1.
         11   -1    0    0    0    0 -0.00000000000E+00 -0.00000000000E+00 -0.45593999997E+02  0.45594000000E+02  0.51100000000E-03 0. -1.
    9900012    2    1    2    0    0 -0.89818025728E+01 -0.42038193342E+01 -0.15885246735E+02  0.72461389568E+02  0.69999764570E+02 0.  0.
        -12    1    1    2    0    0  0.89818025728E+01  0.42038193342E+01  0.15885246735E+02  0.18726610432E+02  0.00000000000E+00 0.  1.
         11    1    3    3    0    0 -0.80337107364E+01 -0.67914022123E+01 -0.11549176752E+02  0.15622008069E+02  0.51100000000E-03 0. -1.
        -11    1    3    3    0    0  0.78884250338E+01 -0.20895699627E+02  0.13460783834E+02  0.26077772415E+02  0.51100000000E-03 0.  1.
         12    1    3    3    0    0 -0.88365168702E+01  0.23483282505E+02 -0.17796853817E+02  0.30761609084E+02  0.00000000000E+00 0. -1.
</event>
<event>
 7    1  0.2655561E-013  0.7246157E+02  0.7816164E-02  0.1226708E+00
        -11   -1    0    0    0    0  0.00000000000E+00  0.00000000000E+00  0.45593999997E+02  0.45594000000E+02  0.51100000000E-03 0.  1.
         11   -1    0    0    0    0 -0.00000000000E+00 -0.00000000000E+00 -0.45593999997E+02  0.45594000000E+02  0.51100000000E-03 0. -1.
    9900012    2    1    2    0    0 -0.22936744672E+01  0.11490781055E+02 -0.14607544846E+02  0.72461565256E+02  0.69999993436E+02 0.  0.
        -12    1    1    2    0    0  0.22936744672E+01 -0.11490781055E+02  0.14607544846E+02  0.18726434744E+02  0.00000000000E+00 0.  1.
         11    1    3    3    0    0  0.31802920785E+01  0.70648395438E+01 -0.27753070338E+02  0.28814217479E+02  0.51100000000E-03 0. -1.
        -11    1    3    3    0    0  0.70643436440E+00 -0.18125609902E+02  0.72334046255E+01  0.19528413314E+02  0.51100000000E-03 0.  1.
        -12    1    3    3    0    0 -0.61804009101E+01  0.22551551412E+02  0.59121208662E+01  0.24118934463E+02  0.00000000000E+00 0.  1.
</event>
<event>
 7    1  0.2655561E-013  0.7246155E+02  0.7816164E-02  0.1226708E+00
        -11   -1    0    0    0    0  0.00000000000E+00  0.00000000000E+00  0.45593999997E+02  0.45594000000E+02  0.51100000000E-03 0.  1.
         11   -1    0    0    0    0 -0.00000000000E+00 -0.00000000000E+00 -0.45593999997E+02  0.45594000000E+02  0.51100000000E-03 0. -1.
    9900012    2    1    2    0    0 -0.15966271973E+02 -0.68055682887E+01 -0.70315215594E+01  0.72461550900E+02  0.69999974735E+02 0.  0.
        -12    1    1    2    0    0  0.15966271973E+02  0.68055682887E+01  0.70315215594E+01  0.18726449100E+02  0.00000000000E+00 0.  1.
         11    1    3    3    0    0 -0.64858712311E+01 -0.10663123656E+02 -0.10831893216E+00  0.12481204468E+02  0.51100000000E-03 0. -1.
        -11    1    3    3    0    0 -0.71175140172E+01 -0.22456413887E+02  0.12985367450E+02  0.26899243456E+02  0.51100000000E-03 0.  1.
         12    1    3    3    0    0 -0.23628867251E+01  0.26313969254E+02 -0.19908570077E+02  0.33081102976E+02  0.00000000000E+00 0. -1.
</event>
<event>
 7    1  0.2655561E-013  0.7246156E+02  0.7816164E-02  0.1226708E+00
        -11   -1    0    0    0    0  0.00000000000E+00  0.00000000000E+00  0.45593999997E+02  0.45594000000E+02  0.51100000000E-03 0.  1.
         11   -1    0    0    0    0 -0.00000000000E+00 -0.00000000000E+00 -0.45593999997E+02  0.45594000000E+02  0.51100000000E-03 0. -1.
    9900012    2    1    2    0    0  0.77038213331E+01  0.13099749628E+02 -0.10941990561E+02  0.72461562515E+02  0.69999989866E+02 0.  0.
        -12    1    1    2    0    0 -0.77038213331E+01 -0.13099749628E+02  0.10941990561E+02  0.18726437485E+02  0.00000000000E+00 0.  1.
         11    1    3    3    0    0  0.15626072322E+02  0.17250143229E+02  0.21000965311E+02  0.31349356004E+02  0.51100000000E-03 0. -1.
        -11    1    3    3    0    0 -0.94418599622E+00  0.75055578639E+00  0.39967355135E+01  0.41747713961E+01  0.51100000000E-03 0.  1.
        -12    1    3    3    0    0 -0.69780649924E+01 -0.49009493877E+01 -0.35939691386E+02  0.36937435115E+02  0.00000000000E+00 0.  1.
</event>
<event>
 7    1  0.2655561E-013  0.7246158E+02  0.7816164E-02  0.1226708E+00
        -11   -1    0    0    0    0  0.00000000000E+00  0.00000000000E+00  0.45593999997E+02  0.45594000000E+02  0.51100000000E-03 0.  1.
         11   -1    0    0    0    0 -0.00000000000E+00 -0.00000000000E+00 -0.45593999997E+02  0.45594000000E+02  0.51100000000E-03 0. -1.
    9900012    2    1    2    0    0  0.74286784152E+01 -0.16370385733E+02 -0.52444407906E+01  0.72461576123E+02  0.70000007592E+02 0.  0.
        -12    1    1    2    0    0 -0.74286784152E+01  0.16370385733E+02  0.52444407906E+01  0.18726423877E+02  0.00000000000E+00 0.  1.
         11    1    3    3    0    0  0.94632170162E+01  0.49285515236E+01 -0.21770896451E+02  0.24244896967E+02  0.51100000000E-03 0. -1.
        -11    1    3    3    0    0  0.47420038977E+01 -0.50822657555E+01 -0.12489121858E+02  0.14293151899E+02  0.51100000000E-03 0.  1.
        -12    1    3    3    0    0 -0.67765424986E+01 -0.16216671501E+02  0.29015577518E+02  0.33923527256E+02  0.00000000000E+00 0.  1.
</event>
<event>
 7    1  0.2655561E-013  0.7246166E+02  0.7816164E-02  0.1226708E+00
        -11   -1    0    0    0    0  0.00000000000E+00  0.00000000000E+00  0.45593999997E+02  0.45594000000E+02  0.51100000000E-03 0. -1.
         11   -1    0    0    0    0 -0.00000000000E+00 -0.00000000000E+00 -0.45593999997E+02  0.45594000000E+02  0.51100000000E-03 0.  1.
    9900012    2    1    2    0    0 -0.81201588936E+01 -0.11830967112E+02  0.12031911731E+02  0.72461663915E+02  0.70000121958E+02 0.  0.
        -12    1    1    2    0    0  0.81201588936E+01  0.11830967112E+02 -0.12031911731E+02  0.18726336085E+02  0.00000000000E+00 0.  1.
         11    1    3    3    0    0  0.62236633472E-01  0.28693096417E+01  0.56840868828E+01  0.63675470293E+01  0.51100000000E-03 0. -1.
        -11    1    3    3    0    0  0.82574603847E+01 -0.93615766945E+01 -0.26322842165E+02  0.29132744294E+02  0.51100000000E-03 0.  1.
         12    1    3    3    0    0 -0.16439855912E+02 -0.53387000595E+01  0.32670667013E+02  0.36961372591E+02  0.00000000000E+00 0. -1.
</event>
<event>
 7    1  0.2655561E-013  0.7246158E+02  0.7816164E-02  0.1226708E+00
        -11   -1    0    0    0    0  0.00000000000E+00  0.00000000000E+00  0.45593999997E+02  0.45594000000E+02  0.51100000000E-03 0.  1.
         11   -1    0    0    0    0 -0.00000000000E+00 -0.00000000000E+00 -0.45593999997E+02  0.45594000000E+02  0.51100000000E-03 0. -1.
    9900012    2    1    2    0    0  0.22523700767E+01 -0.74280914048E+01 -0.17041984483E+02  0.72461576209E+02  0.70000007705E+02 0.  0.
        -12    1    1    2    0    0 -0.22523700767E+01  0.74280914048E+01  0.17041984483E+02  0.18726423791E+02  0.00000000000E+00 0.  1.
         11    1    3    3    0    0 -0.12510066546E+02  0.35645253937E+01 -0.10457746198E+02  0.16690478186E+02  0.51100000000E-03 0. -1.
        -11    1    3    3    0    0 -0.10522974756E+02  0.61893084741E+01 -0.19156671678E+02  0.22716042947E+02  0.51100000000E-03 0.  1.
        -12    1    3    3    0    0  0.25285411379E+02 -0.17181925273E+02  0.12572433393E+02  0.33055055077E+02  0.00000000000E+00 0.  1.
</event>
<event>
 7    1  0.2655561E-013  0.7246161E+02  0.7816164E-02  0.1226708E+00
        -11   -1    0    0    0    0  0.00000000000E+00  0.00000000000E+00  0.45593999997E+02  0.45594000000E+02  0.51100000000E-03 0.  1.
         11   -1    0    0    0    0 -0.00000000000E+00 -0.00000000000E+00 -0.45593999997E+02  0.45594000000E+02  0.51100000000E-03 0. -1.
    9900012    2    1    2    0    0 -0.48694115914E+01  0.18020265930E+02 -0.14955646446E+01  0.72461605071E+02  0.70000045303E+02 0.  0.
        -12    1    1    2    0    0  0.48694115914E+01 -0.18020265930E+02  0.14955646446E+01  0.18726394929E+02  0.00000000000E+00 0.  1.
         11    1    3    3    0    0  0.10750401134E+01  0.11377207672E+02 -0.78638610260E+01  0.13872161914E+02  0.51100000000E-03 0. -1.
        -11    1    3    3    0    0 -0.22404561439E+01  0.30467918972E+02 -0.65371828883E+01  0.31241774767E+02  0.51100000000E-03 0.  1.
        -12    1    3    3    0    0 -0.37039955609E+01 -0.23824860714E+02  0.12905479270E+02  0.27347668390E+02  0.00000000000E+00 0.  1.
</event>
<event>
 7    1  0.2655561E-013  0.7246157E+02  0.7816164E-02  0.1226708E+00
        -11   -1    0    0    0    0  0.00000000000E+00  0.00000000000E+00  0.45593999997E+02  0.45594000000E+02  0.51100000000E-03 0.  1.
         11   -1    0    0    0    0 -0.00000000000E+00 -0.00000000000E+00 -0.45593999997E+02  0.45594000000E+02  0.51100000000E-03 0. -1.
    9900012    2    1    2    0    0 -0.15486540683E+02  0.40581687323E+00 -0.10520528327E+02  0.72461570924E+02  0.70000000820E+02 0.  0.
        -12    1    1    2    0    0  0.15486540683E+02 -0.40581687323E+00  0.10520528327E+02  0.18726429076E+02  0.00000000000E+00 0.  1.
         11    1    3    3    0    0 -0.63221970316E+01  0.23388558707E+02 -0.21770547495E+02  0.32572251874E+02  0.51100000000E-03 0. -1.
        -11    1    3    3    0    0 -0.62678190590E+01  0.56616233870E+01  0.66145681769E+01  0.10728096176E+02  0.51100000000E-03 0.  1.
        -12    1    3    3    0    0 -0.28965245925E+01 -0.28644365220E+02  0.46354509903E+01  0.29161222873E+02  0.00000000000E+00 0.  1.
</event>
<event>
 7    1  0.2655561E-013  0.7246159E+02  0.7816164E-02  0.1226708E+00
        -11   -1    0    0    0    0  0.00000000000E+00  0.00000000000E+00  0.45593999997E+02  0.45594000000E+02  0.51100000000E-03 0.  1.
         11   -1    0    0    0    0 -0.00000000000E+00 -0.00000000000E+00 -0.45593999997E+02  0.45594000000E+02  0.51100000000E-03 0. -1.
    9900012    2    1    2    0    0 -0.17998668570E+01  0.12604188608E+02 -0.13732207427E+02  0.72461585181E+02  0.70000019392E+02 0.  0.
        -12    1    1    2    0    0  0.17998668570E+01 -0.12604188608E+02  0.13732207427E+02  0.18726414819E+02  0.00000000000E+00 0.  1.
         11    1    3    3    0    0  0.11023455069E+02  0.10895571339E+02 -0.19407879242E+02  0.24837387411E+02  0.51100000000E-03 0. -1.
        -11    1    3    3    0    0 -0.10000610489E+02  0.61205859846E+01  0.24994499327E+02  0.27607947765E+02  0.51100000000E-03 0.  1.
         12    1    3    3    0    0 -0.28227114379E+01 -0.44119687163E+01 -0.19318827512E+02  0.20016250005E+02  0.00000000000E+00 0. -1.
</event>
<event>
 7    1  0.2655561E-013  0.7246158E+02  0.7816164E-02  0.1226708E+00
        -11   -1    0    0    0    0  0.00000000000E+00  0.00000000000E+00  0.45593999997E+02  0.45594000000E+02  0.51100000000E-03 0.  1.
         11   -1    0    0    0    0 -0.00000000000E+00 -0.00000000000E+00 -0.45593999997E+02  0.45594000000E+02  0.51100000000E-03 0. -1.
    9900012    2    1    2    0    0  0.40699639449E+01  0.22803077756E+01 -0.18136002390E+02  0.72461575014E+02  0.70000006149E+02 0.  0.
        -12    1    1    2    0    0 -0.40699639449E+01 -0.22803077756E+01  0.18136002390E+02  0.18726424986E+02  0.00000000000E+00 0.  1.
         11    1    3    3    0    0 -0.79300725916E+01  0.17277774827E+02 -0.36614695546E+02  0.41255829703E+02  0.51100000000E-03 0. -1.
        -11    1    3    3    0    0  0.75526929376E+01 -0.19697517291E+00  0.60813778282E+00  0.75796966729E+01  0.51100000000E-03 0.  1.
        -12    1    3    3    0    0  0.44473435989E+01 -0.14800491879E+02  0.17870555373E+02  0.23626048639E+02  0.00000000000E+00 0.  1.
</event>
<event>
 7    1  0.2655561E-013  0.7246159E+02  0.7816164E-02  0.1226708E+00
        -11   -1    0    0    0    0  0.00000000000E+00  0.00000000000E+00  0.45593999997E+02  0.45594000000E+02  0.51100000000E-03 0.  1.
         11   -1    0    0    0    0 -0.00000000000E+00 -0.00000000000E+00 -0.45593999997E+02  0.45594000000E+02  0.51100000000E-03 0. -1.
    9900012    2    1    2    0    0 -0.16465743690E+01 -0.18095137168E+02 -0.45313676822E+01  0.72461588455E+02  0.70000023658E+02 0.  0.
        -12    1    1    2    0    0  0.16465743690E+01  0.18095137168E+02  0.45313676822E+01  0.18726411545E+02  0.00000000000E+00 0.  1.
         11    1    3    3    0    0  0.58947168229E+01 -0.31702826235E+01  0.67267924200E+01  0.94893685173E+01  0.51100000000E-03 0. -1.
        -11    1    3    3    0    0  0.93115528795E+01 -0.10679079628E+01  0.21590940393E+02  0.23537505215E+02  0.51100000000E-03 0.  1.
         12    1    3    3    0    0 -0.16852844071E+02 -0.13856946582E+02 -0.32849100495E+02  0.39434714722E+02  0.00000000000E+00 0. -1.
</event>
<event>
 7    1  0.2655561E-013  0.7246157E+02  0.7816164E-02  0.1226708E+00
        -11   -1    0    0    0    0  0.00000000000E+00  0.00000000000E+00  0.45593999997E+02  0.45594000000E+02  0.51100000000E-03 0. -1.
         11   -1    0    0    0    0 -0.00000000000E+00 -0.00000000000E+00 -0.45593999997E+02  0.45594000000E+02  0.51100000000E-03 0.  1.
    9900012    2    1    2    0    0  0.16459919279E+02 -0.87638754638E+01 -0.17159752425E+01  0.72461574104E+02  0.70000004962E+02 0.  0.
        -12    1    1    2    0    0 -0.16459919279E+02  0.87638754638E+01  0.17159752425E+01  0.18726425896E+02  0.00000000000E+00 0.  1.
         11    1    3    3    0    0  0.50258515762E+01 -0.12748248934E+02  0.19556402838E+01  0.13842021678E+02  0.51100000000E-03 0. -1.
        -11    1    3    3    0    0  0.12925119392E+02 -0.24237673062E+02 -0.10730185059E+02  0.29490004721E+02  0.51100000000E-03 0.  1.
         12    1    3    3    0    0 -0.14910516895E+01  0.28222046532E+02  0.70585695328E+01  0.29129547705E+02  0.00000000000E+00 0. -1.
</event>
<event>
 7    1  0.2655561E-013  0.7246160E+02  0.7816164E-02  0.1226708E+00
        -11   -1    0    0    0    0  0.00000000000E+00  0.00000000000E+00  0.45593999997E+02  0.45594000000E+02  0.51100000000E-03 0.  1.
         11   -1    0    0    0    0 -0.00000000000E+00 -0.00000000000E+00 -0.45593999997E+02  0.45594000000E+02  0.51100000000E-03 0. -1.
    9900012    2    1    2    0    0  0.93462283006E+01  0.15957765728E+02 -0.29454771730E+01  0.72461598684E+02  0.70000036982E+02 0.  0.
        -12    1    1    2    0    0 -0.93462283006E+01 -0.15957765728E+02  0.29454771730E+01  0.18726401316E+02  0.00000000000E+00 0.  1.
         11    1    3    3    0    0 -0.72399236488E+01 -0.27487913409E+01 -0.85845530417E+01  0.11561440198E+02  0.51100000000E-03 0. -1.
        -11    1    3    3    0    0  0.57236221009E+01 -0.19797195020E+02  0.11084315400E+01  0.20637766384E+02  0.51100000000E-03 0.  1.
        -12    1    3    3    0    0  0.10862529849E+02  0.38503752089E+02  0.45306443287E+01  0.40262392101E+02  0.00000000000E+00 0.  1.
</event>
<event>
 7    1  0.2655561E-013  0.7246151E+02  0.7816164E-02  0.1226708E+00
        -11   -1    0    0    0    0  0.00000000000E+00  0.00000000000E+00  0.45593999997E+02  0.45594000000E+02  0.51100000000E-03 0.  1.
         11   -1    0    0    0    0 -0.00000000000E+00 -0.00000000000E+00 -0.45593999997E+02  0.45594000000E+02  0.51100000000E-03 0. -1.
    9900012    2    1    2    0    0 -0.64203818676E+01 -0.89268598451E+01 -0.15158207027E+02  0.72461511534E+02  0.69999923453E+02 0.  0.
        -12    1    1    2    0    0  0.64203818676E+01  0.89268598451E+01  0.15158207027E+02  0.18726488466E+02  0.00000000000E+00 0.  1.
         11    1    3    3    0    0  0.21879556030E+02 -0.18558244171E+02 -0.27072276107E+02  0.39446565537E+02  0.51100000000E-03 0. -1.
        -11    1    3    3    0    0 -0.18922053807E+01  0.28789380528E+01  0.57335858572E+00  0.34924870570E+01  0.51100000000E-03 0.  1.
        -12    1    3    3    0    0 -0.26407732517E+02  0.67524462732E+01  0.11340710494E+02  0.29522458940E+02  0.00000000000E+00 0.  1.
</event>
<event>
 7    1  0.2655561E-013  0.7246161E+02  0.7816164E-02  0.1226708E+00
        -11   -1    0    0    0    0  0.00000000000E+00  0.00000000000E+00  0.45593999997E+02  0.45594000000E+02  0.51100000000E-03 0.  1.
         11   -1    0    0    0    0 -0.00000000000E+00 -0.00000000000E+00 -0.45593999997E+02  0.45594000000E+02  0.51100000000E-03 0. -1.
    9900012    2    1    2    0    0  0.14640273359E+02 -0.62004416777E+01 -0.98941614513E+01  0.72461614555E+02  0.70000057657E+02 0.  0.
        -12    1    1    2    0    0 -0.14640273359E+02  0.62004416777E+01  0.98941614513E+01  0.18726385445E+02  0.00000000000E+00 0.  1.
         11    1    3    3    0    0 -0.65095602578E+01  0.53899182650E+01  0.70089268858E+01  0.10979556002E+02  0.51100000000E-03 0. -1.
        -11    1    3    3    0    0 -0.62536512163E+01  0.50449533559E+01  0.14518327444E+02  0.16593418573E+02  0.51100000000E-03 0.  1.
         12    1    3    3    0    0  0.27403484833E+02 -0.16635313299E+02 -0.31421415781E+02  0.44888639980E+02  0.00000000000E+00 0. -1.
</event>
<event>
 7    1  0.2655561E-013  0.7246153E+02  0.7816164E-02  0.1226708E+00
        -11   -1    0    0    0    0  0.00000000000E+00  0.00000000000E+00  0.45593999997E+02  0.45594000000E+02  0.51100000000E-03 0.  1.
         11   -1    0    0    0    0 -0.00000000000E+00 -0.00000000000E+00 -0.45593999997E+02  0.45594000000E+02  0.51100000000E-03 0. -1.
    9900012    2    1    2    0    0  0.80927828541E+01 -0.11404818105E+02  0.12454629421E+02  0.72461526644E+02  0.69999943138E+02 0.  0.
        -12    1    1    2    0    0 -0.80927828541E+01  0.11404818105E+02 -0.12454629421E+02  0.18726473356E+02  0.00000000000E+00 0.  1.
         11    1    3    3    0    0  0.30829078566E+02 -0.63532360406E+01  0.29079405038E+01  0.31610944492E+02  0.51100000000E-03 0. -1.
        -11    1    3    3    0    0 -0.68612132337E+01  0.13385121611E+02  0.62921213506E+01  0.16304248493E+02  0.51100000000E-03 0.  1.
        -12    1    3    3    0    0 -0.15875082478E+02 -0.18436703675E+02  0.32545675666E+01  0.24546333660E+02  0.00000000000E+00 0.  1.
</event>
<event>
 7    1  0.2655561E-013  0.7246157E+02  0.7816164E-02  0.1226708E+00
        -11   -1    0    0    0    0  0.00000000000E+00  0.00000000000E+00  0.45593999997E+02  0.45594000000E+02  0.51100000000E-03 0.  1.
         11   -1    0    0    0    0 -0.00000000000E+00 -0.00000000000E+00 -0.45593999997E+02  0.45594000000E+02  0.51100000000E-03 0. -1.
    9900012    2    1    2    0    0  0.72836183567E-01  0.17132516673E+02 -0.75598112725E+01  0.72461570038E+02  0.69999999666E+02 0.  0.
        -12    1    1    2    0    0 -0.72836183567E-01 -0.17132516673E+02  0.75598112725E+01  0.18726429962E+02  0.00000000000E+00 0.  1.
         11    1    3    3    0    0 -0.55014833439E+01 -0.13999396763E+01  0.11518368889E+02  0.12841299475E+02  0.51100000000E-03 0. -1.
        -11    1    3    3    0    0  0.16805905599E+02 -0.22133474132E+01  0.11878835895E+02  0.20698891571E+02  0.51100000000E-03 0.  1.
         12    1    3    3    0    0 -0.11231586072E+02  0.20745803762E+02 -0.30957016057E+02  0.38921378991E+02  0.00000000000E+00 0. -1.
</event>
<event>
 7    1  0.2655561E-013  0.7246151E+02  0.7816164E-02  0.1226708E+00
        -11   -1    0    0    0    0  0.00000000000E+00  0.00000000000E+00  0.45593999997E+02  0.45594000000E+02  0.51100000000E-03 0.  1.
         11   -1    0    0    0    0 -0.00000000000E+00 -0.00000000000E+00 -0.45593999997E+02  0.45594000000E+02  0.51100000000E-03 0. -1.
    9900012    2    1    2    0    0 -0.14874766876E+02  0.36049310787E+01 -0.10790149474E+02  0.72461506912E+02  0.69999917433E+02 0.  0.
        -12    1    1    2    0    0  0.14874766876E+02 -0.36049310787E+01  0.10790149474E+02  0.18726493088E+02  0.00000000000E+00 0.  1.
         11    1    3    3    0    0 -0.12297994911E+02 -0.15714364222E+02 -0.13171779208E+02  0.23909782297E+02  0.51100000000E-03 0. -1.
        -11    1    3    3    0    0 -0.21739372403E+02  0.17688357006E+02  0.67547936417E+01  0.28828900836E+02  0.51100000000E-03 0.  1.
        -12    1    3    3    0    0  0.19162600437E+02  0.16309382951E+01 -0.43731639076E+01  0.19722823779E+02  0.00000000000E+00 0.  1.
</event>
<event>
 7    1  0.3980034E-013  0.7246159E+02  0.7816164E-02  0.1226708E+00
        -11   -1    0    0    0    0  0.00000000000E+00  0.00000000000E+00  0.45593999997E+02  0.45594000000E+02  0.51100000000E-03 0. -1.
         11   -1    0    0    0    0 -0.00000000000E+00 -0.00000000000E+00 -0.45593999997E+02  0.45594000000E+02  0.51100000000E-03 0.  1.
    9900012    2    1    2    0    0  0.11523608662E+02  0.76784317357E+01  0.12606614804E+02  0.72461585305E+02  0.70000019554E+02 0.  0.
        -12    1    1    2    0    0 -0.11523608662E+02 -0.76784317357E+01 -0.12606614804E+02  0.18726414695E+02  0.00000000000E+00 0.  1.
         11    1    3    3    0    0  0.81237313132E+01 -0.25090987058E+01  0.25760968145E+02  0.27127809842E+02  0.51100000000E-03 0. -1.
        -11    1    3    3    0    0  0.18110588902E+02  0.28674408740E+01  0.67359551049E+01  0.19534296480E+02  0.51100000000E-03 0.  1.
        -12    1    3    3    0    0 -0.14710711553E+02  0.73200895675E+01 -0.19890308446E+02  0.25799478983E+02  0.00000000000E+00 0.  1.
</event>
<event>
 7    1  0.2655561E-013  0.7246160E+02  0.7816164E-02  0.1226708E+00
        -11   -1    0    0    0    0  0.00000000000E+00  0.00000000000E+00  0.45593999997E+02  0.45594000000E+02  0.51100000000E-03 0. -1.
         11   -1    0    0    0    0 -0.00000000000E+00 -0.00000000000E+00 -0.45593999997E+02  0.45594000000E+02  0.51100000000E-03 0.  1.
    9900012    2    1    2    0    0  0.22701612544E+01  0.12464304630E+02  0.13790058079E+02  0.72461595544E+02  0.70000032892E+02 0.  0.
        -12    1    1    2    0    0 -0.22701612544E+01 -0.12464304630E+02 -0.13790058079E+02  0.18726404456E+02  0.00000000000E+00 0.  1.
         11    1    3    3    0    0 -0.14348507293E+02  0.36537633886E+02  0.59115679798E+01  0.39696662174E+02  0.51100000000E-03 0. -1.
        -11    1    3    3    0    0  0.12511081581E+02 -0.89681341758E+01  0.74596996444E+01  0.17105604695E+02  0.51100000000E-03 0.  1.
        -12    1    3    3    0    0  0.41075869663E+01 -0.15105195080E+02  0.41879045470E+00  0.15659328675E+02  0.00000000000E+00 0.  1.
</event>
<event>
 7    1  0.2655561E-013  0.7246158E+02  0.7816164E-02  0.1226708E+00
        -11   -1    0    0    0    0  0.00000000000E+00  0.00000000000E+00  0.45593999997E+02  0.45594000000E+02  0.51100000000E-03 0.  1.
         11   -1    0    0    0    0 -0.00000000000E+00 -0.00000000000E+00 -0.45593999997E+02  0.45594000000E+02  0.51100000000E-03 0. -1.
    9900012    2    1    2    0    0  0.66640964163E+01  0.15066622864E+02 -0.89031079329E+01  0.72461584528E+02  0.70000018542E+02 0.  0.
        -12    1    1    2    0    0 -0.66640964163E+01 -0.15066622864E+02  0.89031079329E+01  0.18726415472E+02  0.00000000000E+00 0.  1.
         11    1    3    3    0    0 -0.12350111795E+02 -0.48049178016E+01 -0.71153290181E+01  0.15041289962E+02  0.51100000000E-03 0. -1.
        -11    1    3    3    0    0  0.21039003942E+01  0.15190637642E+01  0.22469100827E+02  0.22618453613E+02  0.51100000000E-03 0.  1.
         12    1    3    3    0    0  0.16910307817E+02  0.18352476902E+02 -0.24256879742E+02  0.34801840953E+02  0.00000000000E+00 0. -1.
</event>
<event>
 7    1  0.2655561E-013  0.7246165E+02  0.7816164E-02  0.1226708E+00
        -11   -1    0    0    0    0  0.00000000000E+00  0.00000000000E+00  0.45593999997E+02  0.45594000000E+02  0.51100000000E-03 0.  1.
         11   -1    0    0    0    0 -0.00000000000E+00 -0.00000000000E+00 -0.45593999997E+02  0.45594000000E+02  0.51100000000E-03 0. -1.
    9900012    2    1    2    0    0  0.18627560895E+02  0.64310095095E+00  0.18100963414E+01  0.72461653520E+02  0.70000108417E+02 0.  0.
        -12    1    1    2    0    0 -0.18627560895E+02 -0.64310095095E+00 -0.18100963414E+01  0.18726346480E+02  0.00000000000E+00 0.  1.
         11    1    3    3    0    0 -0.16881301882E+02  0.75406087898E+01 -0.85135467082E+01  0.20354842470E+02  0.51100000000E-03 0. -1.
        -11    1    3    3    0    0 -0.53988162006E+01 -0.35951595418E+00  0.91898921864E+01  0.10664454358E+02  0.51100000000E-03 0.  1.
         12    1    3    3    0    0  0.40907678978E+02 -0.65379918847E+01  0.11337508633E+01  0.41442356693E+02  0.00000000000E+00 0. -1.
</event>
<event>
 7    1  0.2655561E-013  0.7246156E+02  0.7816164E-02  0.1226708E+00
        -11   -1    0    0    0    0  0.00000000000E+00  0.00000000000E+00  0.45593999997E+02  0.45594000000E+02  0.51100000000E-03 0. -1.
         11   -1    0    0    0    0 -0.00000000000E+00 -0.00000000000E+00 -0.45593999997E+02  0.45594000000E+02  0.51100000000E-03 0.  1.
    9900012    2    1    2    0    0  0.11773157959E+02 -0.68269113556E+01  0.12863341400E+02  0.72461560965E+02  0.69999987846E+02 0.  0.
        -12    1    1    2    0    0 -0.11773157959E+02  0.68269113556E+01 -0.12863341400E+02  0.18726439035E+02  0.00000000000E+00 0.  1.
         11    1    3    3    0    0  0.24625156619E+02 -0.15448945494E+02 -0.61144581539E+01  0.29706141691E+02  0.51100000000E-03 0. -1.
        -11    1    3    3    0    0 -0.10351098141E+02 -0.13761329505E+01 -0.84642850540E+01  0.13441841256E+02  0.51100000000E-03 0.  1.
        -12    1    3    3    0    0 -0.25009005199E+01  0.99981670889E+01  0.27442084608E+02  0.29313578017E+02  0.00000000000E+00 0.  1.
</event>
<event>
 7    1  0.2655561E-013  0.7246162E+02  0.7816164E-02  0.1226708E+00
        -11   -1    0    0    0    0  0.00000000000E+00  0.00000000000E+00  0.45593999997E+02  0.45594000000E+02  0.51100000000E-03 0.  1.
         11   -1    0    0    0    0 -0.00000000000E+00 -0.00000000000E+00 -0.45593999997E+02  0.45594000000E+02  0.51100000000E-03 0. -1.
    9900012    2    1    2    0    0  0.25258187855E+01 -0.16833691279E+02 -0.78054096484E+01  0.72461619079E+02  0.70000063551E+02 0.  0.
        -12    1    1    2    0    0 -0.25258187855E+01  0.16833691279E+02  0.78054096484E+01  0.18726380921E+02  0.00000000000E+00 0.  1.
         11    1    3    3    0    0  0.26035883208E+02 -0.26067652641E+02 -0.56833453635E+01  0.37278548033E+02  0.51100000000E-03 0. -1.
        -11    1    3    3    0    0 -0.10475056040E+02 -0.36053741509E+01 -0.10314224706E+02  0.15136338836E+02  0.51100000000E-03 0.  1.
        -12    1    3    3    0    0 -0.13035008383E+02  0.12839335513E+02  0.81921604211E+01  0.20046732210E+02  0.00000000000E+00 0.  1.
</event>
<event>
 7    1  0.2655561E-013  0.7246159E+02  0.7816164E-02  0.1226708E+00
        -11   -1    0    0    0    0  0.00000000000E+00  0.00000000000E+00  0.45593999997E+02  0.45594000000E+02  0.51100000000E-03 0. -1.
         11   -1    0    0    0    0 -0.00000000000E+00 -0.00000000000E+00 -0.45593999997E+02  0.45594000000E+02  0.51100000000E-03 0.  1.
    9900012    2    1    2    0    0  0.39717041727E+01  0.18050126568E+02  0.30160881817E+01  0.72461593749E+02  0.70000030555E+02 0.  0.
        -12    1    1    2    0    0 -0.39717041727E+01 -0.18050126568E+02 -0.30160881817E+01  0.18726406251E+02  0.00000000000E+00 0.  1.
         11    1    3    3    0    0  0.51515947526E+01 -0.66888765014E+01  0.11724039305E+02  0.14447598251E+02  0.51100000000E-03 0. -1.
        -11    1    3    3    0    0 -0.10785550875E+02 -0.11903704175E+02 -0.11911795705E+02  0.19997928842E+02  0.51100000000E-03 0.  1.
        -12    1    3    3    0    0  0.96056602955E+01  0.36642707244E+02  0.32038445825E+01  0.38016066656E+02  0.00000000000E+00 0.  1.
</event>
<event>
 7    1  0.2655561E-013  0.7246157E+02  0.7816164E-02  0.1226708E+00
        -11   -1    0    0    0    0  0.00000000000E+00  0.00000000000E+00  0.45593999997E+02  0.45594000000E+02  0.51100000000E-03 0.  1.
         11   -1    0    0    0    0 -0.00000000000E+00 -0.00000000000E+00 -0.45593999997E+02  0.45594000000E+02  0.51100000000E-03 0. -1.
    9900012    2    1    2    0    0 -0.48693526314E+01  0.94063079238E+01 -0.15443119277E+02  0.72461570634E+02  0.70000000442E+02 0.  0.
        -12    1    1    2    0    0  0.48693526314E+01 -0.94063079238E+01  0.15443119277E+02  0.18726429366E+02  0.00000000000E+00 0.  1.
         11    1    3    3    0    0 -0.78534636848E+01 -0.10099699087E+02 -0.92123467204E+01  0.15765409790E+02  0.51100000000E-03 0. -1.
        -11    1    3    3    0    0  0.25216589642E+02  0.15690784385E+02  0.70424501951E+01  0.30523322440E+02  0.51100000000E-03 0.  1.
         12    1    3    3    0    0 -0.22232478589E+02  0.38152226259E+01 -0.13273222751E+02  0.26172838403E+02  0.00000000000E+00 0. -1.
</event>
<event>
 7    1  0.2655561E-013  0.7246149E+02  0.7816164E-02  0.1226708E+00
        -11   -1    0    0    0    0  0.00000000000E+00  0.00000000000E+00  0.45593999997E+02  0.45594000000E+02  0.51100000000E-03 0.  1.
         11   -1    0    0    0    0 -0.00000000000E+00 -0.00000000000E+00 -0.45593999997E+02  0.45594000000E+02  0.51100000000E-03 0. -1.
    9900012    2    1    2    0    0 -0.13975330297E+02 -0.41031724487E+01  0.11770145724E+02  0.72461489075E+02  0.69999894197E+02 0.  0.
        -12    1    1    2    0    0  0.13975330297E+02  0.41031724487E+01 -0.11770145724E+02  0.18726510925E+02  0.00000000000E+00 0.  1.
         11    1    3    3    0    0 -0.84756717183E+01  0.15114554797E+02 -0.40804276415E+01  0.17802715180E+02  0.51100000000E-03 0. -1.
        -11    1    3    3    0    0  0.15304417319E+02  0.87722674104E+00 -0.78884050757E+01  0.17240117491E+02  0.51100000000E-03 0.  1.
        -12    1    3    3    0    0 -0.20804075898E+02 -0.20094953986E+02  0.23738978441E+02  0.37418656404E+02  0.00000000000E+00 0.  1.
</event>
<event>
 7    1  0.2655561E-013  0.7246155E+02  0.7816164E-02  0.1226708E+00
        -11   -1    0    0    0    0  0.00000000000E+00  0.00000000000E+00  0.45593999997E+02  0.45594000000E+02  0.51100000000E-03 0.  1.
         11   -1    0    0    0    0 -0.00000000000E+00 -0.00000000000E+00 -0.45593999997E+02  0.45594000000E+02  0.51100000000E-03 0. -1.
    9900012    2    1    2    0    0 -0.16776229339E+02  0.71314772835E+01 -0.42871854562E+01  0.72461553508E+02  0.69999978133E+02 0.  0.
        -12    1    1    2    0    0  0.16776229339E+02 -0.71314772835E+01  0.42871854562E+01  0.18726446492E+02  0.00000000000E+00 0.  1.
         11    1    3    3    0    0 -0.34836672385E+01  0.41072710179E+01  0.15598425513E+01  0.56070243168E+01  0.51100000000E-03 0. -1.
        -11    1    3    3    0    0 -0.26333603692E+02  0.10702795786E+02  0.21471994527E+02  0.35623799212E+02  0.51100000000E-03 0.  1.
         12    1    3    3    0    0  0.13041041592E+02 -0.76785895206E+01 -0.27319022534E+02  0.31230729979E+02  0.00000000000E+00 0. -1.
</event>
<event>
 7    1  0.2655561E-013  0.7246162E+02  0.7816164E-02  0.1226708E+00
        -11   -1    0    0    0    0  0.00000000000E+00  0.00000000000E+00  0.45593999997E+02  0.45594000000E+02  0.51100000000E-03 0. -1.
         11   -1    0    0    0    0 -0.00000000000E+00 -0.00000000000E+00 -0.45593999997E+02  0.45594000000E+02  0.51100000000E-03 0.  1.
    9900012    2    1    2    0    0  0.16145161175E+02  0.91639694916E+01 -0.24561618252E+01  0.72461620288E+02  0.70000065126E+02 0.  0.
        -12    1    1    2    0    0 -0.16145161175E+02 -0.91639694916E+01  0.24561618252E+01  0.18726379712E+02  0.00000000000E+00 0.  1.
         11    1    3    3    0    0  0.62059199058E+01 -0.17456548792E+02  0.44780351110E+01  0.19060360341E+02  0.51100000000E-03 0. -1.
        -11    1    3    3    0    0 -0.13335405797E+02 -0.26672441317E+01  0.44312090382E+01  0.14303246234E+02  0.51100000000E-03 0.  1.
        -12    1    3    3    0    0  0.23274647066E+02  0.29287762415E+02 -0.11365405974E+02  0.39098013713E+02  0.00000000000E+00 0.  1.
</event>
<event>
 7    1  0.2655561E-013  0.7246158E+02  0.7816164E-02  0.1226708E+00
        -11   -1    0    0    0    0  0.00000000000E+00  0.00000000000E+00  0.45593999997E+02  0.45594000000E+02  0.51100000000E-03 0.  1.
         11   -1    0    0    0    0 -0.00000000000E+00 -0.00000000000E+00 -0.45593999997E+02  0.45594000000E+02  0.51100000000E-03 0. -1.
    9900012    2    1    2    0    0  0.14557722293E+02  0.41517433237E+01 -0.11023363632E+02  0.72461580247E+02  0.70000012966E+02 0.  0.
        -12    1    1    2    0    0 -0.14557722293E+02 -0.41517433237E+01  0.11023363632E+02  0.18726419753E+02  0.00000000000E+00 0.  1.
         11    1    3    3    0    0 -0.12018219902E+02 -0.10687180488E+02  0.56857393813E+00  0.16092753430E+02  0.51100000000E-03 0. -1.
        -11    1    3    3    0    0 -0.10700547993E+02  0.14369623866E+01 -0.12790656906E+02  0.16738204582E+02  0.51100000000E-03 0.  1.
        -12    1    3    3    0    0  0.37276490188E+02  0.13401961425E+02  0.11987193361E+01  0.39630622236E+02  0.00000000000E+00 0.  1.
</event>
<event>
 7    1  0.2655561E-013  0.7246167E+02  0.7816164E-02  0.1226708E+00
        -11   -1    0    0    0    0  0.00000000000E+00  0.00000000000E+00  0.45593999997E+02  0.45594000000E+02  0.51100000000E-03 0.  1.
         11   -1    0    0    0    0 -0.00000000000E+00 -0.00000000000E+00 -0.45593999997E+02  0.45594000000E+02  0.51100000000E-03 0. -1.
    9900012    2    1    2    0    0  0.90129695665E+01  0.22862188306E+01 -0.16254692682E+02  0.72461669576E+02  0.70000129333E+02 0.  0.
        -12    1    1    2    0    0 -0.90129695665E+01 -0.22862188306E+01  0.16254692682E+02  0.18726330424E+02  0.00000000000E+00 0.  1.
         11    1    3    3    0    0 -0.99821241209E+01 -0.65959319081E+01  0.10405066966E+02  0.15856056840E+02  0.51100000000E-03 0. -1.
        -11    1    3    3    0    0  0.43920238609E+01 -0.14950681636E+02  0.29805583534E+01  0.15864945110E+02  0.51100000000E-03 0.  1.
         12    1    3    3    0    0  0.14603069827E+02  0.23832832375E+02 -0.29640318001E+02  0.40740667626E+02  0.00000000000E+00 0. -1.
</event>
<event>
 7    1  0.2655561E-013  0.7246155E+02  0.7816164E-02  0.1226708E+00
        -11   -1    0    0    0    0  0.00000000000E+00  0.00000000000E+00  0.45593999997E+02  0.45594000000E+02  0.51100000000E-03 0. -1.
         11   -1    0    0    0    0 -0.00000000000E+00 -0.00000000000E+00 -0.45593999997E+02  0.45594000000E+02  0.51100000000E-03 0.  1.
    9900012    2    1    2    0    0 -0.34710001185E+01  0.18401067739E+02  0.18118520716E+00  0.72461549086E+02  0.69999972372E+02 0.  0.
        -12    1    1    2    0    0  0.34710001185E+01 -0.18401067739E+02 -0.18118520716E+00  0.18726450914E+02  0.00000000000E+00 0.  1.
         11    1    3    3    0    0 -0.18847250616E+01 -0.10248779776E+02 -0.85861850662E+01  0.13502305348E+02  0.51100000000E-03 0. -1.
        -11    1    3    3    0    0 -0.12523980723E+01  0.15280254863E+02 -0.21188527371E+02  0.26153553909E+02  0.51100000000E-03 0.  1.
         12    1    3    3    0    0 -0.33387698456E+00  0.13369592651E+02  0.29955897645E+02  0.32805689830E+02  0.00000000000E+00 0. -1.
</event>
<event>
 7    1  0.2655561E-013  0.7246155E+02  0.7816164E-02  0.1226708E+00
        -11   -1    0    0    0    0  0.00000000000E+00  0.00000000000E+00  0.45593999997E+02  0.45594000000E+02  0.51100000000E-03 0.  1.
         11   -1    0    0    0    0 -0.00000000000E+00 -0.00000000000E+00 -0.45593999997E+02  0.45594000000E+02  0.51100000000E-03 0. -1.
    9900012    2    1    2    0    0 -0.15356490744E+00  0.85501923812E+01 -0.16659849933E+02  0.72461548875E+02  0.69999972097E+02 0.  0.
        -12    1    1    2    0    0  0.15356490744E+00 -0.85501923812E+01  0.16659849933E+02  0.18726451125E+02  0.00000000000E+00 0.  1.
         11    1    3    3    0    0 -0.12422254761E+02  0.33360050433E+02  0.40299405243E+01  0.35825211781E+02  0.51100000000E-03 0. -1.
        -11    1    3    3    0    0 -0.16782831887E+01 -0.80771537328E+01 -0.38539039479E+01  0.91054721341E+01  0.51100000000E-03 0.  1.
        -12    1    3    3    0    0  0.13946973042E+02 -0.16732704319E+02 -0.16835886510E+02  0.27530864960E+02  0.00000000000E+00 0.  1.
</event>
<event>
 7    1  0.2655561E-013  0.7246163E+02  0.7816164E-02  0.1226708E+00
        -11   -1    0    0    0    0  0.00000000000E+00  0.00000000000E+00  0.45593999997E+02  0.45594000000E+02  0.51100000000E-03 0. -1.
         11   -1    0    0    0    0 -0.00000000000E+00 -0.00000000000E+00 -0.45593999997E+02  0.45594000000E+02  0.51100000000E-03 0.  1.
    9900012    2    1    2    0    0  0.83693655484E+01 -0.19094285450E+01  0.16642856882E+02  0.72461631365E+02  0.70000079556E+02 0.  0.
        -12    1    1    2    0    0 -0.83693655484E+01  0.19094285450E+01 -0.16642856882E+02  0.18726368635E+02  0.00000000000E+00 0.  1.
         11    1    3    3    0    0  0.14010320481E+02 -0.13893354353E+02  0.27272517576E+02  0.33661618951E+02  0.51100000000E-03 0. -1.
        -11    1    3    3    0    0  0.33904533209E+01 -0.91121340414E+01  0.50996895283E+01  0.10978751935E+02  0.51100000000E-03 0.  1.
        -12    1    3    3    0    0 -0.90314082539E+01  0.21096059850E+02 -0.15729350223E+02  0.27821260479E+02  0.00000000000E+00 0.  1.
</event>
<event>
 7    1  0.2655561E-013  0.7246156E+02  0.7816164E-02  0.1226708E+00
        -11   -1    0    0    0    0  0.00000000000E+00  0.00000000000E+00  0.45593999997E+02  0.45594000000E+02  0.51100000000E-03 0.  1.
         11   -1    0    0    0    0 -0.00000000000E+00 -0.00000000000E+00 -0.45593999997E+02  0.45594000000E+02  0.51100000000E-03 0. -1.
    9900012    2    1    2    0    0 -0.10011766524E+02 -0.19410960865E+01 -0.15705931491E+02  0.72461558615E+02  0.69999984785E+02 0.  0.
        -12    1    1    2    0    0  0.10011766524E+02  0.19410960865E+01  0.15705931491E+02  0.18726441385E+02  0.00000000000E+00 0.  1.
         11    1    3    3    0    0  0.21197487233E+01  0.10519720771E+02 -0.33447454691E+02  0.35126771632E+02  0.51100000000E-03 0. -1.
        -11    1    3    3    0    0 -0.20931126159E+00  0.85397247234E+01  0.30626112373E+01  0.90747064640E+01  0.51100000000E-03 0.  1.
        -12    1    3    3    0    0 -0.11922203985E+02 -0.21000541581E+02  0.14678911962E+02  0.28260080519E+02  0.00000000000E+00 0.  1.
</event>
<event>
 7    1  0.2655561E-013  0.7246162E+02  0.7816164E-02  0.1226708E+00
        -11   -1    0    0    0    0  0.00000000000E+00  0.00000000000E+00  0.45593999997E+02  0.45594000000E+02  0.51100000000E-03 0.  1.
         11   -1    0    0    0    0 -0.00000000000E+00 -0.00000000000E+00 -0.45593999997E+02  0.45594000000E+02  0.51100000000E-03 0. -1.
    9900012    2    1    2    0    0 -0.60141382578E+01 -0.99064205844E+01 -0.14709533388E+02  0.72461617534E+02  0.70000061538E+02 0.  0.
        -12    1    1    2    0    0  0.60141382578E+01  0.99064205844E+01  0.14709533388E+02  0.18726382466E+02  0.00000000000E+00 0.  1.
         11    1    3    3    0    0  0.45403456199E+01  0.54468698201E+01 -0.64340395430E+01  0.95749670646E+01  0.51100000000E-03 0. -1.
        -11    1    3    3    0    0  0.41230428266E+01 -0.46658914718E+01  0.24575571827E+02  0.25352095697E+02  0.51100000000E-03 0.  1.
         12    1    3    3    0    0 -0.14677526704E+02 -0.10687398933E+02 -0.32851065672E+02  0.37534554772E+02  0.00000000000E+00 0. -1.
</event>
<event>
 7    1  0.2655561E-013  0.7246154E+02  0.7816164E-02  0.1226708E+00
        -11   -1    0    0    0    0  0.00000000000E+00  0.00000000000E+00  0.45593999997E+02  0.45594000000E+02  0.51100000000E-03 0.  1.
         11   -1    0    0    0    0 -0.00000000000E+00 -0.00000000000E+00 -0.45593999997E+02  0.45594000000E+02  0.51100000000E-03 0. -1.
    9900012    2    1    2    0    0  0.44475730400E+01 -0.13309786250E+02 -0.12399557211E+02  0.72461539176E+02  0.69999959463E+02 0.  0.
        -12    1    1    2    0    0 -0.44475730400E+01  0.13309786250E+02  0.12399557211E+02  0.18726460824E+02  0.00000000000E+00 0.  1.
         11    1    3    3    0    0 -0.88845415143E+01  0.66895760672E+01 -0.17995954362E+02  0.21155138372E+02  0.51100000000E-03 0. -1.
        -11    1    3    3    0    0  0.60068972251E+01  0.14464705037E+02  0.21499705194E+00  0.15663867021E+02  0.51100000000E-03 0.  1.
        -12    1    3    3    0    0  0.73252173292E+01 -0.34464067353E+02  0.53814000983E+01  0.35642533783E+02  0.00000000000E+00 0.  1.
</event>
<event>
 7    1  0.2655561E-013  0.7246159E+02  0.7816164E-02  0.1226708E+00
        -11   -1    0    0    0    0  0.00000000000E+00  0.00000000000E+00  0.45593999997E+02  0.45594000000E+02  0.51100000000E-03 0.  1.
         11   -1    0    0    0    0 -0.00000000000E+00 -0.00000000000E+00 -0.45593999997E+02  0.45594000000E+02  0.51100000000E-03 0. -1.
    9900012    2    1    2    0    0  0.10684186828E+02  0.11476867989E+02 -0.10237588792E+02  0.72461586267E+02  0.70000020808E+02 0.  0.
        -12    1    1    2    0    0 -0.10684186828E+02 -0.11476867989E+02  0.10237588792E+02  0.18726413733E+02  0.00000000000E+00 0.  1.
         11    1    3    3    0    0 -0.24208002531E+02 -0.10363446658E+02 -0.12873488356E+02  0.29311347902E+02  0.51100000000E-03 0. -1.
        -11    1    3    3    0    0  0.13101793046E+02  0.14498180404E+02 -0.21638817346E+01  0.19660534084E+02  0.51100000000E-03 0.  1.
        -12    1    3    3    0    0  0.21790396313E+02  0.73421342425E+01  0.47997812984E+01  0.23489704281E+02  0.00000000000E+00 0.  1.
</event>
<event>
 7    1  0.2655561E-013  0.7246159E+02  0.7816164E-02  0.1226708E+00
        -11   -1    0    0    0    0  0.00000000000E+00  0.00000000000E+00  0.45593999997E+02  0.45594000000E+02  0.51100000000E-03 0.  1.
         11   -1    0    0    0    0 -0.00000000000E+00 -0.00000000000E+00 -0.45593999997E+02  0.45594000000E+02  0.51100000000E-03 0. -1.
    9900012    2    1    2    0    0  0.49885666416E+00  0.46142139741E+01 -0.18142174904E+02  0.72461592475E+02  0.70000028894E+02 0.  0.
        -12    1    1    2    0    0 -0.49885666416E+00 -0.46142139741E+01  0.18142174904E+02  0.18726407525E+02  0.00000000000E+00 0.  1.
         11    1    3    3    0    0 -0.45998587696E+01 -0.80774346349E+01 -0.86598814698E+01  0.12704219705E+02  0.51100000000E-03 0. -1.
        -11    1    3    3    0    0 -0.21278963752E+02  0.12098172964E+02  0.10525430829E+02  0.26644789018E+02  0.51100000000E-03 0.  1.
         12    1    3    3    0    0  0.26377679185E+02  0.59347564450E+00 -0.20007724263E+02  0.33112583752E+02  0.00000000000E+00 0. -1.
</event>
<event>
 7    1  0.2655561E-013  0.7246159E+02  0.7816164E-02  0.1226708E+00
        -11   -1    0    0    0    0  0.00000000000E+00  0.00000000000E+00  0.45593999997E+02  0.45594000000E+02  0.51100000000E-03 0.  1.
         11   -1    0    0    0    0 -0.00000000000E+00 -0.00000000000E+00 -0.45593999997E+02  0.45594000000E+02  0.51100000000E-03 0. -1.
    9900012    2    1    2    0    0  0.78522054799E+01  0.16989669421E+02  0.61021027140E+00  0.72461592055E+02  0.70000028348E+02 0.  0.
        -12    1    1    2    0    0 -0.78522054799E+01 -0.16989669421E+02 -0.61021027140E+00  0.18726407945E+02  0.00000000000E+00 0.  1.
         11    1    3    3    0    0  0.16297446664E+02  0.21893044888E+02 -0.37454834289E+01  0.27548880714E+02  0.51100000000E-03 0. -1.
        -11    1    3    3    0    0 -0.15928540890E+02  0.13641131989E+02 -0.67594193077E+01  0.22033806899E+02  0.51100000000E-03 0.  1.
        -12    1    3    3    0    0  0.74832997062E+01 -0.18544507456E+02  0.11115113008E+02  0.22878904442E+02  0.00000000000E+00 0.  1.
</event>
<event>
 7    1  0.2655561E-013  0.7246158E+02  0.7816164E-02  0.1226708E+00
        -11   -1    0    0    0    0  0.00000000000E+00  0.00000000000E+00  0.45593999997E+02  0.45594000000E+02  0.51100000000E-03 0.  1.
         11   -1    0    0    0    0 -0.00000000000E+00 -0.00000000000E+00 -0.45593999997E+02  0.45594000000E+02  0.51100000000E-03 0. -1.
    9900012    2    1    2    0    0  0.58011140093E+01  0.44406429226E+01 -0.17242582248E+02  0.72461578134E+02  0.70000010212E+02 0.  0.
        -12    1    1    2    0    0 -0.58011140093E+01 -0.44406429226E+01  0.17242582248E+02  0.18726421866E+02  0.00000000000E+00 0.  1.
         11    1    3    3    0    0  0.16127924505E+02 -0.94690412818E+01 -0.58950263443E+01  0.19609284217E+02  0.51100000000E-03 0.  1.
        -11    1    3    3    0    0  0.84243253437E+01 -0.37148389189E+01 -0.22872171201E+02  0.24655739725E+02  0.51100000000E-03 0. -1.
        -12    1    3    3    0    0 -0.18751135839E+02  0.17624523123E+02  0.11524615297E+02  0.28196554192E+02  0.00000000000E+00 0.  1.
</event>
<event>
 7    1  0.2655561E-013  0.7246131E+02  0.7816164E-02  0.1226709E+00
        -11   -1    0    0    0    0  0.00000000000E+00  0.00000000000E+00  0.45593999997E+02  0.45594000000E+02  0.51100000000E-03 0. -1.
         11   -1    0    0    0    0 -0.00000000000E+00 -0.00000000000E+00 -0.45593999997E+02  0.45594000000E+02  0.51100000000E-03 0.  1.
    9900012    2    1    2    0    0 -0.29987747417E+01 -0.74216461053E+01  0.16929716696E+02  0.72461313473E+02  0.69999665442E+02 0.  0.
        -12    1    1    2    0    0  0.29987747417E+01  0.74216461053E+01 -0.16929716696E+02  0.18726686527E+02  0.00000000000E+00 0.  1.
         11    1    3    3    0    0 -0.45440254845E+01 -0.29888307851E+01  0.68860421189E+00  0.54822853891E+01  0.51100000000E-03 0. -1.
        -11    1    3    3    0    0 -0.19229926401E+02 -0.13729552514E+02 -0.15251259966E+02  0.28122795246E+02  0.51100000000E-03 0.  1.
         12    1    3    3    0    0  0.20775177144E+02  0.92967371940E+01  0.31492372450E+02  0.38856232838E+02  0.00000000000E+00 0. -1.
</event>
<event>
 7    1  0.2655561E-013  0.7246148E+02  0.7816164E-02  0.1226708E+00
        -11   -1    0    0    0    0  0.00000000000E+00  0.00000000000E+00  0.45593999997E+02  0.45594000000E+02  0.51100000000E-03 0. -1.
         11   -1    0    0    0    0 -0.00000000000E+00 -0.00000000000E+00 -0.45593999997E+02  0.45594000000E+02  0.51100000000E-03 0.  1.
    9900012    2    1    2    0    0 -0.52900368761E+01  0.95292320853E+01  0.15227998473E+02  0.72461476249E+02  0.69999877489E+02 0.  0.
        -12    1    1    2    0    0  0.52900368761E+01 -0.95292320853E+01 -0.15227998473E+02  0.18726523751E+02  0.00000000000E+00 0.  1.
         11    1    3    3    0    0 -0.93318669665E+01  0.86012225895E+01  0.30268484631E+01  0.13047090978E+02  0.51100000000E-03 0. -1.
        -11    1    3    3    0    0 -0.15450179370E+02  0.23243989829E+02  0.16405702210E+01  0.27958586815E+02  0.51100000000E-03 0.  1.
         12    1    3    3    0    0  0.19492009461E+02 -0.22315980333E+02  0.10560579789E+02  0.31455798457E+02  0.00000000000E+00 0. -1.
</event>
<event>
 7    1  0.2655561E-013  0.7246159E+02  0.7816164E-02  0.1226708E+00
        -11   -1    0    0    0    0  0.00000000000E+00  0.00000000000E+00  0.45593999997E+02  0.45594000000E+02  0.51100000000E-03 0.  1.
         11   -1    0    0    0    0 -0.00000000000E+00 -0.00000000000E+00 -0.45593999997E+02  0.45594000000E+02  0.51100000000E-03 0. -1.
    9900012    2    1    2    0    0 -0.94084191427E+01 -0.13049094625E+01  0.16138688978E+02  0.72461590270E+02  0.70000026021E+02 0.  0.
        -12    1    1    2    0    0  0.94084191427E+01  0.13049094625E+01 -0.16138688978E+02  0.18726409730E+02  0.00000000000E+00 0.  1.
         11    1    3    3    0    0  0.68626240784E+01 -0.89910362049E+01 -0.78476576244E+01  0.13766628917E+02  0.51100000000E-03 0. -1.
        -11    1    3    3    0    0 -0.31004653783E+02 -0.61325455124E+01  0.71628293169E+01  0.32406832532E+02  0.51100000000E-03 0.  1.
         12    1    3    3    0    0  0.14733610562E+02  0.13818672255E+02  0.16823517285E+02  0.26288128821E+02  0.00000000000E+00 0. -1.
</event>
<event>
 7    1  0.2655561E-013  0.7246157E+02  0.7816164E-02  0.1226708E+00
        -11   -1    0    0    0    0  0.00000000000E+00  0.00000000000E+00  0.45593999997E+02  0.45594000000E+02  0.51100000000E-03 0. -1.
         11   -1    0    0    0    0 -0.00000000000E+00 -0.00000000000E+00 -0.45593999997E+02  0.45594000000E+02  0.51100000000E-03 0.  1.
    9900012    2    1    2    0    0 -0.71059361968E+01  0.17185917716E+02 -0.21975004772E+01  0.72461572009E+02  0.70000002234E+02 0.  0.
        -12    1    1    2    0    0  0.71059361968E+01 -0.17185917716E+02  0.21975004772E+01  0.18726427991E+02  0.00000000000E+00 0.  1.
         11    1    3    3    0    0  0.43556540449E+01 -0.37057317925E+01  0.48909490203E+01  0.75249952065E+01  0.51100000000E-03 0. -1.
        -11    1    3    3    0    0  0.20503420263E+02  0.83590674775E+01 -0.18397767719E+02  0.28787881285E+02  0.51100000000E-03 0.  1.
         12    1    3    3    0    0 -0.31965010505E+02  0.12532582031E+02  0.11309318222E+02  0.36148695517E+02  0.00000000000E+00 0. -1.
</event>
<event>
 7    1  0.2655561E-013  0.7246157E+02  0.7816164E-02  0.1226708E+00
        -11   -1    0    0    0    0  0.00000000000E+00  0.00000000000E+00  0.45593999997E+02  0.45594000000E+02  0.51100000000E-03 0.  1.
         11   -1    0    0    0    0 -0.00000000000E+00 -0.00000000000E+00 -0.45593999997E+02  0.45594000000E+02  0.51100000000E-03 0. -1.
    9900012    2    1    2    0    0 -0.37694431443E+01  0.62308735647E+01 -0.17252439888E+02  0.72461570306E+02  0.70000000015E+02 0.  0.
        -12    1    1    2    0    0  0.37694431443E+01 -0.62308735647E+01  0.17252439888E+02  0.18726429694E+02  0.00000000000E+00 0.  1.
         11    1    3    3    0    0  0.10885224766E+02  0.12831765271E+02 -0.18564566631E+02  0.25055647120E+02  0.51100000000E-03 0. -1.
        -11    1    3    3    0    0  0.44287813809E+01  0.13417036112E+02  0.11205251241E+02  0.18032986946E+02  0.51100000000E-03 0.  1.
        -12    1    3    3    0    0 -0.19083449291E+02 -0.20017927818E+02 -0.98931244983E+01  0.29372936240E+02  0.00000000000E+00 0.  1.
</event>
<event>
 7    1  0.2655561E-013  0.7246159E+02  0.7816164E-02  0.1226708E+00
        -11   -1    0    0    0    0  0.00000000000E+00  0.00000000000E+00  0.45593999997E+02  0.45594000000E+02  0.51100000000E-03 0. -1.
         11   -1    0    0    0    0 -0.00000000000E+00 -0.00000000000E+00 -0.45593999997E+02  0.45594000000E+02  0.51100000000E-03 0.  1.
    9900012    2    1    2    0    0  0.93433209853E+01  0.11906598916E+02  0.11027859327E+02  0.72461590144E+02  0.70000025858E+02 0.  0.
        -12    1    1    2    0    0 -0.93433209853E+01 -0.11906598916E+02 -0.11027859327E+02  0.18726409856E+02  0.00000000000E+00 0.  1.
         11    1    3    3    0    0 -0.50337364302E+01  0.64366775288E+01  0.41266711629E+01  0.91541649104E+01  0.51100000000E-03 0. -1.
        -11    1    3    3    0    0 -0.98547186358E+01  0.18265128889E+02 -0.17091336606E+02  0.26885762031E+02  0.51100000000E-03 0.  1.
         12    1    3    3    0    0  0.24231776051E+02 -0.12795207502E+02  0.23992524770E+02  0.36421663203E+02  0.00000000000E+00 0. -1.
</event>
<event>
 7    1  0.2655561E-013  0.7246133E+02  0.7816164E-02  0.1226709E+00
        -11   -1    0    0    0    0  0.00000000000E+00  0.00000000000E+00  0.45593999997E+02  0.45594000000E+02  0.51100000000E-03 0.  1.
         11   -1    0    0    0    0 -0.00000000000E+00 -0.00000000000E+00 -0.45593999997E+02  0.45594000000E+02  0.51100000000E-03 0. -1.
    9900012    2    1    2    0    0  0.27594736593E+00  0.10416128425E+02 -0.15560081704E+02  0.72461333960E+02  0.69999692130E+02 0.  0.
        -12    1    1    2    0    0 -0.27594736593E+00 -0.10416128425E+02  0.15560081704E+02  0.18726666040E+02  0.00000000000E+00 0.  1.
         11    1    3    3    0    0  0.22004995237E+02 -0.86458184790E+01 -0.29849364229E+02  0.38078268576E+02  0.51100000000E-03 0. -1.
        -11    1    3    3    0    0 -0.59015463943E+00  0.55875055742E+01  0.53793359699E+01  0.77785446440E+01  0.51100000000E-03 0.  1.
        -12    1    3    3    0    0 -0.21138893232E+02  0.13474441330E+02  0.89099465552E+01  0.26604520741E+02  0.00000000000E+00 0.  1.
</event>
<event>
 7    1  0.2655561E-013  0.7246157E+02  0.7816164E-02  0.1226708E+00
        -11   -1    0    0    0    0  0.00000000000E+00  0.00000000000E+00  0.45593999997E+02  0.45594000000E+02  0.51100000000E-03 0. -1.
         11   -1    0    0    0    0 -0.00000000000E+00 -0.00000000000E+00 -0.45593999997E+02  0.45594000000E+02  0.51100000000E-03 0.  1.
    9900012    2    1    2    0    0  0.16512647026E+02  0.62698280651E+01  0.62210137925E+01  0.72461567654E+02  0.69999996561E+02 0.  0.
        -12    1    1    2    0    0 -0.16512647026E+02 -0.62698280651E+01 -0.62210137925E+01  0.18726432346E+02  0.00000000000E+00 0.  1.
         11    1    3    3    0    0  0.30633805249E+02 -0.12045767907E+02 -0.30342599265E+01  0.33056576986E+02  0.51100000000E-03 0. -1.
        -11    1    3    3    0    0  0.71197687644E+01 -0.30012809245E+01  0.44919986375E+01  0.89373847666E+01  0.51100000000E-03 0.  1.
        -12    1    3    3    0    0 -0.21240926987E+02  0.21316876896E+02  0.47632750816E+01  0.30467605902E+02  0.00000000000E+00 0.  1.
</event>
<event>
 7    1  0.2655561E-013  0.7246135E+02  0.7816164E-02  0.1226709E+00
        -11   -1    0    0    0    0  0.00000000000E+00  0.00000000000E+00  0.45593999997E+02  0.45594000000E+02  0.51100000000E-03 0.  1.
         11   -1    0    0    0    0 -0.00000000000E+00 -0.00000000000E+00 -0.45593999997E+02  0.45594000000E+02  0.51100000000E-03 0. -1.
    9900012    2    1    2    0    0  0.14196251935E+02  0.11579432504E+02 -0.38820782283E+01  0.72461351675E+02  0.69999715207E+02 0.  0.
        -12    1    1    2    0    0 -0.14196251935E+02 -0.11579432504E+02  0.38820782283E+01  0.18726648325E+02  0.00000000000E+00 0.  1.
         11    1    3    3    0    0 -0.44201548258E+01 -0.75437911022E+01 -0.16266486268E+02  0.18467407199E+02  0.51100000000E-03 0. -1.
        -11    1    3    3    0    0 -0.89846744310E+01  0.22921157778E+02  0.72415259743E+01  0.25662103328E+02  0.51100000000E-03 0.  1.
         12    1    3    3    0    0  0.27601081192E+02 -0.37979341715E+01  0.51428820653E+01  0.28331841149E+02  0.00000000000E+00 0. -1.
</event>
<event>
 7    1  0.2655561E-013  0.7246159E+02  0.7816164E-02  0.1226708E+00
        -11   -1    0    0    0    0  0.00000000000E+00  0.00000000000E+00  0.45593999997E+02  0.45594000000E+02  0.51100000000E-03 0. -1.
         11   -1    0    0    0    0 -0.00000000000E+00 -0.00000000000E+00 -0.45593999997E+02  0.45594000000E+02  0.51100000000E-03 0.  1.
    9900012    2    1    2    0    0  0.12190290068E+02  0.13468865966E+02 -0.45458839646E+01  0.72461585945E+02  0.70000020388E+02 0.  0.
        -12    1    1    2    0    0 -0.12190290068E+02 -0.13468865966E+02  0.45458839646E+01  0.18726414055E+02  0.00000000000E+00 0.  1.
         11    1    3    3    0    0  0.10120316830E+02  0.67266943138E+01 -0.12702222496E+02  0.17578841990E+02  0.51100000000E-03 0. -1.
        -11    1    3    3    0    0  0.10135192143E+02  0.97815812494E+01 -0.20548035743E+02  0.24912310705E+02  0.51100000000E-03 0.  1.
         12    1    3    3    0    0 -0.80652189054E+01 -0.30394095973E+01  0.28704374274E+02  0.29970433249E+02  0.00000000000E+00 0. -1.
</event>
<event>
 7    1  0.2655561E-013  0.7246153E+02  0.7816164E-02  0.1226708E+00
        -11   -1    0    0    0    0  0.00000000000E+00  0.00000000000E+00  0.45593999997E+02  0.45594000000E+02  0.51100000000E-03 0.  1.
         11   -1    0    0    0    0 -0.00000000000E+00 -0.00000000000E+00 -0.45593999997E+02  0.45594000000E+02  0.51100000000E-03 0. -1.
    9900012    2    1    2    0    0 -0.76362219250E+01  0.17033020987E+02 -0.14983295567E+01  0.72461529946E+02  0.69999947439E+02 0.  0.
        -12    1    1    2    0    0  0.76362219250E+01 -0.17033020987E+02  0.14983295567E+01  0.18726470054E+02  0.00000000000E+00 0.  1.
         11    1    3    3    0    0 -0.57743875783E+01 -0.74974581148E+01 -0.19752212350E+02  0.21902176218E+02  0.51100000000E-03 0. -1.
        -11    1    3    3    0    0  0.28379782553E+00 -0.64175986484E+01 -0.77596643018E+01  0.10073653953E+02  0.51100000000E-03 0.  1.
        -12    1    3    3    0    0 -0.21456321723E+01  0.30948077750E+02  0.26013547095E+02  0.40485699776E+02  0.00000000000E+00 0.  1.
</event>
<event>
 7    1  0.2655561E-013  0.7246158E+02  0.7816164E-02  0.1226708E+00
        -11   -1    0    0    0    0  0.00000000000E+00  0.00000000000E+00  0.45593999997E+02  0.45594000000E+02  0.51100000000E-03 0. -1.
         11   -1    0    0    0    0 -0.00000000000E+00 -0.00000000000E+00 -0.45593999997E+02  0.45594000000E+02  0.51100000000E-03 0.  1.
    9900012    2    1    2    0    0  0.96751788866E+01 -0.18751786037E+01  0.15923358877E+02  0.72461581783E+02  0.70000014967E+02 0.  0.
        -12    1    1    2    0    0 -0.96751788866E+01  0.18751786037E+01 -0.15923358877E+02  0.18726418217E+02  0.00000000000E+00 0.  1.
         11    1    3    3    0    0 -0.23353370898E+01  0.13072239138E+02 -0.77862189081E+01  0.15393584396E+02  0.51100000000E-03 0. -1.
        -11    1    3    3    0    0  0.20738342792E+02 -0.14979582484E+01 -0.73999357360E+01  0.22069929539E+02  0.51100000000E-03 0.  1.
         12    1    3    3    0    0 -0.87278268160E+01 -0.13449459494E+02  0.31109513521E+02  0.34998067849E+02  0.00000000000E+00 0. -1.
</event>
<event>
 7    1  0.2655561E-013  0.7246151E+02  0.7816164E-02  0.1226708E+00
        -11   -1    0    0    0    0  0.00000000000E+00  0.00000000000E+00  0.45593999997E+02  0.45594000000E+02  0.51100000000E-03 0. -1.
         11   -1    0    0    0    0 -0.00000000000E+00 -0.00000000000E+00 -0.45593999997E+02  0.45594000000E+02  0.51100000000E-03 0.  1.
    9900012    2    1    2    0    0  0.53762285166E+01  0.31464532480E+01  0.17660048008E+02  0.72461513497E+02  0.69999926011E+02 0.  0.
        -12    1    1    2    0    0 -0.53762285166E+01 -0.31464532480E+01 -0.17660048008E+02  0.18726486503E+02  0.00000000000E+00 0.  1.
         11    1    3    3    0    0  0.31167016752E+01 -0.10066661740E+02  0.29184281205E+02  0.31028596128E+02  0.51100000000E-03 0. -1.
        -11    1    3    3    0    0 -0.34800126153E+01 -0.27229135163E+01  0.11804044488E+02  0.12603976053E+02  0.51100000000E-03 0.  1.
        -12    1    3    3    0    0  0.57395394567E+01  0.15936028504E+02 -0.23328277685E+02  0.28828941316E+02  0.00000000000E+00 0.  1.
</event>
<event>
 7    1  0.2655561E-013  0.7246169E+02  0.7816164E-02  0.1226708E+00
        -11   -1    0    0    0    0  0.00000000000E+00  0.00000000000E+00  0.45593999997E+02  0.45594000000E+02  0.51100000000E-03 0.  1.
         11   -1    0    0    0    0 -0.00000000000E+00 -0.00000000000E+00 -0.45593999997E+02  0.45594000000E+02  0.51100000000E-03 0. -1.
    9900012    2    1    2    0    0  0.16537799719E+02 -0.38298087025E+01 -0.79062372366E+01  0.72461685855E+02  0.70000150539E+02 0.  0.
        -12    1    1    2    0    0 -0.16537799719E+02  0.38298087025E+01  0.79062372366E+01  0.18726314145E+02  0.00000000000E+00 0.  1.
         11    1    3    3    0    0  0.24202286785E+01  0.10084712501E+01 -0.21193004312E+02  0.21354576867E+02  0.51100000000E-03 0. -1.
        -11    1    3    3    0    0 -0.74135372905E+01  0.14956260442E+02 -0.39561598608E+01  0.17155216777E+02  0.51100000000E-03 0.  1.
         12    1    3    3    0    0  0.21531108331E+02 -0.19794540394E+02  0.17242926936E+02  0.33951892211E+02  0.00000000000E+00 0. -1.
</event>
<event>
 7    1  0.2655561E-013  0.7246187E+02  0.7816164E-02  0.1226707E+00
        -11   -1    0    0    0    0  0.00000000000E+00  0.00000000000E+00  0.45593999997E+02  0.45594000000E+02  0.51100000000E-03 0.  1.
         11   -1    0    0    0    0 -0.00000000000E+00 -0.00000000000E+00 -0.45593999997E+02  0.45594000000E+02  0.51100000000E-03 0. -1.
    9900012    2    1    2    0    0 -0.91493813086E+01  0.11370549496E+01 -0.16299195110E+02  0.72461872971E+02  0.70000394291E+02 0.  0.
        -12    1    1    2    0    0  0.91493813086E+01 -0.11370549496E+01  0.16299195110E+02  0.18726127029E+02  0.00000000000E+00 0.  1.
         11    1    3    3    0    0 -0.81146673184E+01  0.15460988895E+02  0.76432210093E+01  0.19060661871E+02  0.51100000000E-03 0. -1.
        -11    1    3    3    0    0 -0.70421468070E+00  0.98584628422E+01  0.84313991745E+01  0.12991293247E+02  0.51100000000E-03 0.  1.
        -12    1    3    3    0    0 -0.33049930957E+00 -0.24182396788E+02 -0.32373815293E+02  0.40409917853E+02  0.00000000000E+00 0.  1.
</event>
<event>
 7    1  0.2655561E-013  0.7246163E+02  0.7816164E-02  0.1226708E+00
        -11   -1    0    0    0    0  0.00000000000E+00  0.00000000000E+00  0.45593999997E+02  0.45594000000E+02  0.51100000000E-03 0. -1.
         11   -1    0    0    0    0 -0.00000000000E+00 -0.00000000000E+00 -0.45593999997E+02  0.45594000000E+02  0.51100000000E-03 0.  1.
    9900012    2    1    2    0    0  0.32587757481E+01 -0.10818761858E+02  0.14933578112E+02  0.72461628682E+02  0.70000076061E+02 0.  0.
        -12    1    1    2    0    0 -0.32587757481E+01  0.10818761858E+02 -0.14933578112E+02  0.18726371318E+02  0.00000000000E+00 0.  1.
         11    1    3    3    0    0  0.37091388952E+00  0.18590881850E+01  0.85928403617E+01  0.87994711055E+01  0.51100000000E-03 0. -1.
        -11    1    3    3    0    0 -0.22694217039E+02 -0.25458727201E+02 -0.10640655367E+01  0.34121935957E+02  0.51100000000E-03 0.  1.
         12    1    3    3    0    0  0.25582078897E+02  0.12780877158E+02  0.74048032866E+01  0.29540221620E+02  0.00000000000E+00 0. -1.
</event>
<event>
 7    1  0.2655561E-013  0.7246158E+02  0.7816164E-02  0.1226708E+00
        -11   -1    0    0    0    0  0.00000000000E+00  0.00000000000E+00  0.45593999997E+02  0.45594000000E+02  0.51100000000E-03 0.  1.
         11   -1    0    0    0    0 -0.00000000000E+00 -0.00000000000E+00 -0.45593999997E+02  0.45594000000E+02  0.51100000000E-03 0. -1.
    9900012    2    1    2    0    0  0.28412285376E+01  0.18364540324E+02  0.23129837424E+01  0.72461579768E+02  0.70000012342E+02 0.  0.
        -12    1    1    2    0    0 -0.28412285376E+01 -0.18364540324E+02 -0.23129837424E+01  0.18726420232E+02  0.00000000000E+00 0.  1.
         11    1    3    3    0    0 -0.26613008367E+01 -0.24741583604E+01 -0.25671157959E+01  0.44490522031E+01  0.51100000000E-03 0. -1.
        -11    1    3    3    0    0  0.34332231392E+02  0.44130706723E+01  0.12966694321E+01  0.34638975981E+02  0.51100000000E-03 0.  1.
         12    1    3    3    0    0 -0.28829702018E+02  0.16425628012E+02  0.35834301061E+01  0.33373551584E+02  0.00000000000E+00 0. -1.
</event>
<event>
 7    1  0.2655561E-013  0.7246158E+02  0.7816164E-02  0.1226708E+00
        -11   -1    0    0    0    0  0.00000000000E+00  0.00000000000E+00  0.45593999997E+02  0.45594000000E+02  0.51100000000E-03 0. -1.
         11   -1    0    0    0    0 -0.00000000000E+00 -0.00000000000E+00 -0.45593999997E+02  0.45594000000E+02  0.51100000000E-03 0.  1.
    9900012    2    1    2    0    0 -0.15349113779E+02  0.34964525393E+01  0.10141916931E+02  0.72461576070E+02  0.70000007524E+02 0.  0.
        -12    1    1    2    0    0  0.15349113779E+02 -0.34964525393E+01 -0.10141916931E+02  0.18726423930E+02  0.00000000000E+00 0.  1.
         11    1    3    3    0    0  0.25042487568E+02  0.65759555015E+01  0.12961358396E+02  0.28954553805E+02  0.51100000000E-03 0. -1.
        -11    1    3    3    0    0 -0.92546300688E+01  0.59374680975E+01 -0.46604066737E+00  0.11005403186E+02  0.51100000000E-03 0.  1.
        -12    1    3    3    0    0 -0.31136971278E+02 -0.90169710598E+01 -0.23534007978E+01  0.32501619079E+02  0.00000000000E+00 0.  1.
</event>
<event>
 7    1  0.2655561E-013  0.7246157E+02  0.7816164E-02  0.1226708E+00
        -11   -1    0    0    0    0  0.00000000000E+00  0.00000000000E+00  0.45593999997E+02  0.45594000000E+02  0.51100000000E-03 0.  1.
         11   -1    0    0    0    0 -0.00000000000E+00 -0.00000000000E+00 -0.45593999997E+02  0.45594000000E+02  0.51100000000E-03 0. -1.
    9900012    2    1    2    0    0 -0.16363722265E+02  0.71043776734E+01 -0.56952337006E+01  0.72461567468E+02  0.69999996318E+02 0.  0.
        -12    1    1    2    0    0  0.16363722265E+02 -0.71043776734E+01  0.56952337006E+01  0.18726432532E+02  0.00000000000E+00 0.  1.
         11    1    3    3    0    0  0.80327365577E+01  0.11104818987E+02 -0.25038477035E+02  0.28544127134E+02  0.51100000000E-03 0. -1.
        -11    1    3    3    0    0 -0.81306533508E+01 -0.46138517859E+01 -0.78616516703E+01  0.12214774638E+02  0.51100000000E-03 0.  1.
        -12    1    3    3    0    0 -0.16265805471E+02  0.61341047224E+00  0.27204895004E+02  0.31702665696E+02  0.00000000000E+00 0.  1.
</event>
<event>
 7    1  0.2655561E-013  0.7246163E+02  0.7816164E-02  0.1226708E+00
        -11   -1    0    0    0    0  0.00000000000E+00  0.00000000000E+00  0.45593999997E+02  0.45594000000E+02  0.51100000000E-03 0.  1.
         11   -1    0    0    0    0 -0.00000000000E+00 -0.00000000000E+00 -0.45593999997E+02  0.45594000000E+02  0.51100000000E-03 0. -1.
    9900012    2    1    2    0    0 -0.14672758602E+02  0.49873443844E+01 -0.10512544230E+02  0.72461627282E+02  0.70000074237E+02 0.  0.
        -12    1    1    2    0    0  0.14672758602E+02 -0.49873443844E+01  0.10512544230E+02  0.18726372718E+02  0.00000000000E+00 0.  1.
         11    1    3    3    0    0 -0.94750206085E+01 -0.75081408088E+01 -0.20198203399E+02  0.23539660463E+02  0.51100000000E-03 0. -1.
        -11    1    3    3    0    0  0.13227924390E+02 -0.11237562922E+01 -0.11613699948E+02  0.17638561126E+02  0.51100000000E-03 0.  1.
         12    1    3    3    0    0 -0.18425662383E+02  0.13619241485E+02  0.21299359117E+02  0.31283405692E+02  0.00000000000E+00 0. -1.
</event>
<event>
 7    1  0.2655561E-013  0.7246137E+02  0.7816164E-02  0.1226709E+00
        -11   -1    0    0    0    0  0.00000000000E+00  0.00000000000E+00  0.45593999997E+02  0.45594000000E+02  0.51100000000E-03 0.  1.
         11   -1    0    0    0    0 -0.00000000000E+00 -0.00000000000E+00 -0.45593999997E+02  0.45594000000E+02  0.51100000000E-03 0. -1.
    9900012    2    1    2    0    0  0.63178941840E+01  0.14199012493E+02 -0.10447915797E+02  0.72461369572E+02  0.69999738521E+02 0.  0.
        -12    1    1    2    0    0 -0.63178941840E+01 -0.14199012493E+02  0.10447915797E+02  0.18726630428E+02  0.00000000000E+00 0.  1.
         11    1    3    3    0    0  0.75927052829E+01 -0.16571768019E+02 -0.27366321874E+02  0.32881427006E+02  0.51100000000E-03 0. -1.
        -11    1    3    3    0    0  0.16877304225E+01  0.10817513381E+02 -0.28742628251E+01  0.11319382350E+02  0.51100000000E-03 0.  1.
        -12    1    3    3    0    0 -0.29625415214E+01  0.19953267131E+02  0.19792668902E+02  0.28260560216E+02  0.00000000000E+00 0.  1.
</event>
<event>
 7    1  0.2655561E-013  0.7246159E+02  0.7816164E-02  0.1226708E+00
        -11   -1    0    0    0    0  0.00000000000E+00  0.00000000000E+00  0.45593999997E+02  0.45594000000E+02  0.51100000000E-03 0. -1.
         11   -1    0    0    0    0 -0.00000000000E+00 -0.00000000000E+00 -0.45593999997E+02  0.45594000000E+02  0.51100000000E-03 0.  1.
    9900012    2    1    2    0    0 -0.45664313323E+01 -0.13646092637E+02 -0.11983743670E+02  0.72461594800E+02  0.70000031923E+02 0.  0.
        -12    1    1    2    0    0  0.45664313323E+01  0.13646092637E+02  0.11983743670E+02  0.18726405200E+02  0.00000000000E+00 0.  1.
         11    1    3    3    0    0 -0.94769799526E+01 -0.10603337471E+02  0.19668642890E+02  0.24271370541E+02  0.51100000000E-03 0. -1.
        -11    1    3    3    0    0 -0.98544313175E+01 -0.10501536426E+02 -0.24214970858E+01  0.14603278136E+02  0.51100000000E-03 0.  1.
        -12    1    3    3    0    0  0.14764979938E+02  0.74587812606E+01 -0.29230889474E+02  0.33586946123E+02  0.00000000000E+00 0.  1.
</event>
<event>
 7    1  0.2655561E-013  0.7246154E+02  0.7816164E-02  0.1226708E+00
        -11   -1    0    0    0    0  0.00000000000E+00  0.00000000000E+00  0.45593999997E+02  0.45594000000E+02  0.51100000000E-03 0.  1.
         11   -1    0    0    0    0 -0.00000000000E+00 -0.00000000000E+00 -0.45593999997E+02  0.45594000000E+02  0.51100000000E-03 0. -1.
    9900012    2    1    2    0    0  0.10921394934E+02  0.19351171344E+01 -0.15088363044E+02  0.72461541580E+02  0.69999962594E+02 0.  0.
        -12    1    1    2    0    0 -0.10921394934E+02 -0.19351171344E+01  0.15088363044E+02  0.18726458420E+02  0.00000000000E+00 0.  1.
         11    1    3    3    0    0 -0.51557127039E+01  0.30363231033E+02 -0.19824874473E+02  0.36626941183E+02  0.51100000000E-03 0. -1.
        -11    1    3    3    0    0  0.20621451612E+01 -0.25625348539E+01  0.54973939711E+01  0.64062756948E+01  0.51100000000E-03 0.  1.
        -12    1    3    3    0    0  0.14014962476E+02 -0.25865579045E+02 -0.76088254189E+00  0.29428324702E+02  0.00000000000E+00 0.  1.
</event>
<event>
 7    1  0.2655561E-013  0.7246148E+02  0.7816164E-02  0.1226708E+00
        -11   -1    0    0    0    0  0.00000000000E+00  0.00000000000E+00  0.45593999997E+02  0.45594000000E+02  0.51100000000E-03 0. -1.
         11   -1    0    0    0    0 -0.00000000000E+00 -0.00000000000E+00 -0.45593999997E+02  0.45594000000E+02  0.51100000000E-03 0.  1.
    9900012    2    1    2    0    0 -0.14040506400E+02  0.99998607354E+01 -0.73177650810E+01  0.72461475483E+02  0.69999876491E+02 0.  0.
        -12    1    1    2    0    0  0.14040506400E+02 -0.99998607354E+01  0.73177650810E+01  0.18726524517E+02  0.00000000000E+00 0.  1.
         11    1    3    3    0    0  0.13465932796E+01  0.30373426314E+02  0.16502043250E+02  0.34593001766E+02  0.51100000000E-03 0. -1.
        -11    1    3    3    0    0  0.27697369984E+01 -0.11599167139E+01 -0.23686330868E+01  0.38245617767E+01  0.51100000000E-03 0.  1.
        -12    1    3    3    0    0 -0.18156836678E+02 -0.19213648864E+02 -0.21451175244E+02  0.34043911940E+02  0.00000000000E+00 0.  1.
</event>
<event>
 7    1  0.2655561E-013  0.7246156E+02  0.7816164E-02  0.1226708E+00
        -11   -1    0    0    0    0  0.00000000000E+00  0.00000000000E+00  0.45593999997E+02  0.45594000000E+02  0.51100000000E-03 0.  1.
         11   -1    0    0    0    0 -0.00000000000E+00 -0.00000000000E+00 -0.45593999997E+02  0.45594000000E+02  0.51100000000E-03 0. -1.
    9900012    2    1    2    0    0  0.13450191401E+02  0.13020274730E+02  0.49425650278E+00  0.72461561677E+02  0.69999988774E+02 0.  0.
        -12    1    1    2    0    0 -0.13450191401E+02 -0.13020274730E+02 -0.49425650278E+00  0.18726438323E+02  0.00000000000E+00 0.  1.
         11    1    3    3    0    0 -0.22532288508E+01 -0.12919100976E+02 -0.15945301319E+01  0.13210705389E+02  0.51100000000E-03 0. -1.
        -11    1    3    3    0    0 -0.10951043521E+02  0.16973981358E+02 -0.16038449149E+02  0.25792891437E+02  0.51100000000E-03 0.  1.
        -12    1    3    3    0    0  0.26654463773E+02  0.89653943481E+01  0.18127235783E+02  0.33457964851E+02  0.00000000000E+00 0.  1.
</event>
<event>
 7    1  0.2655561E-013  0.7246155E+02  0.7816164E-02  0.1226708E+00
        -11   -1    0    0    0    0  0.00000000000E+00  0.00000000000E+00  0.45593999997E+02  0.45594000000E+02  0.51100000000E-03 0. -1.
         11   -1    0    0    0    0 -0.00000000000E+00 -0.00000000000E+00 -0.45593999997E+02  0.45594000000E+02  0.51100000000E-03 0.  1.
    9900012    2    1    2    0    0 -0.18484024366E+02  0.22592509829E+01  0.19790533953E+01  0.72461547477E+02  0.69999970276E+02 0.  0.
        -12    1    1    2    0    0  0.18484024366E+02 -0.22592509829E+01 -0.19790533953E+01  0.18726452523E+02  0.00000000000E+00 0.  1.
         11    1    3    3    0    0  0.39041738579E+01  0.31188329014E+01  0.20498879800E+02  0.21099141345E+02  0.51100000000E-03 0. -1.
        -11    1    3    3    0    0  0.72376067520E+01  0.13213434364E+02 -0.48236599492E+01  0.15819149622E+02  0.51100000000E-03 0.  1.
        -12    1    3    3    0    0 -0.29625804976E+02 -0.14073016283E+02 -0.13696166455E+02  0.35543256510E+02  0.00000000000E+00 0.  1.
</event>
<event>
 7    1  0.2655561E-013  0.7246156E+02  0.7816164E-02  0.1226708E+00
        -11   -1    0    0    0    0  0.00000000000E+00  0.00000000000E+00  0.45593999997E+02  0.45594000000E+02  0.51100000000E-03 0.  1.
         11   -1    0    0    0    0 -0.00000000000E+00 -0.00000000000E+00 -0.45593999997E+02  0.45594000000E+02  0.51100000000E-03 0. -1.
    9900012    2    1    2    0    0  0.17081099187E+02 -0.12978778436E+01 -0.75651312454E+01  0.72461557543E+02  0.69999983389E+02 0.  0.
        -12    1    1    2    0    0 -0.17081099187E+02  0.12978778436E+01  0.75651312454E+01  0.18726442457E+02  0.00000000000E+00 0.  1.
         11    1    3    3    0    0 -0.75210770944E+01 -0.53961105333E+01 -0.24865236618E+01  0.95847488089E+01  0.51100000000E-03 0. -1.
        -11    1    3    3    0    0 -0.18260247694E+02 -0.34311447156E+01 -0.54287835668E+01  0.19356680789E+02  0.51100000000E-03 0.  1.
         12    1    3    3    0    0  0.42862423975E+02  0.75293774053E+01  0.35017598317E+00  0.43520127945E+02  0.00000000000E+00 0. -1.
</event>
<event>
 7    1  0.2655561E-013  0.7246159E+02  0.7816164E-02  0.1226708E+00
        -11   -1    0    0    0    0  0.00000000000E+00  0.00000000000E+00  0.45593999997E+02  0.45594000000E+02  0.51100000000E-03 0.  1.
         11   -1    0    0    0    0 -0.00000000000E+00 -0.00000000000E+00 -0.45593999997E+02  0.45594000000E+02  0.51100000000E-03 0. -1.
    9900012    2    1    2    0    0 -0.15584986095E+01  0.15535966573E+02  0.10338441937E+02  0.72461586650E+02  0.70000021306E+02 0.  0.
        -12    1    1    2    0    0  0.15584986095E+01 -0.15535966573E+02 -0.10338441937E+02  0.18726413350E+02  0.00000000000E+00 0.  1.
         11    1    3    3    0    0  0.10522718799E+01 -0.18046776894E+01  0.16228550678E-01  0.20891149559E+01  0.51100000000E-03 0. -1.
        -11    1    3    3    0    0  0.90166515875E+01 -0.18927209220E+02  0.22143608773E+02  0.30493911925E+02  0.51100000000E-03 0.  1.
         12    1    3    3    0    0 -0.11627422077E+02  0.36267853483E+02 -0.11821395387E+02  0.39878559770E+02  0.00000000000E+00 0. -1.
</event>
<event>
 7    1  0.2655561E-013  0.7246154E+02  0.7816164E-02  0.1226708E+00
        -11   -1    0    0    0    0  0.00000000000E+00  0.00000000000E+00  0.45593999997E+02  0.45594000000E+02  0.51100000000E-03 0.  1.
         11   -1    0    0    0    0 -0.00000000000E+00 -0.00000000000E+00 -0.45593999997E+02  0.45594000000E+02  0.51100000000E-03 0. -1.
    9900012    2    1    2    0    0 -0.21224238998E+01 -0.18551670525E+02 -0.14181192429E+01  0.72461542121E+02  0.69999963300E+02 0.  0.
        -12    1    1    2    0    0  0.21224238998E+01  0.18551670525E+02  0.14181192429E+01  0.18726457879E+02  0.00000000000E+00 0.  1.
         11    1    3    3    0    0 -0.16088589425E+02 -0.59282691683E+01  0.11017895543E+02  0.20380900557E+02  0.51100000000E-03 0. -1.
        -11    1    3    3    0    0  0.11356124096E+02  0.75904681231E+01  0.13425779214E+02  0.19152762427E+02  0.51100000000E-03 0.  1.
         12    1    3    3    0    0  0.26100414293E+01 -0.20213869480E+02 -0.25861794000E+02  0.32927879138E+02  0.00000000000E+00 0. -1.
</event>
<event>
 7    1  0.2655561E-013  0.7246150E+02  0.7816164E-02  0.1226708E+00
        -11   -1    0    0    0    0  0.00000000000E+00  0.00000000000E+00  0.45593999997E+02  0.45594000000E+02  0.51100000000E-03 0. -1.
         11   -1    0    0    0    0 -0.00000000000E+00 -0.00000000000E+00 -0.45593999997E+02  0.45594000000E+02  0.51100000000E-03 0.  1.
    9900012    2    1    2    0    0  0.13641027735E+01  0.17154376972E+02  0.73856798945E+01  0.72461502912E+02  0.69999912222E+02 0.  0.
        -12    1    1    2    0    0 -0.13641027735E+01 -0.17154376972E+02 -0.73856798945E+01  0.18726497088E+02  0.00000000000E+00 0.  1.
         11    1    3    3    0    0 -0.20545374641E+02  0.97596707743E+00  0.80335421550E+01  0.22081728436E+02  0.51100000000E-03 0. -1.
        -11    1    3    3    0    0  0.56392685099E+01  0.29015491206E+02 -0.18832835764E+01  0.29618353036E+02  0.51100000000E-03 0.  1.
        -12    1    3    3    0    0  0.16270208905E+02 -0.12837081312E+02  0.12354213159E+01  0.20761421441E+02  0.00000000000E+00 0.  1.
</event>
<event>
 7    1  0.2655561E-013  0.7246153E+02  0.7816164E-02  0.1226708E+00
        -11   -1    0    0    0    0  0.00000000000E+00  0.00000000000E+00  0.45593999997E+02  0.45594000000E+02  0.51100000000E-03 0.  1.
         11   -1    0    0    0    0 -0.00000000000E+00 -0.00000000000E+00 -0.45593999997E+02  0.45594000000E+02  0.51100000000E-03 0. -1.
    9900012    2    1    2    0    0 -0.14027263054E+02  0.11483947695E+02 -0.46941824714E+01  0.72461534436E+02  0.69999953288E+02 0.  0.
        -12    1    1    2    0    0  0.14027263054E+02 -0.11483947695E+02  0.46941824714E+01  0.18726465564E+02  0.00000000000E+00 0.  1.
         11    1    3    3    0    0 -0.97673111942E+01 -0.54629655083E+01 -0.76459868515E+01  0.13553799294E+02  0.51100000000E-03 0. -1.
        -11    1    3    3    0    0 -0.18121819203E+02 -0.23228276330E+01  0.21910518503E+02  0.28528348721E+02  0.51100000000E-03 0.  1.
        -12    1    3    3    0    0  0.13861867343E+02  0.19269740836E+02 -0.18958714123E+02  0.30379386421E+02  0.00000000000E+00 0.  1.
</event>
<event>
 7    1  0.2655561E-013  0.7246155E+02  0.7816164E-02  0.1226708E+00
        -11   -1    0    0    0    0  0.00000000000E+00  0.00000000000E+00  0.45593999997E+02  0.45594000000E+02  0.51100000000E-03 0.  1.
         11   -1    0    0    0    0 -0.00000000000E+00 -0.00000000000E+00 -0.45593999997E+02  0.45594000000E+02  0.51100000000E-03 0. -1.
    9900012    2    1    2    0    0 -0.98005869833E+01 -0.11879811561E+02 -0.10653573762E+02  0.72461546469E+02  0.69999968963E+02 0.  0.
        -12    1    1    2    0    0  0.98005869833E+01  0.11879811561E+02  0.10653573762E+02  0.18726453531E+02  0.00000000000E+00 0.  1.
         11    1    3    3    0    0  0.11048475013E+02 -0.73817776457E+01 -0.58117211710E+01  0.14502949512E+02  0.51100000000E-03 0. -1.
        -11    1    3    3    0    0  0.80117346487E+01 -0.66407516283E+01 -0.21983972234E+02  0.24322469236E+02  0.51100000000E-03 0.  1.
        -12    1    3    3    0    0 -0.28860796645E+02  0.21427177130E+01  0.17142119643E+02  0.33636127721E+02  0.00000000000E+00 0.  1.
</event>
<event>
 7    1  0.2655561E-013  0.7246155E+02  0.7816164E-02  0.1226708E+00
        -11   -1    0    0    0    0  0.00000000000E+00  0.00000000000E+00  0.45593999997E+02  0.45594000000E+02  0.51100000000E-03 0.  1.
         11   -1    0    0    0    0 -0.00000000000E+00 -0.00000000000E+00 -0.45593999997E+02  0.45594000000E+02  0.51100000000E-03 0. -1.
    9900012    2    1    2    0    0 -0.10276925691E+02 -0.49694137204E+01 -0.14844850831E+02  0.72461551576E+02  0.69999975615E+02 0.  0.
        -12    1    1    2    0    0  0.10276925691E+02  0.49694137204E+01  0.14844850831E+02  0.18726448424E+02  0.00000000000E+00 0.  1.
         11    1    3    3    0    0 -0.32181652923E+02 -0.12802702428E+02 -0.22283792785E+02  0.41184164377E+02  0.51100000000E-03 0. -1.
        -11    1    3    3    0    0  0.16576394202E+01  0.31265942159E+01 -0.56833313243E+01  0.66950440657E+01  0.51100000000E-03 0.  1.
        -12    1    3    3    0    0  0.20247087812E+02  0.47066944913E+01  0.13122273278E+02  0.24582343133E+02  0.00000000000E+00 0.  1.
</event>
<event>
 7    1  0.2655561E-013  0.7246161E+02  0.7816164E-02  0.1226708E+00
        -11   -1    0    0    0    0  0.00000000000E+00  0.00000000000E+00  0.45593999997E+02  0.45594000000E+02  0.51100000000E-03 0.  1.
         11   -1    0    0    0    0 -0.00000000000E+00 -0.00000000000E+00 -0.45593999997E+02  0.45594000000E+02  0.51100000000E-03 0. -1.
    9900012    2    1    2    0    0 -0.14789683311E+02 -0.22947555351E+01 -0.11255091155E+02  0.72461609202E+02  0.70000050685E+02 0.  0.
        -12    1    1    2    0    0  0.14789683311E+02  0.22947555351E+01  0.11255091155E+02  0.18726390798E+02  0.00000000000E+00 0.  1.
         11    1    3    3    0    0 -0.20455969382E+02 -0.13116640903E+01 -0.20463171972E+02  0.28963918130E+02  0.51100000000E-03 0. -1.
        -11    1    3    3    0    0  0.10012692905E+01  0.68213582416E+01 -0.15610934874E+02  0.17065601553E+02  0.51100000000E-03 0.  1.
        -12    1    3    3    0    0  0.46650167802E+01 -0.78044496864E+01  0.24819015691E+02  0.26432089519E+02  0.00000000000E+00 0.  1.
</event>
<event>
 7    1  0.2655561E-013  0.7246146E+02  0.7816164E-02  0.1226708E+00
        -11   -1    0    0    0    0  0.00000000000E+00  0.00000000000E+00  0.45593999997E+02  0.45594000000E+02  0.51100000000E-03 0. -1.
         11   -1    0    0    0    0 -0.00000000000E+00 -0.00000000000E+00 -0.45593999997E+02  0.45594000000E+02  0.51100000000E-03 0.  1.
    9900012    2    1    2    0    0  0.13387661108E+02  0.58344810844E+01  0.11722319595E+02  0.72461456909E+02  0.69999852294E+02 0.  0.
        -12    1    1    2    0    0 -0.13387661108E+02 -0.58344810844E+01 -0.11722319595E+02  0.18726543091E+02  0.00000000000E+00 0.  1.
         11    1    3    3    0    0 -0.64452358939E+01  0.10960248351E+02 -0.78800780602E+01  0.14958734577E+02  0.51100000000E-03 0. -1.
        -11    1    3    3    0    0  0.17286767602E+02 -0.25302650253E+02  0.21765847348E+01  0.30721229880E+02  0.51100000000E-03 0.  1.
         12    1    3    3    0    0  0.25461293992E+01  0.20176882987E+02  0.17425812921E+02  0.26781492451E+02  0.00000000000E+00 0. -1.
</event>
<event>
 7    1  0.2655561E-013  0.7246159E+02  0.7816164E-02  0.1226708E+00
        -11   -1    0    0    0    0  0.00000000000E+00  0.00000000000E+00  0.45593999997E+02  0.45594000000E+02  0.51100000000E-03 0. -1.
         11   -1    0    0    0    0 -0.00000000000E+00 -0.00000000000E+00 -0.45593999997E+02  0.45594000000E+02  0.51100000000E-03 0.  1.
    9900012    2    1    2    0    0 -0.11950999170E+01 -0.81957053487E+01 -0.16795259076E+02  0.72461586104E+02  0.70000020594E+02 0.  0.
        -12    1    1    2    0    0  0.11950999170E+01  0.81957053487E+01  0.16795259076E+02  0.18726413896E+02  0.00000000000E+00 0.  1.
         11    1    3    3    0    0 -0.76459391196E+01  0.44702753184E+01 -0.20093532601E+02  0.21958911610E+02  0.51100000000E-03 0. -1.
        -11    1    3    3    0    0 -0.19711164486E+02 -0.86274388878E+01 -0.61777284491E+01  0.22385866885E+02  0.51100000000E-03 0.  1.
         12    1    3    3    0    0  0.26162003688E+02 -0.40385417793E+01  0.94760019739E+01  0.28116807608E+02  0.00000000000E+00 0. -1.
</event>
<event>
 7    1  0.2655561E-013  0.7246153E+02  0.7816164E-02  0.1226708E+00
        -11   -1    0    0    0    0  0.00000000000E+00  0.00000000000E+00  0.45593999997E+02  0.45594000000E+02  0.51100000000E-03 0.  1.
         11   -1    0    0    0    0 -0.00000000000E+00 -0.00000000000E+00 -0.45593999997E+02  0.45594000000E+02  0.51100000000E-03 0. -1.
    9900012    2    1    2    0    0 -0.14871238625E+02 -0.93659398832E+01 -0.64657548200E+01  0.72461533341E+02  0.69999951861E+02 0.  0.
        -12    1    1    2    0    0  0.14871238625E+02  0.93659398832E+01  0.64657548200E+01  0.18726466659E+02  0.00000000000E+00 0.  1.
         11    1    3    3    0    0  0.93100212172E+01 -0.22857516391E+02 -0.84863589624E+01  0.26099058207E+02  0.51100000000E-03 0. -1.
        -11    1    3    3    0    0  0.31670651851E+01 -0.64116418621E+01 -0.83410034356E+01  0.10986891818E+02  0.51100000000E-03 0.  1.
        -12    1    3    3    0    0 -0.27348325028E+02  0.19903218369E+02  0.10361607578E+02  0.35375583315E+02  0.00000000000E+00 0.  1.
</event>
<event>
 7    1  0.2655561E-013  0.7246170E+02  0.7816164E-02  0.1226708E+00
        -11   -1    0    0    0    0  0.00000000000E+00  0.00000000000E+00  0.45593999997E+02  0.45594000000E+02  0.51100000000E-03 0.  1.
         11   -1    0    0    0    0 -0.00000000000E+00 -0.00000000000E+00 -0.45593999997E+02  0.45594000000E+02  0.51100000000E-03 0. -1.
    9900012    2    1    2    0    0 -0.84966729812E+01 -0.97232417961E+01 -0.13562432992E+02  0.72461695734E+02  0.70000163409E+02 0.  0.
        -12    1    1    2    0    0  0.84966729812E+01  0.97232417961E+01  0.13562432992E+02  0.18726304266E+02  0.00000000000E+00 0.  1.
         11    1    3    3    0    0 -0.14490812780E+02  0.67172155337E+01 -0.15444542627E+02  0.22217977783E+02  0.51100000000E-03 0. -1.
        -11    1    3    3    0    0 -0.13390014420E+02 -0.10459136360E+02  0.17688367177E+02  0.24526808867E+02  0.51100000000E-03 0.  1.
         12    1    3    3    0    0  0.19384154219E+02 -0.59813209694E+01 -0.15806257543E+02  0.25716909084E+02  0.00000000000E+00 0. -1.
</event>
<event>
 7    1  0.2655561E-013  0.7246157E+02  0.7816164E-02  0.1226708E+00
        -11   -1    0    0    0    0  0.00000000000E+00  0.00000000000E+00  0.45593999997E+02  0.45594000000E+02  0.51100000000E-03 0. -1.
         11   -1    0    0    0    0 -0.00000000000E+00 -0.00000000000E+00 -0.45593999997E+02  0.45594000000E+02  0.51100000000E-03 0.  1.
    9900012    2    1    2    0    0 -0.16272932028E+02  0.87882795333E+01  0.29388818504E+01  0.72461569468E+02  0.69999998923E+02 0.  0.
        -12    1    1    2    0    0  0.16272932028E+02 -0.87882795333E+01 -0.29388818504E+01  0.18726430532E+02  0.00000000000E+00 0.  1.
         11    1    3    3    0    0  0.37912737490E+01 -0.17128248179E+01 -0.22856573013E+02  0.23232099682E+02  0.51100000000E-03 0. -1.
        -11    1    3    3    0    0  0.27472273142E+01  0.51844486747E+01 -0.68697883102E+01  0.90343653714E+01  0.51100000000E-03 0.  1.
         12    1    3    3    0    0 -0.22811433092E+02  0.53166556765E+01  0.32665243173E+02  0.40195104414E+02  0.00000000000E+00 0. -1.
</event>
<event>
 7    1  0.2655561E-013  0.7246156E+02  0.7816164E-02  0.1226708E+00
        -11   -1    0    0    0    0  0.00000000000E+00  0.00000000000E+00  0.45593999997E+02  0.45594000000E+02  0.51100000000E-03 0.  1.
         11   -1    0    0    0    0 -0.00000000000E+00 -0.00000000000E+00 -0.45593999997E+02  0.45594000000E+02  0.51100000000E-03 0. -1.
    9900012    2    1    2    0    0 -0.30205816205E+01  0.34067228130E+00 -0.18478083288E+02  0.72461560591E+02  0.69999987360E+02 0.  0.
        -12    1    1    2    0    0  0.30205816205E+01 -0.34067228130E+00  0.18478083288E+02  0.18726439409E+02  0.00000000000E+00 0.  1.
         11    1    3    3    0    0 -0.62681080324E+01  0.73624225021E+01  0.59313679022E+01  0.11343525416E+02  0.51100000000E-03 0. -1.
        -11    1    3    3    0    0 -0.16194502359E+02  0.17074327991E+02 -0.17678423079E+02  0.29433335282E+02  0.51100000000E-03 0.  1.
         12    1    3    3    0    0  0.19442028770E+02 -0.24096078212E+02 -0.67310281113E+01  0.31684699894E+02  0.00000000000E+00 0. -1.
</event>
<event>
 7    1  0.2655561E-013  0.7246155E+02  0.7816164E-02  0.1226708E+00
        -11   -1    0    0    0    0  0.00000000000E+00  0.00000000000E+00  0.45593999997E+02  0.45594000000E+02  0.51100000000E-03 0.  1.
         11   -1    0    0    0    0 -0.00000000000E+00 -0.00000000000E+00 -0.45593999997E+02  0.45594000000E+02  0.51100000000E-03 0. -1.
    9900012    2    1    2    0    0 -0.40683905246E+01  0.15090710236E+02 -0.10314964464E+02  0.72461552691E+02  0.69999977069E+02 0.  0.
        -12    1    1    2    0    0  0.40683905246E+01 -0.15090710236E+02  0.10314964464E+02  0.18726447309E+02  0.00000000000E+00 0.  1.
         11    1    3    3    0    0  0.42021331314E+01  0.10068875775E+02 -0.27274619180E+02  0.29375926095E+02  0.51100000000E-03 0. -1.
        -11    1    3    3    0    0  0.14696114822E+01 -0.15285244499E+02  0.82006485499E+00  0.15377612426E+02  0.51100000000E-03 0.  1.
        -12    1    3    3    0    0 -0.97401351382E+01  0.20307078960E+02  0.16139589861E+02  0.27708014171E+02  0.00000000000E+00 0.  1.
</event>
<event>
 7    1  0.2655561E-013  0.7246157E+02  0.7816164E-02  0.1226708E+00
        -11   -1    0    0    0    0  0.00000000000E+00  0.00000000000E+00  0.45593999997E+02  0.45594000000E+02  0.51100000000E-03 0.  1.
         11   -1    0    0    0    0 -0.00000000000E+00 -0.00000000000E+00 -0.45593999997E+02  0.45594000000E+02  0.51100000000E-03 0. -1.
    9900012    2    1    2    0    0  0.16041746980E+02 -0.60019339693E+01 -0.75708936679E+01  0.72461567119E+02  0.69999995863E+02 0.  0.
        -12    1    1    2    0    0 -0.16041746980E+02  0.60019339693E+01  0.75708936679E+01  0.18726432881E+02  0.00000000000E+00 0.  1.
         11    1    3    3    0    0  0.23993187594E+02 -0.45401451624E+01  0.17418560846E+01  0.24481013702E+02  0.51100000000E-03 0. -1.
        -11    1    3    3    0    0  0.54908142518E+01 -0.11842922831E+02  0.13997007389E+02  0.19139490026E+02  0.51100000000E-03 0.  1.
         12    1    3    3    0    0 -0.13442254866E+02  0.10381134024E+02 -0.23309757141E+02  0.28841063391E+02  0.00000000000E+00 0. -1.
</event>
<event>
 7    1  0.2655561E-013  0.7246154E+02  0.7816164E-02  0.1226708E+00
        -11   -1    0    0    0    0  0.00000000000E+00  0.00000000000E+00  0.45593999997E+02  0.45594000000E+02  0.51100000000E-03 0. -1.
         11   -1    0    0    0    0 -0.00000000000E+00 -0.00000000000E+00 -0.45593999997E+02  0.45594000000E+02  0.51100000000E-03 0.  1.
    9900012    2    1    2    0    0  0.31821349103E+01 -0.12789224545E+01  0.18409745903E+02  0.72461538256E+02  0.69999958265E+02 0.  0.
        -12    1    1    2    0    0 -0.31821349103E+01  0.12789224545E+01 -0.18409745903E+02  0.18726461744E+02  0.00000000000E+00 0.  1.
         11    1    3    3    0    0  0.25660287136E+02 -0.10337614137E+02  0.36678736951E+01  0.27906449069E+02  0.51100000000E-03 0. -1.
        -11    1    3    3    0    0  0.33982946418E+01  0.64308128303E+01 -0.74155105228E+01  0.10387182328E+02  0.51100000000E-03 0.  1.
         12    1    3    3    0    0 -0.25876446867E+02  0.26278788520E+01  0.22157382730E+02  0.34167906860E+02  0.00000000000E+00 0. -1.
</event>
<event>
 7    1  0.2655561E-013  0.7246162E+02  0.7816164E-02  0.1226708E+00
        -11   -1    0    0    0    0  0.00000000000E+00  0.00000000000E+00  0.45593999997E+02  0.45594000000E+02  0.51100000000E-03 0. -1.
         11   -1    0    0    0    0 -0.00000000000E+00 -0.00000000000E+00 -0.45593999997E+02  0.45594000000E+02  0.51100000000E-03 0.  1.
    9900012    2    1    2    0    0 -0.57844283613E+01  0.69286901915E+01  0.16407649184E+02  0.72461619918E+02  0.70000064644E+02 0.  0.
        -12    1    1    2    0    0  0.57844283613E+01 -0.69286901915E+01 -0.16407649184E+02  0.18726380082E+02  0.00000000000E+00 0.  1.
         11    1    3    3    0    0 -0.21088178380E+02 -0.64904354606E+01 -0.54415254044E+00  0.22071092454E+02  0.51100000000E-03 0. -1.
        -11    1    3    3    0    0 -0.11184905494E+02 -0.73191507334E+01  0.17740646001E+01  0.13484041821E+02  0.51100000000E-03 0.  1.
         12    1    3    3    0    0  0.26488655512E+02  0.20738276385E+02  0.15177737125E+02  0.36906485643E+02  0.00000000000E+00 0. -1.
</event>
<event>
 7    1  0.4164694E-013  0.7246157E+02  0.7816164E-02  0.1226708E+00
        -11   -1    0    0    0    0  0.00000000000E+00  0.00000000000E+00  0.45593999997E+02  0.45594000000E+02  0.51100000000E-03 0. -1.
         11   -1    0    0    0    0 -0.00000000000E+00 -0.00000000000E+00 -0.45593999997E+02  0.45594000000E+02  0.51100000000E-03 0.  1.
    9900012    2    1    2    0    0  0.15086705874E+02 -0.37555152668E+00  0.11087355395E+02  0.72461569942E+02  0.69999999540E+02 0.  0.
        -12    1    1    2    0    0 -0.15086705874E+02  0.37555152668E+00 -0.11087355395E+02  0.18726430058E+02  0.00000000000E+00 0.  1.
         11    1    3    3    0    0  0.51277380981E+01  0.56169959398E+01  0.29340499118E+02  0.30310216597E+02  0.51100000000E-03 0. -1.
        -11    1    3    3    0    0  0.12717324711E+02 -0.58010759651E+01  0.77628145481E+01  0.15988874886E+02  0.51100000000E-03 0.  1.
        -12    1    3    3    0    0 -0.27583569354E+01 -0.19147150134E+00 -0.26015958271E+02  0.26162478458E+02  0.00000000000E+00 0.  1.
</event>
<event>
 7    1  0.2655561E-013  0.7246153E+02  0.7816164E-02  0.1226708E+00
        -11   -1    0    0    0    0  0.00000000000E+00  0.00000000000E+00  0.45593999997E+02  0.45594000000E+02  0.51100000000E-03 0. -1.
         11   -1    0    0    0    0 -0.00000000000E+00 -0.00000000000E+00 -0.45593999997E+02  0.45594000000E+02  0.51100000000E-03 0.  1.
    9900012    2    1    2    0    0  0.41149970124E+00 -0.15620177755E+02  0.10320915518E+02  0.72461532575E+02  0.69999950864E+02 0.  0.
        -12    1    1    2    0    0 -0.41149970124E+00  0.15620177755E+02 -0.10320915518E+02  0.18726467425E+02  0.00000000000E+00 0.  1.
         11    1    3    3    0    0 -0.22714335715E+02 -0.11904633947E+02 -0.21483995891E+01  0.25734742614E+02  0.51100000000E-03 0. -1.
        -11    1    3    3    0    0  0.25811999426E+01 -0.10064027380E+02 -0.10839162790E+02  0.15014482692E+02  0.51100000000E-03 0.  1.
        -12    1    3    3    0    0  0.20544635473E+02  0.63484835728E+01  0.23308477897E+02  0.31712307268E+02  0.00000000000E+00 0.  1.
</event>
<event>
 7    1  0.2856126E-013  0.7246158E+02  0.7816164E-02  0.1226708E+00
        -11   -1    0    0    0    0  0.00000000000E+00  0.00000000000E+00  0.45593999997E+02  0.45594000000E+02  0.51100000000E-03 0. -1.
         11   -1    0    0    0    0 -0.00000000000E+00 -0.00000000000E+00 -0.45593999997E+02  0.45594000000E+02  0.51100000000E-03 0.  1.
    9900012    2    1    2    0    0 -0.23990086547E+01 -0.10387050709E+02  0.15395863704E+02  0.72461583254E+02  0.70000016882E+02 0.  0.
        -12    1    1    2    0    0  0.23990086547E+01  0.10387050709E+02 -0.15395863704E+02  0.18726416746E+02  0.00000000000E+00 0.  1.
         11    1    3    3    0    0 -0.10620333279E+02  0.57213440926E+01  0.29217709186E+02  0.31610121600E+02  0.51100000000E-03 0. -1.
        -11    1    3    3    0    0 -0.10023751280E+02  0.40570208955E+01 -0.12297445662E+01  0.10883348760E+02  0.51100000000E-03 0.  1.
        -12    1    3    3    0    0  0.18245075904E+02 -0.20165415697E+02 -0.12592100916E+02  0.29968112894E+02  0.00000000000E+00 0.  1.
</event>
<event>
 7    1  0.2655561E-013  0.7246156E+02  0.7816164E-02  0.1226708E+00
        -11   -1    0    0    0    0  0.00000000000E+00  0.00000000000E+00  0.45593999997E+02  0.45594000000E+02  0.51100000000E-03 0.  1.
         11   -1    0    0    0    0 -0.00000000000E+00 -0.00000000000E+00 -0.45593999997E+02  0.45594000000E+02  0.51100000000E-03 0. -1.
    9900012    2    1    2    0    0 -0.53649584473E+01 -0.15623685233E+02 -0.88202662320E+01  0.72461563718E+02  0.69999991434E+02 0.  0.
        -12    1    1    2    0    0  0.53649584473E+01  0.15623685233E+02  0.88202662320E+01  0.18726436282E+02  0.00000000000E+00 0.  1.
         11    1    3    3    0    0  0.12951705210E+02  0.31742931020E+01 -0.58247128321E+01  0.14551635110E+02  0.51100000000E-03 0. -1.
        -11    1    3    3    0    0 -0.12978083327E+02 -0.29306845346E+01  0.23245223178E+02  0.26783576302E+02  0.51100000000E-03 0.  1.
         12    1    3    3    0    0 -0.53385803299E+01 -0.15867293800E+02 -0.26240776578E+02  0.31126352306E+02  0.00000000000E+00 0. -1.
</event>
<event>
 7    1  0.2655561E-013  0.7246154E+02  0.7816164E-02  0.1226708E+00
        -11   -1    0    0    0    0  0.00000000000E+00  0.00000000000E+00  0.45593999997E+02  0.45594000000E+02  0.51100000000E-03 0. -1.
         11   -1    0    0    0    0 -0.00000000000E+00 -0.00000000000E+00 -0.45593999997E+02  0.45594000000E+02  0.51100000000E-03 0.  1.
    9900012    2    1    2    0    0 -0.74859688848E+01  0.15615912562E+02  0.71262771190E+01  0.72461540621E+02  0.69999961345E+02 0.  0.
        -12    1    1    2    0    0  0.74859688848E+01 -0.15615912562E+02 -0.71262771190E+01  0.18726459379E+02  0.00000000000E+00 0.  1.
         11    1    3    3    0    0  0.73646139075E+01 -0.31085071658E+01  0.63789473740E+01  0.10226990010E+02  0.51100000000E-03 0. -1.
        -11    1    3    3    0    0  0.19297590290E+02 -0.38307764412E+01  0.69018081071E+01  0.20849623367E+02  0.51100000000E-03 0.  1.
         12    1    3    3    0    0 -0.34148173082E+02  0.22555196169E+02 -0.61544783620E+01  0.41384927244E+02  0.00000000000E+00 0. -1.
</event>
<event>
 7    1  0.2655561E-013  0.7246158E+02  0.7816164E-02  0.1226708E+00
        -11   -1    0    0    0    0  0.00000000000E+00  0.00000000000E+00  0.45593999997E+02  0.45594000000E+02  0.51100000000E-03 0.  1.
         11   -1    0    0    0    0 -0.00000000000E+00 -0.00000000000E+00 -0.45593999997E+02  0.45594000000E+02  0.51100000000E-03 0. -1.
    9900012    2    1    2    0    0 -0.52058630917E+01  0.12682307551E+00 -0.17987819775E+02  0.72461581365E+02  0.70000014422E+02 0.  0.
        -12    1    1    2    0    0  0.52058630917E+01 -0.12682307551E+00  0.17987819775E+02  0.18726418635E+02  0.00000000000E+00 0.  1.
         11    1    3    3    0    0 -0.25365615673E+02 -0.20561505173E+02 -0.68549568698E+01  0.33364358040E+02  0.51100000000E-03 0. -1.
        -11    1    3    3    0    0 -0.51292463853E+01  0.68690214804E+01 -0.14437029279E+01  0.86934977416E+01  0.51100000000E-03 0.  1.
        -12    1    3    3    0    0  0.25288998967E+02  0.13819306768E+02 -0.96891599772E+01  0.30403725584E+02  0.00000000000E+00 0.  1.
</event>
<event>
 7    1  0.2655561E-013  0.7246159E+02  0.7816164E-02  0.1226708E+00
        -11   -1    0    0    0    0  0.00000000000E+00  0.00000000000E+00  0.45593999997E+02  0.45594000000E+02  0.51100000000E-03 0.  1.
         11   -1    0    0    0    0 -0.00000000000E+00 -0.00000000000E+00 -0.45593999997E+02  0.45594000000E+02  0.51100000000E-03 0. -1.
    9900012    2    1    2    0    0 -0.10680005279E+02  0.43270586677E+01 -0.14761183978E+02  0.72461588120E+02  0.70000023221E+02 0.  0.
        -12    1    1    2    0    0  0.10680005279E+02 -0.43270586677E+01  0.14761183978E+02  0.18726411880E+02  0.00000000000E+00 0.  1.
         11    1    3    3    0    0  0.31921177334E+01 -0.35993308712E+01 -0.10766627154E+02  0.11792584911E+02  0.51100000000E-03 0. -1.
        -11    1    3    3    0    0  0.20382441558E+02  0.90420888964E+01  0.89582894967E+01  0.24030277702E+02  0.51100000000E-03 0.  1.
         12    1    3    3    0    0 -0.34254564571E+02 -0.11156993575E+01 -0.12952846320E+02  0.36638725507E+02  0.00000000000E+00 0. -1.
</event>
<event>
 7    1  0.2655561E-013  0.7246154E+02  0.7816164E-02  0.1226708E+00
        -11   -1    0    0    0    0  0.00000000000E+00  0.00000000000E+00  0.45593999997E+02  0.45594000000E+02  0.51100000000E-03 0.  1.
         11   -1    0    0    0    0 -0.00000000000E+00 -0.00000000000E+00 -0.45593999997E+02  0.45594000000E+02  0.51100000000E-03 0. -1.
    9900012    2    1    2    0    0  0.18053903607E+02 -0.46129749402E+01 -0.18593513962E+01  0.72461543825E+02  0.69999965519E+02 0.  0.
        -12    1    1    2    0    0 -0.18053903607E+02  0.46129749402E+01  0.18593513962E+01  0.18726456175E+02  0.00000000000E+00 0.  1.
         11    1    3    3    0    0  0.34104942458E+01 -0.12460207039E+02  0.54048020564E+01  0.14003575115E+02  0.51100000000E-03 0. -1.
        -11    1    3    3    0    0 -0.11550796080E+01  0.28702973328E+02  0.56560544291E+01  0.29277736229E+02  0.51100000000E-03 0.  1.
         12    1    3    3    0    0  0.15798488970E+02 -0.20855741228E+02 -0.12920207882E+02  0.29180232481E+02  0.00000000000E+00 0. -1.
</event>
<event>
 7    1  0.2655561E-013  0.7246147E+02  0.7816164E-02  0.1226708E+00
        -11   -1    0    0    0    0  0.00000000000E+00  0.00000000000E+00  0.45593999997E+02  0.45594000000E+02  0.51100000000E-03 0. -1.
         11   -1    0    0    0    0 -0.00000000000E+00 -0.00000000000E+00 -0.45593999997E+02  0.45594000000E+02  0.51100000000E-03 0.  1.
    9900012    2    1    2    0    0 -0.11306819210E+02 -0.13550929865E+01  0.14866146878E+02  0.72461474411E+02  0.69999875094E+02 0.  0.
        -12    1    1    2    0    0  0.11306819210E+02  0.13550929865E+01 -0.14866146878E+02  0.18726525589E+02  0.00000000000E+00 0.  1.
         11    1    3    3    0    0 -0.76089223313E+01 -0.57182102869E+01  0.14409598736E+02  0.17269341734E+02  0.51100000000E-03 0. -1.
        -11    1    3    3    0    0 -0.33265433453E+01 -0.98819361866E+01  0.24845861198E+02  0.26945043558E+02  0.51100000000E-03 0.  1.
         12    1    3    3    0    0 -0.37135353348E+00  0.14245053487E+02 -0.24389313057E+02  0.28247089118E+02  0.00000000000E+00 0. -1.
</event>
<event>
 7    1  0.2655561E-013  0.7246151E+02  0.7816164E-02  0.1226708E+00
        -11   -1    0    0    0    0  0.00000000000E+00  0.00000000000E+00  0.45593999997E+02  0.45594000000E+02  0.51100000000E-03 0.  1.
         11   -1    0    0    0    0 -0.00000000000E+00 -0.00000000000E+00 -0.45593999997E+02  0.45594000000E+02  0.51100000000E-03 0. -1.
    9900012    2    1    2    0    0  0.18232976373E+02  0.37685958683E+00  0.42541595104E+01  0.72461512777E+02  0.69999925074E+02 0.  0.
        -12    1    1    2    0    0 -0.18232976373E+02 -0.37685958683E+00 -0.42541595104E+01  0.18726487223E+02  0.00000000000E+00 0.  1.
         11    1    3    3    0    0  0.48280531780E+00 -0.11491647047E+02 -0.55301376356E+01  0.12762189286E+02  0.51100000000E-03 0. -1.
        -11    1    3    3    0    0 -0.33108575735E+01 -0.15401225925E+02 -0.11225216924E+02  0.19343345964E+02  0.51100000000E-03 0.  1.
        -12    1    3    3    0    0  0.21061028628E+02  0.27269732559E+02  0.21009514070E+02  0.40355977527E+02  0.00000000000E+00 0.  1.
</event>
<event>
 7    1  0.3792481E-013  0.7246153E+02  0.7816164E-02  0.1226708E+00
        -11   -1    0    0    0    0  0.00000000000E+00  0.00000000000E+00  0.45593999997E+02  0.45594000000E+02  0.51100000000E-03 0.  1.
         11   -1    0    0    0    0 -0.00000000000E+00 -0.00000000000E+00 -0.45593999997E+02  0.45594000000E+02  0.51100000000E-03 0. -1.
    9900012    2    1    2    0    0  0.14313482829E+02 -0.12430392260E+01  0.12010813337E+02  0.72461532789E+02  0.69999951142E+02 0.  0.
        -12    1    1    2    0    0 -0.14313482829E+02  0.12430392260E+01 -0.12010813337E+02  0.18726467211E+02  0.00000000000E+00 0.  1.
         11    1    3    3    0    0  0.46385370351E+01 -0.25641089135E+02  0.12661828194E+02  0.28970733013E+02  0.51100000000E-03 0. -1.
        -11    1    3    3    0    0  0.10950784808E+02  0.14466176650E+01 -0.13271826139E+02  0.17267129463E+02  0.51100000000E-03 0.  1.
        -12    1    3    3    0    0 -0.12758390149E+01  0.22951432244E+02  0.12620811282E+02  0.26223670312E+02  0.00000000000E+00 0.  1.
</event>
<event>
 7    1  0.2978594E-013  0.7246160E+02  0.7816164E-02  0.1226708E+00
        -11   -1    0    0    0    0  0.00000000000E+00  0.00000000000E+00  0.45593999997E+02  0.45594000000E+02  0.51100000000E-03 0. -1.
         11   -1    0    0    0    0 -0.00000000000E+00 -0.00000000000E+00 -0.45593999997E+02  0.45594000000E+02  0.51100000000E-03 0.  1.
    9900012    2    1    2    0    0 -0.13113086059E+02  0.13208523650E+02  0.20639537803E+01  0.72461600767E+02  0.70000039697E+02 0.  0.
        -12    1    1    2    0    0  0.13113086059E+02 -0.13208523650E+02 -0.20639537803E+01  0.18726399233E+02  0.00000000000E+00 0.  1.
         11    1    3    3    0    0 -0.21772918863E+02  0.24514554995E+02 -0.16608189669E+02  0.36753984366E+02  0.51100000000E-03 0. -1.
        -11    1    3    3    0    0  0.11943750841E+02 -0.11264326797E+02 -0.33280321255E+00  0.16420992679E+02  0.51100000000E-03 0.  1.
        -12    1    3    3    0    0 -0.32839180373E+01 -0.41704547908E-01  0.19004946662E+02  0.19286623722E+02  0.00000000000E+00 0.  1.
</event>
<event>
 7    1  0.2655561E-013  0.7246158E+02  0.7816164E-02  0.1226708E+00
        -11   -1    0    0    0    0  0.00000000000E+00  0.00000000000E+00  0.45593999997E+02  0.45594000000E+02  0.51100000000E-03 0. -1.
         11   -1    0    0    0    0 -0.00000000000E+00 -0.00000000000E+00 -0.45593999997E+02  0.45594000000E+02  0.51100000000E-03 0.  1.
    9900012    2    1    2    0    0 -0.10502589393E+02 -0.95565751621E+00  0.15474535232E+02  0.72461577333E+02  0.70000009169E+02 0.  0.
        -12    1    1    2    0    0  0.10502589393E+02  0.95565751621E+00 -0.15474535232E+02  0.18726422667E+02  0.00000000000E+00 0.  1.
         11    1    3    3    0    0 -0.13641002780E+02 -0.17669558910E+02  0.14898260242E+02  0.26837444503E+02  0.51100000000E-03 0. -1.
        -11    1    3    3    0    0  0.21271831712E+01 -0.73286593421E+01 -0.15090143640E+02  0.16909955391E+02  0.51100000000E-03 0.  1.
         12    1    3    3    0    0  0.10112302160E+01  0.24042560736E+02  0.15666418630E+02  0.28714177439E+02  0.00000000000E+00 0. -1.
</event>
<event>
 7    1  0.2655561E-013  0.7246157E+02  0.7816164E-02  0.1226708E+00
        -11   -1    0    0    0    0  0.00000000000E+00  0.00000000000E+00  0.45593999997E+02  0.45594000000E+02  0.51100000000E-03 0.  1.
         11   -1    0    0    0    0 -0.00000000000E+00 -0.00000000000E+00 -0.45593999997E+02  0.45594000000E+02  0.51100000000E-03 0. -1.
    9900012    2    1    2    0    0  0.26853522418E+01  0.16285102061E+02 -0.88466740556E+01  0.72461566607E+02  0.69999995196E+02 0.  0.
        -12    1    1    2    0    0 -0.26853522418E+01 -0.16285102061E+02  0.88466740556E+01  0.18726433393E+02  0.00000000000E+00 0.  1.
         11    1    3    3    0    0 -0.63599297814E+01  0.77435736835E+01 -0.61201956510E+00  0.10039233458E+02  0.51100000000E-03 0. -1.
        -11    1    3    3    0    0 -0.71931895397E+01  0.32098184159E+02 -0.99504030557E+00  0.32909352888E+02  0.51100000000E-03 0.  1.
         12    1    3    3    0    0  0.16238471563E+02 -0.23556655781E+02 -0.72396141850E+01  0.29512980260E+02  0.00000000000E+00 0. -1.
</event>
<event>
 7    1  0.2655561E-013  0.7246162E+02  0.7816164E-02  0.1226708E+00
        -11   -1    0    0    0    0  0.00000000000E+00  0.00000000000E+00  0.45593999997E+02  0.45594000000E+02  0.51100000000E-03 0.  1.
         11   -1    0    0    0    0 -0.00000000000E+00 -0.00000000000E+00 -0.45593999997E+02  0.45594000000E+02  0.51100000000E-03 0. -1.
    9900012    2    1    2    0    0 -0.13094433430E+02 -0.25946689437E+01 -0.13133192848E+02  0.72461621595E+02  0.70000066829E+02 0.  0.
        -12    1    1    2    0    0  0.13094433430E+02  0.25946689437E+01  0.13133192848E+02  0.18726378405E+02  0.00000000000E+00 0.  1.
         11    1    3    3    0    0  0.19070975358E+01 -0.82582961228E+01  0.18974071657E+02  0.20781045964E+02  0.51100000000E-03 0.  1.
        -11    1    3    3    0    0 -0.14893807229E+02  0.59919520479E+01  0.32015575984E+01  0.16370062750E+02  0.51100000000E-03 0. -1.
         12    1    3    3    0    0 -0.10772373714E+00 -0.32832486882E+00 -0.35308822103E+02  0.35310512881E+02  0.00000000000E+00 0. -1.
</event>
<event>
 7    1  0.2655561E-013  0.7246141E+02  0.7816164E-02  0.1226708E+00
        -11   -1    0    0    0    0  0.00000000000E+00  0.00000000000E+00  0.45593999997E+02  0.45594000000E+02  0.51100000000E-03 0.  1.
         11   -1    0    0    0    0 -0.00000000000E+00 -0.00000000000E+00 -0.45593999997E+02  0.45594000000E+02  0.51100000000E-03 0. -1.
    9900012    2    1    2    0    0 -0.18399580171E+02 -0.17585365037E+01 -0.30080354234E+01  0.72461407191E+02  0.69999787528E+02 0.  0.
        -12    1    1    2    0    0  0.18399580171E+02  0.17585365037E+01  0.30080354234E+01  0.18726592809E+02  0.00000000000E+00 0.  1.
         11    1    3    3    0    0  0.14511711809E+02  0.32259313669E+01 -0.22251779243E+02  0.26760756577E+02  0.51100000000E-03 0. -1.
        -11    1    3    3    0    0  0.97986004168E+00 -0.49206283884E+01 -0.23233725002E+01  0.55290839634E+01  0.51100000000E-03 0.  1.
        -12    1    3    3    0    0 -0.33891152022E+02 -0.63839482089E-01  0.21567116320E+02  0.40171566651E+02  0.00000000000E+00 0.  1.
</event>
<event>
 7    1  0.2655561E-013  0.7246157E+02  0.7816164E-02  0.1226708E+00
        -11   -1    0    0    0    0  0.00000000000E+00  0.00000000000E+00  0.45593999997E+02  0.45594000000E+02  0.51100000000E-03 0. -1.
         11   -1    0    0    0    0 -0.00000000000E+00 -0.00000000000E+00 -0.45593999997E+02  0.45594000000E+02  0.51100000000E-03 0.  1.
    9900012    2    1    2    0    0 -0.12776582718E+02 -0.13440935096E+02 -0.26037371685E+01  0.72461568160E+02  0.69999997220E+02 0.  0.
        -12    1    1    2    0    0  0.12776582718E+02  0.13440935096E+02  0.26037371685E+01  0.18726431840E+02  0.00000000000E+00 0.  1.
         11    1    3    3    0    0 -0.12090454525E+02 -0.30773815972E+02  0.20838686424E+02  0.39082703236E+02  0.51100000000E-03 0. -1.
        -11    1    3    3    0    0  0.15402618180E+01 -0.16196952478E+01  0.93308798591E+00  0.24220802245E+01  0.51100000000E-03 0.  1.
        -12    1    3    3    0    0 -0.22263900108E+01  0.18952576124E+02 -0.24375511578E+02  0.30956784699E+02  0.00000000000E+00 0.  1.
</event>
<event>
 7    1  0.2655561E-013  0.7246158E+02  0.7816164E-02  0.1226708E+00
        -11   -1    0    0    0    0  0.00000000000E+00  0.00000000000E+00  0.45593999997E+02  0.45594000000E+02  0.51100000000E-03 0.  1.
         11   -1    0    0    0    0 -0.00000000000E+00 -0.00000000000E+00 -0.45593999997E+02  0.45594000000E+02  0.51100000000E-03 0. -1.
    9900012    2    1    2    0    0 -0.13670749427E+02  0.12510601311E+02  0.26970995850E+01  0.72461577992E+02  0.70000010028E+02 0.  0.
        -12    1    1    2    0    0  0.13670749427E+02 -0.12510601311E+02 -0.26970995850E+01  0.18726422008E+02  0.00000000000E+00 0.  1.
         11    1    3    3    0    0 -0.85344066566E+01  0.19899207520E+02 -0.89898122754E+01  0.23444216385E+02  0.51100000000E-03 0. -1.
        -11    1    3    3    0    0 -0.93335012394E+01  0.14891238379E+02 -0.76995447959E+01  0.19187136737E+02  0.51100000000E-03 0.  1.
        -12    1    3    3    0    0  0.41971584694E+01 -0.22279844589E+02  0.19386456656E+02  0.29830224870E+02  0.00000000000E+00 0.  1.
</event>
<event>
 7    1  0.2655561E-013  0.7246155E+02  0.7816164E-02  0.1226708E+00
        -11   -1    0    0    0    0  0.00000000000E+00  0.00000000000E+00  0.45593999997E+02  0.45594000000E+02  0.51100000000E-03 0.  1.
         11   -1    0    0    0    0 -0.00000000000E+00 -0.00000000000E+00 -0.45593999997E+02  0.45594000000E+02  0.51100000000E-03 0. -1.
    9900012    2    1    2    0    0 -0.11496792262E+02  0.14455731997E+02  0.30879824340E+01  0.72461546641E+02  0.69999969187E+02 0.  0.
        -12    1    1    2    0    0  0.11496792262E+02 -0.14455731997E+02 -0.30879824340E+01  0.18726453359E+02  0.00000000000E+00 0.  1.
         11    1    3    3    0    0 -0.19540149902E+02  0.11090539403E+02 -0.21987434013E+01  0.22575473312E+02  0.51100000000E-03 0. -1.
        -11    1    3    3    0    0 -0.12563263537E+02 -0.67070535558E+01 -0.13961249410E+02  0.19943335815E+02  0.51100000000E-03 0.  1.
        -12    1    3    3    0    0  0.20606621177E+02  0.10072246151E+02  0.19247975245E+02  0.29942737515E+02  0.00000000000E+00 0.  1.
</event>
<event>
 7    1  0.2655561E-013  0.7246160E+02  0.7816164E-02  0.1226708E+00
        -11   -1    0    0    0    0  0.00000000000E+00  0.00000000000E+00  0.45593999997E+02  0.45594000000E+02  0.51100000000E-03 0.  1.
         11   -1    0    0    0    0 -0.00000000000E+00 -0.00000000000E+00 -0.45593999997E+02  0.45594000000E+02  0.51100000000E-03 0. -1.
    9900012    2    1    2    0    0 -0.15167135062E+02  0.76072630149E+01 -0.79224833062E+01  0.72461596760E+02  0.70000034476E+02 0.  0.
        -12    1    1    2    0    0  0.15167135062E+02 -0.76072630149E+01  0.79224833062E+01  0.18726403240E+02  0.00000000000E+00 0.  1.
         11    1    3    3    0    0 -0.13368553819E+01 -0.21955073545E+01 -0.22392102296E+02  0.22539158821E+02  0.51100000000E-03 0. -1.
        -11    1    3    3    0    0 -0.21162123849E+00 -0.86714240269E+01  0.23659660912E+02  0.25199562158E+02  0.51100000000E-03 0.  1.
         12    1    3    3    0    0 -0.13618658442E+02  0.18474194396E+02 -0.91900419218E+01  0.24722875781E+02  0.00000000000E+00 0. -1.
</event>
<event>
 7    1  0.2655561E-013  0.7246161E+02  0.7816164E-02  0.1226708E+00
        -11   -1    0    0    0    0  0.00000000000E+00  0.00000000000E+00  0.45593999997E+02  0.45594000000E+02  0.51100000000E-03 0.  1.
         11   -1    0    0    0    0 -0.00000000000E+00 -0.00000000000E+00 -0.45593999997E+02  0.45594000000E+02  0.51100000000E-03 0. -1.
    9900012    2    1    2    0    0 -0.10196688862E+02  0.82997733561E+01 -0.13334880738E+02  0.72461608308E+02  0.70000049520E+02 0.  0.
        -12    1    1    2    0    0  0.10196688862E+02 -0.82997733561E+01  0.13334880738E+02  0.18726391692E+02  0.00000000000E+00 0.  1.
         11    1    3    3    0    0  0.98279714361E+01  0.12760443403E+02  0.70992633143E+01  0.17601632829E+02  0.51100000000E-03 0. -1.
        -11    1    3    3    0    0  0.12220071057E+02  0.25147820958E+01  0.47559446310E+01  0.13351901558E+02  0.51100000000E-03 0.  1.
        -12    1    3    3    0    0 -0.32244731354E+02 -0.69754521427E+01 -0.25190088683E+02  0.41508073921E+02  0.00000000000E+00 0.  1.
</event>
<event>
 7    1  0.2655561E-013  0.7246158E+02  0.7816164E-02  0.1226708E+00
        -11   -1    0    0    0    0  0.00000000000E+00  0.00000000000E+00  0.45593999997E+02  0.45594000000E+02  0.51100000000E-03 0. -1.
         11   -1    0    0    0    0 -0.00000000000E+00 -0.00000000000E+00 -0.45593999997E+02  0.45594000000E+02  0.51100000000E-03 0.  1.
    9900012    2    1    2    0    0  0.11927333066E+02 -0.11805592435E+02  0.83093613954E+01  0.72461580865E+02  0.70000013770E+02 0.  0.
        -12    1    1    2    0    0 -0.11927333066E+02  0.11805592435E+02 -0.83093613954E+01  0.18726419135E+02  0.00000000000E+00 0.  1.
         11    1    3    3    0    0  0.99653666712E+01 -0.72398281503E+01  0.14379193236E+02  0.18933695966E+02  0.51100000000E-03 0. -1.
        -11    1    3    3    0    0  0.71058980992E+00  0.23936949068E+02  0.15502664134E+01  0.23997620607E+02  0.51100000000E-03 0.  1.
         12    1    3    3    0    0  0.12513765854E+01 -0.28502713353E+02 -0.76200982539E+01  0.29530264293E+02  0.00000000000E+00 0. -1.
</event>
<event>
 7    1  0.2655561E-013  0.7246137E+02  0.7816164E-02  0.1226709E+00
        -11   -1    0    0    0    0  0.00000000000E+00  0.00000000000E+00  0.45593999997E+02  0.45594000000E+02  0.51100000000E-03 0.  1.
         11   -1    0    0    0    0 -0.00000000000E+00 -0.00000000000E+00 -0.45593999997E+02  0.45594000000E+02  0.51100000000E-03 0. -1.
    9900012    2    1    2    0    0  0.17606948274E+02  0.13305376896E+00 -0.63768735072E+01  0.72461365317E+02  0.69999732978E+02 0.  0.
        -12    1    1    2    0    0 -0.17606948274E+02 -0.13305376896E+00  0.63768735072E+01  0.18726634683E+02  0.00000000000E+00 0.  1.
         11    1    3    3    0    0  0.11997322551E+02 -0.41534896828E+01  0.47753374916E+01  0.13564330922E+02  0.51100000000E-03 0. -1.
        -11    1    3    3    0    0  0.94265065656E+01 -0.29668211618E+01  0.22333792768E+02  0.24422517345E+02  0.51100000000E-03 0.  1.
         12    1    3    3    0    0 -0.38168808421E+01  0.72533646136E+01 -0.33486003766E+02  0.34474517050E+02  0.00000000000E+00 0. -1.
</event>
<event>
 7    1  0.2655561E-013  0.7246161E+02  0.7816164E-02  0.1226708E+00
        -11   -1    0    0    0    0  0.00000000000E+00  0.00000000000E+00  0.45593999997E+02  0.45594000000E+02  0.51100000000E-03 0.  1.
         11   -1    0    0    0    0 -0.00000000000E+00 -0.00000000000E+00 -0.45593999997E+02  0.45594000000E+02  0.51100000000E-03 0. -1.
    9900012    2    1    2    0    0 -0.14490839073E+02  0.95146317669E+01 -0.70827225126E+01  0.72461612391E+02  0.70000054838E+02 0.  0.
        -12    1    1    2    0    0  0.14490839073E+02 -0.95146317669E+01  0.70827225126E+01  0.18726387609E+02  0.00000000000E+00 0.  1.
         11    1    3    3    0    0  0.10492641874E+01 -0.23106937285E+01 -0.43260181975E+01  0.50154455982E+01  0.51100000000E-03 0. -1.
        -11    1    3    3    0    0 -0.12660297766E+02  0.21983891442E+02 -0.29373165426E+02  0.38811821264E+02  0.51100000000E-03 0.  1.
        -12    1    3    3    0    0 -0.28798054946E+01 -0.10158565947E+02  0.26616461111E+02  0.28634345528E+02  0.00000000000E+00 0.  1.
</event>
<event>
 7    1  0.2655561E-013  0.7246164E+02  0.7816164E-02  0.1226708E+00
        -11   -1    0    0    0    0  0.00000000000E+00  0.00000000000E+00  0.45593999997E+02  0.45594000000E+02  0.51100000000E-03 0. -1.
         11   -1    0    0    0    0 -0.00000000000E+00 -0.00000000000E+00 -0.45593999997E+02  0.45594000000E+02  0.51100000000E-03 0.  1.
    9900012    2    1    2    0    0  0.16367319679E+02 -0.36258873963E+00 -0.90915381201E+01  0.72461636513E+02  0.70000086262E+02 0.  0.
        -12    1    1    2    0    0 -0.16367319679E+02  0.36258873963E+00  0.90915381201E+01  0.18726363487E+02  0.00000000000E+00 0.  1.
         11    1    3    3    0    0 -0.23224434866E+02 -0.53510458968E+00  0.15085179561E+01  0.23279526165E+02  0.51100000000E-03 0. -1.
        -11    1    3    3    0    0 -0.79107593827E+00  0.68527413169E+01 -0.31268975408E+01  0.75738598606E+01  0.51100000000E-03 0.  1.
        -12    1    3    3    0    0  0.40382830483E+02 -0.66802254668E+01 -0.74731585354E+01  0.41608250487E+02  0.00000000000E+00 0.  1.
</event>
<event>
 7    1  0.2655561E-013  0.7246159E+02  0.7816164E-02  0.1226708E+00
        -11   -1    0    0    0    0  0.00000000000E+00  0.00000000000E+00  0.45593999997E+02  0.45594000000E+02  0.51100000000E-03 0. -1.
         11   -1    0    0    0    0 -0.00000000000E+00 -0.00000000000E+00 -0.45593999997E+02  0.45594000000E+02  0.51100000000E-03 0.  1.
    9900012    2    1    2    0    0  0.75993893961E+01  0.15652752841E+02  0.69223689078E+01  0.72461585981E+02  0.70000020435E+02 0.  0.
        -12    1    1    2    0    0 -0.75993893961E+01 -0.15652752841E+02 -0.69223689078E+01  0.18726414019E+02  0.00000000000E+00 0.  1.
         11    1    3    3    0    0 -0.10285278633E+01  0.30290977393E+01  0.79070247329E+01  0.85296156460E+01  0.51100000000E-03 0. -1.
        -11    1    3    3    0    0 -0.12563622411E+02  0.32510230281E+02  0.18137293528E-01  0.34853407441E+02  0.51100000000E-03 0.  1.
         12    1    3    3    0    0  0.21191539671E+02 -0.19886575179E+02 -0.10027931186E+01  0.29078562894E+02  0.00000000000E+00 0. -1.
</event>
<event>
 7    1  0.2655561E-013  0.7246159E+02  0.7816164E-02  0.1226708E+00
        -11   -1    0    0    0    0  0.00000000000E+00  0.00000000000E+00  0.45593999997E+02  0.45594000000E+02  0.51100000000E-03 0.  1.
         11   -1    0    0    0    0 -0.00000000000E+00 -0.00000000000E+00 -0.45593999997E+02  0.45594000000E+02  0.51100000000E-03 0. -1.
    9900012    2    1    2    0    0  0.12707896144E+02 -0.13390391627E+02 -0.31440804186E+01  0.72461589399E+02  0.70000024887E+02 0.  0.
        -12    1    1    2    0    0 -0.12707896144E+02  0.13390391627E+02  0.31440804186E+01  0.18726410601E+02  0.00000000000E+00 0.  1.
         11    1    3    3    0    0  0.17310817161E+02  0.12429591223E+02 -0.65802429423E+01  0.22303782778E+02  0.51100000000E-03 0. -1.
        -11    1    3    3    0    0 -0.54985255222E+01 -0.53838422605E+01 -0.18576842849E+02  0.20107675920E+02  0.51100000000E-03 0.  1.
        -12    1    3    3    0    0  0.89560450508E+00 -0.20436140590E+02  0.22013005373E+02  0.30050130701E+02  0.00000000000E+00 0.  1.
</event>
<event>
 7    1  0.2655561E-013  0.7246158E+02  0.7816164E-02  0.1226708E+00
        -11   -1    0    0    0    0  0.00000000000E+00  0.00000000000E+00  0.45593999997E+02  0.45594000000E+02  0.51100000000E-03 0. -1.
         11   -1    0    0    0    0 -0.00000000000E+00 -0.00000000000E+00 -0.45593999997E+02  0.45594000000E+02  0.51100000000E-03 0.  1.
    9900012    2    1    2    0    0  0.10480076340E+02 -0.13393533133E+02 -0.78396425235E+01  0.72461582169E+02  0.70000015469E+02 0.  0.
        -12    1    1    2    0    0 -0.10480076340E+02  0.13393533133E+02  0.78396425235E+01  0.18726417831E+02  0.00000000000E+00 0.  1.
         11    1    3    3    0    0  0.15715347452E+02  0.18085329521E+01  0.24042853890E+02  0.28780232112E+02  0.51100000000E-03 0. -1.
        -11    1    3    3    0    0  0.54773525524E+01 -0.12216467083E+02 -0.44958546370E+01  0.14122895176E+02  0.51100000000E-03 0.  1.
        -12    1    3    3    0    0 -0.10712623664E+02 -0.29855990024E+01 -0.27386641776E+02  0.29558454881E+02  0.00000000000E+00 0.  1.
</event>
<event>
 7    1  0.2655561E-013  0.7246158E+02  0.7816164E-02  0.1226708E+00
        -11   -1    0    0    0    0  0.00000000000E+00  0.00000000000E+00  0.45593999997E+02  0.45594000000E+02  0.51100000000E-03 0.  1.
         11   -1    0    0    0    0 -0.00000000000E+00 -0.00000000000E+00 -0.45593999997E+02  0.45594000000E+02  0.51100000000E-03 0. -1.
    9900012    2    1    2    0    0 -0.55676866247E+01 -0.17003293172E+02 -0.55288023428E+01  0.72461581005E+02  0.70000013953E+02 0.  0.
        -12    1    1    2    0    0  0.55676866247E+01  0.17003293172E+02  0.55288023428E+01  0.18726418995E+02  0.00000000000E+00 0.  1.
         11    1    3    3    0    0 -0.14010707640E+02 -0.19101332015E+02  0.94369045240E+01  0.25499332944E+02  0.51100000000E-03 0. -1.
        -11    1    3    3    0    0 -0.75524515661E+01  0.53129604418E+01  0.12183742375E+02  0.15287597975E+02  0.51100000000E-03 0.  1.
         12    1    3    3    0    0  0.15995472582E+02 -0.32149215986E+01 -0.27149449242E+02  0.31674650087E+02  0.00000000000E+00 0. -1.
</event>
<event>
 7    1  0.2655561E-013  0.7246167E+02  0.7816164E-02  0.1226708E+00
        -11   -1    0    0    0    0  0.00000000000E+00  0.00000000000E+00  0.45593999997E+02  0.45594000000E+02  0.51100000000E-03 0. -1.
         11   -1    0    0    0    0 -0.00000000000E+00 -0.00000000000E+00 -0.45593999997E+02  0.45594000000E+02  0.51100000000E-03 0.  1.
    9900012    2    1    2    0    0  0.29919575556E+01  0.18348063253E+02  0.22521174622E+01  0.72461674461E+02  0.70000135696E+02 0.  0.
        -12    1    1    2    0    0 -0.29919575556E+01 -0.18348063253E+02 -0.22521174622E+01  0.18726325539E+02  0.00000000000E+00 0.  1.
         11    1    3    3    0    0 -0.10882628320E+02 -0.79112719373E+01 -0.18265222411E+01  0.13577776202E+02  0.51100000000E-03 0. -1.
        -11    1    3    3    0    0 -0.32803484715E+01 -0.51519589760E+01 -0.16503401924E+02  0.17597319191E+02  0.51100000000E-03 0.  1.
         12    1    3    3    0    0  0.17154934347E+02  0.31411294166E+02  0.20582041627E+02  0.41286579068E+02  0.00000000000E+00 0. -1.
</event>
<event>
 7    1  0.2655561E-013  0.7246165E+02  0.7816164E-02  0.1226708E+00
        -11   -1    0    0    0    0  0.00000000000E+00  0.00000000000E+00  0.45593999997E+02  0.45594000000E+02  0.51100000000E-03 0. -1.
         11   -1    0    0    0    0 -0.00000000000E+00 -0.00000000000E+00 -0.45593999997E+02  0.45594000000E+02  0.51100000000E-03 0.  1.
    9900012    2    1    2    0    0  0.10359588538E+02 -0.13304806868E+02 -0.81447561313E+01  0.72461654577E+02  0.70000109793E+02 0.  0.
        -12    1    1    2    0    0 -0.10359588538E+02  0.13304806868E+02  0.81447561313E+01  0.18726345423E+02  0.00000000000E+00 0.  1.
         11    1    3    3    0    0 -0.16006826806E+02 -0.20059901967E+02 -0.13495198847E+02  0.28995492124E+02  0.51100000000E-03 0.  1.
        -11    1    3    3    0    0  0.10763606329E+02 -0.87262376328E+01 -0.96233393727E+01  0.16870421020E+02  0.51100000000E-03 0. -1.
        -12    1    3    3    0    0  0.15602809015E+02  0.15481332732E+02  0.14973782089E+02  0.26595741432E+02  0.00000000000E+00 0.  1.
</event>
<event>
 7    1  0.2655561E-013  0.7246155E+02  0.7816164E-02  0.1226708E+00
        -11   -1    0    0    0    0  0.00000000000E+00  0.00000000000E+00  0.45593999997E+02  0.45594000000E+02  0.51100000000E-03 0. -1.
         11   -1    0    0    0    0 -0.00000000000E+00 -0.00000000000E+00 -0.45593999997E+02  0.45594000000E+02  0.51100000000E-03 0.  1.
    9900012    2    1    2    0    0  0.12188732637E+02 -0.60892347901E+01  0.12846624727E+02  0.72461554782E+02  0.69999979792E+02 0.  0.
        -12    1    1    2    0    0 -0.12188732637E+02  0.60892347901E+01 -0.12846624727E+02  0.18726445218E+02  0.00000000000E+00 0.  1.
         11    1    3    3    0    0 -0.91218505620E+01 -0.65703402285E+01  0.71735984744E+01  0.13335593115E+02  0.51100000000E-03 0. -1.
        -11    1    3    3    0    0  0.24758950123E+02  0.23536236033E+02 -0.29099412397E+01  0.34284512189E+02  0.51100000000E-03 0.  1.
         12    1    3    3    0    0 -0.34483669239E+01 -0.23055130594E+02  0.85829674925E+01  0.24841449477E+02  0.00000000000E+00 0. -1.
</event>
<event>
 7    1  0.2655561E-013  0.7246158E+02  0.7816164E-02  0.1226708E+00
        -11   -1    0    0    0    0  0.00000000000E+00  0.00000000000E+00  0.45593999997E+02  0.45594000000E+02  0.51100000000E-03 0.  1.
         11   -1    0    0    0    0 -0.00000000000E+00 -0.00000000000E+00 -0.45593999997E+02  0.45594000000E+02  0.51100000000E-03 0. -1.
    9900012    2    1    2    0    0  0.78695186714E+01 -0.16035943652E+02  0.56212169054E+01  0.72461577693E+02  0.70000009638E+02 0.  0.
        -12    1    1    2    0    0 -0.78695186714E+01  0.16035943652E+02 -0.56212169054E+01  0.18726422307E+02  0.00000000000E+00 0.  1.
         11    1    3    3    0    0  0.11001130118E+02 -0.19185274748E+02 -0.15727991779E+01  0.22171453009E+02  0.51100000000E-03 0. -1.
        -11    1    3    3    0    0  0.12687624246E+02 -0.23745201293E+01  0.23562237486E+02  0.26866209082E+02  0.51100000000E-03 0.  1.
        -12    1    3    3    0    0 -0.15819235692E+02  0.55238512247E+01 -0.16368221402E+02  0.23423915602E+02  0.00000000000E+00 0.  1.
</event>
<event>
 7    1  0.2655561E-013  0.7246147E+02  0.7816164E-02  0.1226708E+00
        -11   -1    0    0    0    0  0.00000000000E+00  0.00000000000E+00  0.45593999997E+02  0.45594000000E+02  0.51100000000E-03 0.  1.
         11   -1    0    0    0    0 -0.00000000000E+00 -0.00000000000E+00 -0.45593999997E+02  0.45594000000E+02  0.51100000000E-03 0. -1.
    9900012    2    1    2    0    0 -0.21163195577E+01  0.47298584567E+01 -0.17995353019E+02  0.72461465356E+02  0.69999863299E+02 0.  0.
        -12    1    1    2    0    0  0.21163195577E+01 -0.47298584567E+01  0.17995353019E+02  0.18726534644E+02  0.00000000000E+00 0.  1.
         11    1    3    3    0    0  0.16118287267E+00  0.35839366222E+01  0.21423042658E+01  0.41785224014E+01  0.51100000000E-03 0. -1.
        -11    1    3    3    0    0  0.16479198563E+02  0.25713860590E+02  0.14589178711E+01  0.30576053593E+02  0.51100000000E-03 0.  1.
         12    1    3    3    0    0 -0.18756700993E+02 -0.24567938756E+02 -0.21596575156E+02  0.37706889361E+02  0.00000000000E+00 0. -1.
</event>
<event>
 7    1  0.2655561E-013  0.7246155E+02  0.7816164E-02  0.1226708E+00
        -11   -1    0    0    0    0  0.00000000000E+00  0.00000000000E+00  0.45593999997E+02  0.45594000000E+02  0.51100000000E-03 0. -1.
         11   -1    0    0    0    0 -0.00000000000E+00 -0.00000000000E+00 -0.45593999997E+02  0.45594000000E+02  0.51100000000E-03 0.  1.
    9900012    2    1    2    0    0 -0.57130025006E+01 -0.12990130939E+02 -0.12218760443E+02  0.72461547957E+02  0.69999970901E+02 0.  0.
        -12    1    1    2    0    0  0.57130025006E+01  0.12990130939E+02  0.12218760443E+02  0.18726452043E+02  0.00000000000E+00 0.  1.
         11    1    3    3    0    0 -0.10272260884E+02 -0.84209725474E+01  0.15735407550E+02  0.20592114348E+02  0.51100000000E-03 0. -1.
        -11    1    3    3    0    0 -0.18593255268E+02 -0.80467718711E+01 -0.13753550509E+02  0.24487136028E+02  0.51100000000E-03 0.  1.
         12    1    3    3    0    0  0.23152513651E+02  0.34776134800E+01 -0.14200617484E+02  0.27382297581E+02  0.00000000000E+00 0. -1.
</event>
<event>
 7    1  0.2655561E-013  0.7246155E+02  0.7816164E-02  0.1226708E+00
        -11   -1    0    0    0    0  0.00000000000E+00  0.00000000000E+00  0.45593999997E+02  0.45594000000E+02  0.51100000000E-03 0.  1.
         11   -1    0    0    0    0 -0.00000000000E+00 -0.00000000000E+00 -0.45593999997E+02  0.45594000000E+02  0.51100000000E-03 0. -1.
    9900012    2    1    2    0    0  0.60922700262E+01  0.39820788260E+01 -0.17254192694E+02  0.72461551555E+02  0.69999975588E+02 0.  0.
        -12    1    1    2    0    0 -0.60922700262E+01 -0.39820788260E+01  0.17254192694E+02  0.18726448445E+02  0.00000000000E+00 0.  1.
         11    1    3    3    0    0 -0.24215362155E+02 -0.63913228850E+01 -0.17146851144E+02  0.30352055564E+02  0.51100000000E-03 0. -1.
        -11    1    3    3    0    0 -0.23391400925E+01 -0.29066536860E+01  0.52701682807E+01  0.64571577331E+01  0.51100000000E-03 0.  1.
        -12    1    3    3    0    0  0.32646772274E+02  0.13280055397E+02 -0.53775098304E+01  0.35652338257E+02  0.00000000000E+00 0.  1.
</event>
<event>
 7    1  0.2655561E-013  0.7246141E+02  0.7816164E-02  0.1226708E+00
        -11   -1    0    0    0    0  0.00000000000E+00  0.00000000000E+00  0.45593999997E+02  0.45594000000E+02  0.51100000000E-03 0. -1.
         11   -1    0    0    0    0 -0.00000000000E+00 -0.00000000000E+00 -0.45593999997E+02  0.45594000000E+02  0.51100000000E-03 0.  1.
    9900012    2    1    2    0    0  0.13889661647E+02  0.97241785861E+01  0.79500308331E+01  0.72461405539E+02  0.69999785375E+02 0.  0.
        -12    1    1    2    0    0 -0.13889661647E+02 -0.97241785861E+01 -0.79500308331E+01  0.18726594461E+02  0.00000000000E+00 0.  1.
         11    1    3    3    0    0  0.56249619900E+00 -0.26424360128E+01  0.77061518007E+01  0.81660055040E+01  0.51100000000E-03 0. -1.
        -11    1    3    3    0    0  0.67308147505E+01 -0.17672968129E+02 -0.19961048185E+02  0.27496929185E+02  0.51100000000E-03 0.  1.
         12    1    3    3    0    0  0.65963506978E+01  0.30039582728E+02  0.20204927218E+02  0.36798470850E+02  0.00000000000E+00 0. -1.
</event>
<event>
 7    1  0.2655561E-013  0.7246095E+02  0.7816164E-02  0.1226710E+00
        -11   -1    0    0    0    0  0.00000000000E+00  0.00000000000E+00  0.45593999997E+02  0.45594000000E+02  0.51100000000E-03 0. -1.
         11   -1    0    0    0    0 -0.00000000000E+00 -0.00000000000E+00 -0.45593999997E+02  0.45594000000E+02  0.51100000000E-03 0.  1.
    9900012    2    1    2    0    0  0.33388259035E+00 -0.11401207075E+02  0.14852717981E+02  0.72460954537E+02  0.69999197858E+02 0.  0.
        -12    1    1    2    0    0 -0.33388259035E+00  0.11401207075E+02 -0.14852717981E+02  0.18727045463E+02  0.00000000000E+00 0.  1.
         11    1    3    3    0    0 -0.14976487940E+02 -0.25157023080E+02  0.11928851144E+02  0.31614371592E+02  0.51100000000E-03 0. -1.
        -11    1    3    3    0    0  0.14231876474E+02 -0.64649003194E+01  0.10928037659E+02  0.19072578521E+02  0.51100000000E-03 0.  1.
        -12    1    3    3    0    0  0.10784940560E+01  0.20220716325E+02 -0.80041708225E+01  0.21774004424E+02  0.00000000000E+00 0.  1.
</event>
<event>
 7    1  0.2655561E-013  0.7246165E+02  0.7816164E-02  0.1226708E+00
        -11   -1    0    0    0    0  0.00000000000E+00  0.00000000000E+00  0.45593999997E+02  0.45594000000E+02  0.51100000000E-03 0. -1.
         11   -1    0    0    0    0 -0.00000000000E+00 -0.00000000000E+00 -0.45593999997E+02  0.45594000000E+02  0.51100000000E-03 0.  1.
    9900012    2    1    2    0    0  0.77492965682E+01 -0.14475406795E+01  0.16986149871E+02  0.72461648012E+02  0.70000101242E+02 0.  0.
        -12    1    1    2    0    0 -0.77492965682E+01  0.14475406795E+01 -0.16986149871E+02  0.18726351988E+02  0.00000000000E+00 0.  1.
         11    1    3    3    0    0  0.32033988034E+01  0.39160847801E+01 -0.20223656280E+02  0.20846912421E+02  0.51100000000E-03 0. -1.
        -11    1    3    3    0    0  0.64536800087E-02  0.13569123290E+02  0.60143258674E+01  0.14842279623E+02  0.51100000000E-03 0.  1.
         12    1    3    3    0    0  0.45394440848E+01 -0.18932748750E+02  0.31195480284E+02  0.36772455968E+02  0.00000000000E+00 0. -1.
</event>
<event>
 7    1  0.2655561E-013  0.7246153E+02  0.7816164E-02  0.1226708E+00
        -11   -1    0    0    0    0  0.00000000000E+00  0.00000000000E+00  0.45593999997E+02  0.45594000000E+02  0.51100000000E-03 0.  1.
         11   -1    0    0    0    0 -0.00000000000E+00 -0.00000000000E+00 -0.45593999997E+02  0.45594000000E+02  0.51100000000E-03 0. -1.
    9900012    2    1    2    0    0  0.17791480984E+02  0.41436346858E+01 -0.41199512535E+01  0.72461534708E+02  0.69999953642E+02 0.  0.
        -12    1    1    2    0    0 -0.17791480984E+02 -0.41436346858E+01  0.41199512535E+01  0.18726465292E+02  0.00000000000E+00 0.  1.
         11    1    3    3    0    0 -0.63185460607E+01 -0.21776074937E+01  0.49560860205E+01  0.83203838627E+01  0.51100000000E-03 0. -1.
        -11    1    3    3    0    0 -0.45450410280E+01  0.51014358913E+01 -0.28626526827E+02  0.29430597761E+02  0.51100000000E-03 0.  1.
         12    1    3    3    0    0  0.28655068073E+02  0.12198062882E+01  0.19550489553E+02  0.34710553084E+02  0.00000000000E+00 0. -1.
</event>
<event>
 7    1  0.2655561E-013  0.7246158E+02  0.7816164E-02  0.1226708E+00
        -11   -1    0    0    0    0  0.00000000000E+00  0.00000000000E+00  0.45593999997E+02  0.45594000000E+02  0.51100000000E-03 0.  1.
         11   -1    0    0    0    0 -0.00000000000E+00 -0.00000000000E+00 -0.45593999997E+02  0.45594000000E+02  0.51100000000E-03 0. -1.
    9900012    2    1    2    0    0  0.42083138885E+01 -0.87627573120E+00 -0.18226379253E+02  0.72461583748E+02  0.70000017526E+02 0.  0.
        -12    1    1    2    0    0 -0.42083138885E+01  0.87627573120E+00  0.18226379253E+02  0.18726416252E+02  0.00000000000E+00 0.  1.
         11    1    3    3    0    0 -0.11428024479E+02 -0.14171499551E+01 -0.10456744098E+02  0.15554792023E+02  0.51100000000E-03 0. -1.
        -11    1    3    3    0    0  0.88821945767E+01 -0.82745180439E+01 -0.29831867102E+02  0.32207162626E+02  0.51100000000E-03 0.  1.
        -12    1    3    3    0    0  0.67541437912E+01  0.88153922678E+01  0.22062231946E+02  0.24699629099E+02  0.00000000000E+00 0.  1.
</event>
<event>
 7    1  0.2655561E-013  0.7246163E+02  0.7816164E-02  0.1226708E+00
        -11   -1    0    0    0    0  0.00000000000E+00  0.00000000000E+00  0.45593999997E+02  0.45594000000E+02  0.51100000000E-03 0. -1.
         11   -1    0    0    0    0 -0.00000000000E+00 -0.00000000000E+00 -0.45593999997E+02  0.45594000000E+02  0.51100000000E-03 0.  1.
    9900012    2    1    2    0    0 -0.16077987382E+02 -0.94686312230E+01  0.15875117727E+01  0.72461632250E+02  0.70000080709E+02 0.  0.
        -12    1    1    2    0    0  0.16077987382E+02  0.94686312230E+01 -0.15875117727E+01  0.18726367750E+02  0.00000000000E+00 0.  1.
         11    1    3    3    0    0 -0.40425355562E+01  0.24636841693E+02 -0.13951196215E+02  0.28599859063E+02  0.51100000000E-03 0. -1.
        -11    1    3    3    0    0 -0.87625510554E+00 -0.34091491337E+01  0.10169710269E+02  0.10761650805E+02  0.51100000000E-03 0.  1.
        -12    1    3    3    0    0 -0.11159196720E+02 -0.30696323782E+02  0.53689977184E+01  0.33100122382E+02  0.00000000000E+00 0.  1.
</event>
<event>
 7    1  0.2655561E-013  0.7246150E+02  0.7816164E-02  0.1226708E+00
        -11   -1    0    0    0    0  0.00000000000E+00  0.00000000000E+00  0.45593999997E+02  0.45594000000E+02  0.51100000000E-03 0. -1.
         11   -1    0    0    0    0 -0.00000000000E+00 -0.00000000000E+00 -0.45593999997E+02  0.45594000000E+02  0.51100000000E-03 0.  1.
    9900012    2    1    2    0    0 -0.23817353448E+01  0.19867311424E+01  0.18467864290E+02  0.72461500719E+02  0.69999909365E+02 0.  0.
        -12    1    1    2    0    0  0.23817353448E+01 -0.19867311424E+01 -0.18467864290E+02  0.18726499281E+02  0.00000000000E+00 0.  1.
         11    1    3    3    0    0 -0.90885260888E+01  0.98578851331E+01  0.23920990493E+02  0.27422490627E+02  0.51100000000E-03 0. -1.
        -11    1    3    3    0    0 -0.50033986427E+01 -0.18237060404E+02  0.11372938352E+02  0.22067353651E+02  0.51100000000E-03 0.  1.
         12    1    3    3    0    0  0.11710189387E+02  0.10365906413E+02 -0.16826064555E+02  0.22971656441E+02  0.00000000000E+00 0. -1.
</event>
<event>
 7    1  0.2655561E-013  0.7246154E+02  0.7816164E-02  0.1226708E+00
        -11   -1    0    0    0    0  0.00000000000E+00  0.00000000000E+00  0.45593999997E+02  0.45594000000E+02  0.51100000000E-03 0.  1.
         11   -1    0    0    0    0 -0.00000000000E+00 -0.00000000000E+00 -0.45593999997E+02  0.45594000000E+02  0.51100000000E-03 0. -1.
    9900012    2    1    2    0    0  0.13356211549E+02 -0.58089762715E+01 -0.11770637056E+02  0.72461535065E+02  0.69999954107E+02 0.  0.
        -12    1    1    2    0    0 -0.13356211549E+02  0.58089762715E+01  0.11770637056E+02  0.18726464935E+02  0.00000000000E+00 0.  1.
         11    1    3    3    0    0  0.10756144806E+02 -0.48745258117E+00 -0.20046242889E+02  0.22754870145E+02  0.51100000000E-03 0. -1.
        -11    1    3    3    0    0  0.22096927350E+02  0.86721381937E+01  0.97508374044E+01  0.25662404593E+02  0.51100000000E-03 0.  1.
         12    1    3    3    0    0 -0.19496860607E+02 -0.13993661884E+02 -0.14752315714E+01  0.24044260326E+02  0.00000000000E+00 0. -1.
</event>
<event>
 7    1  0.2655561E-013  0.7246122E+02  0.7816164E-02  0.1226709E+00
        -11   -1    0    0    0    0  0.00000000000E+00  0.00000000000E+00  0.45593999997E+02  0.45594000000E+02  0.51100000000E-03 0.  1.
         11   -1    0    0    0    0 -0.00000000000E+00 -0.00000000000E+00 -0.45593999997E+02  0.45594000000E+02  0.51100000000E-03 0. -1.
    9900012    2    1    2    0    0 -0.16276063720E+02 -0.92460427757E+01  0.54107274165E+00  0.72461219258E+02  0.69999542709E+02 0.  0.
        -12    1    1    2    0    0  0.16276063720E+02  0.92460427757E+01 -0.54107274165E+00  0.18726780742E+02  0.00000000000E+00 0.  1.
         11    1    3    3    0    0 -0.10521849721E+02 -0.28161304552E+02 -0.14285790710E+02  0.33284413951E+02  0.51100000000E-03 0. -1.
        -11    1    3    3    0    0  0.62233319698E+01 -0.59113640622E+01  0.22199185690E+01  0.88657839245E+01  0.51100000000E-03 0.  1.
        -12    1    3    3    0    0 -0.11977545969E+02  0.24826625839E+02  0.12606944882E+02  0.30311021382E+02  0.00000000000E+00 0.  1.
</event>
<event>
 7    1  0.2655561E-013  0.7246164E+02  0.7816164E-02  0.1226708E+00
        -11   -1    0    0    0    0  0.00000000000E+00  0.00000000000E+00  0.45593999997E+02  0.45594000000E+02  0.51100000000E-03 0. -1.
         11   -1    0    0    0    0 -0.00000000000E+00 -0.00000000000E+00 -0.45593999997E+02  0.45594000000E+02  0.51100000000E-03 0.  1.
    9900012    2    1    2    0    0  0.15552219685E+02  0.62590605892E+01  0.83444040657E+01  0.72461642751E+02  0.70000094389E+02 0.  0.
        -12    1    1    2    0    0 -0.15552219685E+02 -0.62590605892E+01 -0.83444040657E+01  0.18726357249E+02  0.00000000000E+00 0.  1.
         11    1    3    3    0    0 -0.65156728155E+01  0.57699848506E+01 -0.23396693411E+01  0.90122566708E+01  0.51100000000E-03 0. -1.
        -11    1    3    3    0    0  0.26731995775E+02 -0.15885659415E+02 -0.13477965696E+02  0.33891139443E+02  0.51100000000E-03 0.  1.
         12    1    3    3    0    0 -0.46641032741E+01  0.16374735154E+02  0.24162039103E+02  0.29558246638E+02  0.00000000000E+00 0. -1.
</event>
<event>
 7    1  0.2655561E-013  0.7246151E+02  0.7816164E-02  0.1226708E+00
        -11   -1    0    0    0    0  0.00000000000E+00  0.00000000000E+00  0.45593999997E+02  0.45594000000E+02  0.51100000000E-03 0.  1.
         11   -1    0    0    0    0 -0.00000000000E+00 -0.00000000000E+00 -0.45593999997E+02  0.45594000000E+02  0.51100000000E-03 0. -1.
    9900012    2    1    2    0    0  0.16414541283E+02  0.79589630357E+01 -0.42307619550E+01  0.72461505270E+02  0.69999915294E+02 0.  0.
        -12    1    1    2    0    0 -0.16414541283E+02 -0.79589630357E+01  0.42307619550E+01  0.18726494730E+02  0.00000000000E+00 0.  1.
         11    1    3    3    0    0 -0.58925441708E+01  0.42450956776E+01 -0.18299318454E+02  0.19687761942E+02  0.51100000000E-03 0. -1.
        -11    1    3    3    0    0  0.68762173288E+01 -0.90112608294E+01 -0.14184742194E+02  0.18157425420E+02  0.51100000000E-03 0.  1.
        -12    1    3    3    0    0  0.15430868125E+02  0.12725128187E+02  0.28253298694E+02  0.34616317909E+02  0.00000000000E+00 0.  1.
</event>
<event>
 7    1  0.2655561E-013  0.7246165E+02  0.7816164E-02  0.1226708E+00
        -11   -1    0    0    0    0  0.00000000000E+00  0.00000000000E+00  0.45593999997E+02  0.45594000000E+02  0.51100000000E-03 0.  1.
         11   -1    0    0    0    0 -0.00000000000E+00 -0.00000000000E+00 -0.45593999997E+02  0.45594000000E+02  0.51100000000E-03 0. -1.
    9900012    2    1    2    0    0 -0.59494956383E+01 -0.16122569435E+02 -0.74392454245E+01  0.72461651823E+02  0.70000106207E+02 0.  0.
        -12    1    1    2    0    0  0.59494956383E+01  0.16122569435E+02  0.74392454245E+01  0.18726348177E+02  0.00000000000E+00 0.  1.
         11    1    3    3    0    0 -0.16775920079E+02  0.12162854374E+02 -0.42887403458E+01  0.21160335892E+02  0.51100000000E-03 0. -1.
        -11    1    3    3    0    0 -0.64331316211E+01  0.27344522251E+00 -0.14652982341E+02  0.16005306823E+02  0.51100000000E-03 0.  1.
        -12    1    3    3    0    0  0.17259556062E+02 -0.28558869032E+02  0.11502477262E+02  0.35296009109E+02  0.00000000000E+00 0.  1.
</event>
<event>
 7    1  0.2655561E-013  0.7246160E+02  0.7816164E-02  0.1226708E+00
        -11   -1    0    0    0    0  0.00000000000E+00  0.00000000000E+00  0.45593999997E+02  0.45594000000E+02  0.51100000000E-03 0. -1.
         11   -1    0    0    0    0 -0.00000000000E+00 -0.00000000000E+00 -0.45593999997E+02  0.45594000000E+02  0.51100000000E-03 0.  1.
    9900012    2    1    2    0    0  0.59484694595E+01  0.17328387211E+02  0.38756561785E+01  0.72461601439E+02  0.70000040572E+02 0.  0.
        -12    1    1    2    0    0 -0.59484694595E+01 -0.17328387211E+02 -0.38756561785E+01  0.18726398561E+02  0.00000000000E+00 0.  1.
         11    1    3    3    0    0  0.89914425049E+01 -0.41416828559E+01  0.36548839265E+01  0.10552618252E+02  0.51100000000E-03 0. -1.
        -11    1    3    3    0    0  0.11909934885E+02  0.11139558415E+02 -0.25588246675E+02  0.30342951056E+02  0.51100000000E-03 0.  1.
        -12    1    3    3    0    0 -0.14952907930E+02  0.10330511652E+02  0.25809018927E+02  0.31566032131E+02  0.00000000000E+00 0.  1.
</event>
<event>
 7    1  0.2655561E-013  0.7246159E+02  0.7816164E-02  0.1226708E+00
        -11   -1    0    0    0    0  0.00000000000E+00  0.00000000000E+00  0.45593999997E+02  0.45594000000E+02  0.51100000000E-03 0.  1.
         11   -1    0    0    0    0 -0.00000000000E+00 -0.00000000000E+00 -0.45593999997E+02  0.45594000000E+02  0.51100000000E-03 0. -1.
    9900012    2    1    2    0    0  0.14595938754E+02  0.21642346396E+01 -0.11530528880E+02  0.72461589881E+02  0.70000025515E+02 0.  0.
        -12    1    1    2    0    0 -0.14595938754E+02 -0.21642346396E+01  0.11530528880E+02  0.18726410119E+02  0.00000000000E+00 0.  1.
         11    1    3    3    0    0 -0.12116277471E+01 -0.14612681794E+01 -0.47501928630E+00  0.19567805378E+01  0.51100000000E-03 0. -1.
        -11    1    3    3    0    0 -0.14659366408E+02 -0.19579140622E+02  0.10432577117E+02  0.26590946514E+02  0.51100000000E-03 0.  1.
         12    1    3    3    0    0  0.30466932909E+02  0.23204643441E+02 -0.21488086711E+02  0.43913862829E+02  0.00000000000E+00 0. -1.
</event>
<event>
 7    1  0.2655561E-013  0.7246147E+02  0.7816164E-02  0.1226708E+00
        -11   -1    0    0    0    0  0.00000000000E+00  0.00000000000E+00  0.45593999997E+02  0.45594000000E+02  0.51100000000E-03 0.  1.
         11   -1    0    0    0    0 -0.00000000000E+00 -0.00000000000E+00 -0.45593999997E+02  0.45594000000E+02  0.51100000000E-03 0. -1.
    9900012    2    1    2    0    0 -0.11808180456E+02 -0.13582557557E+02 -0.51733846641E+01  0.72461470573E+02  0.69999870094E+02 0.  0.
        -12    1    1    2    0    0  0.11808180456E+02  0.13582557557E+02  0.51733846641E+01  0.18726529427E+02  0.00000000000E+00 0.  1.
         11    1    3    3    0    0 -0.18656957727E+00  0.10691370765E+00  0.12495828491E+02  0.12497678532E+02  0.51100000000E-03 0.  1.
        -11    1    3    3    0    0  0.10461954600E+02  0.13064733127E+02  0.62059949988E+01  0.17850885690E+02  0.51100000000E-03 0. -1.
         12    1    3    3    0    0 -0.22083565479E+02 -0.26754204392E+02 -0.23875208154E+02  0.42112906351E+02  0.00000000000E+00 0. -1.
</event>
<event>
 7    1  0.2655561E-013  0.7246157E+02  0.7816164E-02  0.1226708E+00
        -11   -1    0    0    0    0  0.00000000000E+00  0.00000000000E+00  0.45593999997E+02  0.45594000000E+02  0.51100000000E-03 0.  1.
         11   -1    0    0    0    0 -0.00000000000E+00 -0.00000000000E+00 -0.45593999997E+02  0.45594000000E+02  0.51100000000E-03 0. -1.
    9900012    2    1    2    0    0 -0.23162576188E+01 -0.46741437529E+01 -0.17985179700E+02  0.72461565262E+02  0.69999993444E+02 0.  0.
        -12    1    1    2    0    0  0.23162576188E+01  0.46741437529E+01  0.17985179700E+02  0.18726434738E+02  0.00000000000E+00 0.  1.
         11    1    3    3    0    0 -0.97538105988E+01 -0.95026109703E+00  0.38834894957E+00  0.98076823214E+01  0.51100000000E-03 0. -1.
        -11    1    3    3    0    0 -0.18284471707E+02  0.17869017453E+02 -0.30772220185E+01  0.25750591954E+02  0.51100000000E-03 0.  1.
         12    1    3    3    0    0  0.25722024687E+02 -0.21592900109E+02 -0.15296306631E+02  0.36903290987E+02  0.00000000000E+00 0. -1.
</event>
<event>
 7    1  0.2655561E-013  0.7246156E+02  0.7816164E-02  0.1226708E+00
        -11   -1    0    0    0    0  0.00000000000E+00  0.00000000000E+00  0.45593999997E+02  0.45594000000E+02  0.51100000000E-03 0. -1.
         11   -1    0    0    0    0 -0.00000000000E+00 -0.00000000000E+00 -0.45593999997E+02  0.45594000000E+02  0.51100000000E-03 0.  1.
    9900012    2    1    2    0    0  0.15190744052E+02 -0.10020164778E+02 -0.44178327538E+01  0.72461557378E+02  0.69999983174E+02 0.  0.
        -12    1    1    2    0    0 -0.15190744052E+02  0.10020164778E+02  0.44178327538E+01  0.18726442622E+02  0.00000000000E+00 0.  1.
         11    1    3    3    0    0 -0.18757581250E+02 -0.55300161476E+01  0.20434103118E+01  0.19662234331E+02  0.51100000000E-03 0. -1.
        -11    1    3    3    0    0 -0.83577197251E+01  0.33570851574E+01  0.12277529419E+01  0.90900427559E+01  0.51100000000E-03 0.  1.
        -12    1    3    3    0    0  0.42306045027E+02 -0.78472337875E+01 -0.76889960074E+01  0.43709280291E+02  0.00000000000E+00 0.  1.
</event>
<event>
 7    1  0.2655561E-013  0.7246161E+02  0.7816164E-02  0.1226708E+00
        -11   -1    0    0    0    0  0.00000000000E+00  0.00000000000E+00  0.45593999997E+02  0.45594000000E+02  0.51100000000E-03 0. -1.
         11   -1    0    0    0    0 -0.00000000000E+00 -0.00000000000E+00 -0.45593999997E+02  0.45594000000E+02  0.51100000000E-03 0.  1.
    9900012    2    1    2    0    0  0.10879848265E+01  0.32289735050E+01  0.18413790701E+02  0.72461610363E+02  0.70000052196E+02 0.  0.
        -12    1    1    2    0    0 -0.10879848265E+01 -0.32289735050E+01 -0.18413790701E+02  0.18726389637E+02  0.00000000000E+00 0.  1.
         11    1    3    3    0    0 -0.29320772487E+02 -0.14873414061E+01  0.13859064989E+02  0.32465267076E+02  0.51100000000E-03 0. -1.
        -11    1    3    3    0    0 -0.43821973190E+01  0.19605602695E-01 -0.88541214444E+00  0.44707932908E+01  0.51100000000E-03 0.  1.
        -12    1    3    3    0    0  0.34790954633E+02  0.46967093084E+01  0.54401378558E+01  0.35525549995E+02  0.00000000000E+00 0.  1.
</event>
<event>
 7    1  0.2655561E-013  0.7246156E+02  0.7816164E-02  0.1226708E+00
        -11   -1    0    0    0    0  0.00000000000E+00  0.00000000000E+00  0.45593999997E+02  0.45594000000E+02  0.51100000000E-03 0. -1.
         11   -1    0    0    0    0 -0.00000000000E+00 -0.00000000000E+00 -0.45593999997E+02  0.45594000000E+02  0.51100000000E-03 0.  1.
    9900012    2    1    2    0    0  0.30724056474E+01  0.16740856562E+02  0.78092049469E+01  0.72461557818E+02  0.69999983748E+02 0.  0.
        -12    1    1    2    0    0 -0.30724056474E+01 -0.16740856562E+02 -0.78092049469E+01  0.18726442182E+02  0.00000000000E+00 0.  1.
         11    1    3    3    0    0  0.29645078379E+00  0.10468576972E+02 -0.16778312264E+02  0.19778542655E+02  0.51100000000E-03 0. -1.
        -11    1    3    3    0    0 -0.21903011076E+01  0.12346753844E+02 -0.10730439435E+02  0.16504001944E+02  0.51100000000E-03 0.  1.
         12    1    3    3    0    0  0.49662559712E+01 -0.60744742541E+01  0.35317956646E+02  0.36179013219E+02  0.00000000000E+00 0. -1.
</event>
<event>
 7    1  0.2655561E-013  0.7246205E+02  0.7816164E-02  0.1226707E+00
        -11   -1    0    0    0    0  0.00000000000E+00  0.00000000000E+00  0.45593999997E+02  0.45594000000E+02  0.51100000000E-03 0.  1.
         11   -1    0    0    0    0 -0.00000000000E+00 -0.00000000000E+00 -0.45593999997E+02  0.45594000000E+02  0.51100000000E-03 0. -1.
    9900012    2    1    2    0    0  0.13165585203E+02 -0.17285472215E+01 -0.13203811048E+02  0.72462051815E+02  0.70000627267E+02 0.  0.
        -12    1    1    2    0    0 -0.13165585203E+02  0.17285472215E+01  0.13203811048E+02  0.18725948185E+02  0.00000000000E+00 0.  1.
         11    1    3    3    0    0 -0.74513581353E+01  0.14041828337E+02 -0.24269997315E+02  0.29012556782E+02  0.51100000000E-03 0. -1.
        -11    1    3    3    0    0 -0.57146171882E+01 -0.60305577905E+01  0.12867541870E+02  0.15316595931E+02  0.51100000000E-03 0.  1.
        -12    1    3    3    0    0  0.26331560526E+02 -0.97398177684E+01 -0.18013556031E+01  0.28132899102E+02  0.00000000000E+00 0.  1.
</event>
<event>
 7    1  0.2655561E-013  0.7246157E+02  0.7816164E-02  0.1226708E+00
        -11   -1    0    0    0    0  0.00000000000E+00  0.00000000000E+00  0.45593999997E+02  0.45594000000E+02  0.51100000000E-03 0.  1.
         11   -1    0    0    0    0 -0.00000000000E+00 -0.00000000000E+00 -0.45593999997E+02  0.45594000000E+02  0.51100000000E-03 0. -1.
    9900012    2    1    2    0    0  0.18714133556E+02 -0.64394653911E+00 -0.21411633594E+00  0.72461566605E+02  0.69999995194E+02 0.  0.
        -12    1    1    2    0    0 -0.18714133556E+02  0.64394653911E+00  0.21411633594E+00  0.18726433395E+02  0.00000000000E+00 0.  1.
         11    1    3    3    0    0 -0.68539617139E+01  0.51013757388E+01 -0.22990956942E+02  0.24527228277E+02  0.51100000000E-03 0. -1.
        -11    1    3    3    0    0  0.15432812331E+01 -0.15970290832E+02  0.79147157247E+01  0.17890629712E+02  0.51100000000E-03 0.  1.
        -12    1    3    3    0    0  0.24024814037E+02  0.10224968554E+02  0.14862124881E+02  0.30043708616E+02  0.00000000000E+00 0.  1.
</event>
<event>
 7    1  0.2655561E-013  0.7246162E+02  0.7816164E-02  0.1226708E+00
        -11   -1    0    0    0    0  0.00000000000E+00  0.00000000000E+00  0.45593999997E+02  0.45594000000E+02  0.51100000000E-03 0. -1.
         11   -1    0    0    0    0 -0.00000000000E+00 -0.00000000000E+00 -0.45593999997E+02  0.45594000000E+02  0.51100000000E-03 0.  1.
    9900012    2    1    2    0    0 -0.15647281118E+02 -0.95798575374E+01  0.37505139216E+01  0.72461616700E+02  0.70000060452E+02 0.  0.
        -12    1    1    2    0    0  0.15647281118E+02  0.95798575374E+01 -0.37505139216E+01  0.18726383300E+02  0.00000000000E+00 0.  1.
         11    1    3    3    0    0 -0.28406239551E+02 -0.24601487812E+02 -0.92312065629E+01  0.38695772675E+02  0.51100000000E-03 0. -1.
        -11    1    3    3    0    0 -0.51771594340E+01  0.11643131181E+02  0.35827582154E+01  0.13236375644E+02  0.51100000000E-03 0.  1.
        -12    1    3    3    0    0  0.17936117867E+02  0.33784990936E+01  0.93989622691E+01  0.20529468381E+02  0.00000000000E+00 0.  1.
</event>
<event>
 7    1  0.2655561E-013  0.7246159E+02  0.7816164E-02  0.1226708E+00
        -11   -1    0    0    0    0  0.00000000000E+00  0.00000000000E+00  0.45593999997E+02  0.45594000000E+02  0.51100000000E-03 0. -1.
         11   -1    0    0    0    0 -0.00000000000E+00 -0.00000000000E+00 -0.45593999997E+02  0.45594000000E+02  0.51100000000E-03 0.  1.
    9900012    2    1    2    0    0 -0.26043821594E+01  0.17094168286E+02  0.71892432083E+01  0.72461585134E+02  0.70000019331E+02 0.  0.
        -12    1    1    2    0    0  0.26043821594E+01 -0.17094168286E+02 -0.71892432083E+01  0.18726414866E+02  0.00000000000E+00 0.  1.
         11    1    3    3    0    0  0.15790901766E+02  0.10529918463E+02  0.30523067977E+02  0.35942863553E+02  0.51100000000E-03 0. -1.
        -11    1    3    3    0    0 -0.40953068314E+01 -0.64628471271E+01 -0.11593598009E+02  0.13890696386E+02  0.51100000000E-03 0.  1.
        -12    1    3    3    0    0 -0.14299977094E+02  0.13027096951E+02 -0.11740226760E+02  0.22628025195E+02  0.00000000000E+00 0.  1.
</event>
<event>
 7    1  0.2655561E-013  0.7246163E+02  0.7816164E-02  0.1226708E+00
        -11   -1    0    0    0    0  0.00000000000E+00  0.00000000000E+00  0.45593999997E+02  0.45594000000E+02  0.51100000000E-03 0.  1.
         11   -1    0    0    0    0 -0.00000000000E+00 -0.00000000000E+00 -0.45593999997E+02  0.45594000000E+02  0.51100000000E-03 0. -1.
    9900012    2    1    2    0    0  0.18216859014E+02 -0.14503637170E+01  0.40889369736E+01  0.72461630548E+02  0.70000078492E+02 0.  0.
        -12    1    1    2    0    0 -0.18216859014E+02  0.14503637170E+01 -0.40889369736E+01  0.18726369452E+02  0.00000000000E+00 0.  1.
         11    1    3    3    0    0  0.87399291452E+00  0.25312197816E+01  0.53799218852E+01  0.60095338379E+01  0.51100000000E-03 0. -1.
        -11    1    3    3    0    0  0.21553399338E+02  0.19711000402E+02  0.19110494950E+02  0.34903919226E+02  0.51100000000E-03 0.  1.
         12    1    3    3    0    0 -0.42105332379E+01 -0.23692583900E+02 -0.20401479862E+02  0.31548177484E+02  0.00000000000E+00 0. -1.
</event>
<event>
 7    1  0.2655561E-013  0.7246149E+02  0.7816164E-02  0.1226708E+00
        -11   -1    0    0    0    0  0.00000000000E+00  0.00000000000E+00  0.45593999997E+02  0.45594000000E+02  0.51100000000E-03 0. -1.
         11   -1    0    0    0    0 -0.00000000000E+00 -0.00000000000E+00 -0.45593999997E+02  0.45594000000E+02  0.51100000000E-03 0.  1.
    9900012    2    1    2    0    0  0.13330987712E+02 -0.73114513343E+00  0.13131354222E+02  0.72461487503E+02  0.69999892149E+02 0.  0.
        -12    1    1    2    0    0 -0.13330987712E+02  0.73114513343E+00 -0.13131354222E+02  0.18726512497E+02  0.00000000000E+00 0.  1.
         11    1    3    3    0    0 -0.33660631521E+01  0.22564005998E+02  0.39226470476E+00  0.22817068604E+02  0.51100000000E-03 0. -1.
        -11    1    3    3    0    0 -0.10489363201E+02  0.13830461199E+01  0.64551290302E+01  0.12393879457E+02  0.51100000000E-03 0.  1.
         12    1    3    3    0    0  0.27186414065E+02 -0.24678197252E+02  0.62839604876E+01  0.37250539442E+02  0.00000000000E+00 0. -1.
</event>
<event>
 7    1  0.2655561E-013  0.7246158E+02  0.7816164E-02  0.1226708E+00
        -11   -1    0    0    0    0  0.00000000000E+00  0.00000000000E+00  0.45593999997E+02  0.45594000000E+02  0.51100000000E-03 0. -1.
         11   -1    0    0    0    0 -0.00000000000E+00 -0.00000000000E+00 -0.45593999997E+02  0.45594000000E+02  0.51100000000E-03 0.  1.
    9900012    2    1    2    0    0 -0.68235794090E+01 -0.75033583673E+01  0.15742206573E+02  0.72461583084E+02  0.70000016660E+02 0.  0.
        -12    1    1    2    0    0  0.68235794090E+01  0.75033583673E+01 -0.15742206573E+02  0.18726416916E+02  0.00000000000E+00 0.  1.
         11    1    3    3    0    0 -0.28979220330E+02  0.12097092317E+02  0.13504163583E+02  0.34183289600E+02  0.51100000000E-03 0. -1.
        -11    1    3    3    0    0 -0.43536250510E+01 -0.50933225606E+01 -0.34375225766E+01  0.75307733678E+01  0.51100000000E-03 0.  1.
        -12    1    3    3    0    0  0.26509265973E+02 -0.14507128124E+02  0.56755655661E+01  0.30747520116E+02  0.00000000000E+00 0.  1.
</event>
<event>
 7    1  0.2655561E-013  0.7246148E+02  0.7816164E-02  0.1226708E+00
        -11   -1    0    0    0    0  0.00000000000E+00  0.00000000000E+00  0.45593999997E+02  0.45594000000E+02  0.51100000000E-03 0.  1.
         11   -1    0    0    0    0 -0.00000000000E+00 -0.00000000000E+00 -0.45593999997E+02  0.45594000000E+02  0.51100000000E-03 0. -1.
    9900012    2    1    2    0    0  0.14334126025E+01 -0.18591136830E+02 -0.17313304827E+01  0.72461480153E+02  0.69999882574E+02 0.  0.
        -12    1    1    2    0    0 -0.14334126025E+01  0.18591136830E+02  0.17313304827E+01  0.18726519847E+02  0.00000000000E+00 0.  1.
         11    1    3    3    0    0 -0.19639526667E+02 -0.69548573507E+01  0.15419567857E+02  0.25919956050E+02  0.51100000000E-03 0. -1.
        -11    1    3    3    0    0 -0.10875159804E+01  0.11305799758E+02 -0.49689659299E+01  0.12397355438E+02  0.51100000000E-03 0.  1.
         12    1    3    3    0    0  0.22160455250E+02 -0.22942079238E+02 -0.12181932409E+02  0.34144168666E+02  0.00000000000E+00 0. -1.
</event>
<event>
 7    1  0.2655561E-013  0.7246158E+02  0.7816164E-02  0.1226708E+00
        -11   -1    0    0    0    0  0.00000000000E+00  0.00000000000E+00  0.45593999997E+02  0.45594000000E+02  0.51100000000E-03 0.  1.
         11   -1    0    0    0    0 -0.00000000000E+00 -0.00000000000E+00 -0.45593999997E+02  0.45594000000E+02  0.51100000000E-03 0. -1.
    9900012    2    1    2    0    0 -0.11000127481E+02  0.69912863792E+00 -0.15138929035E+02  0.72461581288E+02  0.70000014321E+02 0.  0.
        -12    1    1    2    0    0  0.11000127481E+02 -0.69912863792E+00  0.15138929035E+02  0.18726418712E+02  0.00000000000E+00 0.  1.
         11    1    3    3    0    0  0.21755254383E+02 -0.29367543488E+00 -0.13704981780E+02  0.25713884661E+02  0.51100000000E-03 0. -1.
        -11    1    3    3    0    0 -0.18630949402E+02 -0.15989676205E+02 -0.21662966357E+01  0.24647005135E+02  0.51100000000E-03 0.  1.
         12    1    3    3    0    0 -0.14124432462E+02  0.16982480278E+02  0.73234938062E+00  0.22100691491E+02  0.00000000000E+00 0. -1.
</event>
<event>
 7    1  0.2655561E-013  0.7246113E+02  0.7816164E-02  0.1226709E+00
        -11   -1    0    0    0    0  0.00000000000E+00  0.00000000000E+00  0.45593999997E+02  0.45594000000E+02  0.51100000000E-03 0.  1.
         11   -1    0    0    0    0 -0.00000000000E+00 -0.00000000000E+00 -0.45593999997E+02  0.45594000000E+02  0.51100000000E-03 0. -1.
    9900012    2    1    2    0    0  0.42181924672E+01 -0.20274121014E+01 -0.18132624032E+02  0.72461131554E+02  0.69999428457E+02 0.  0.
        -12    1    1    2    0    0 -0.42181924672E+01  0.20274121014E+01  0.18132624032E+02  0.18726868446E+02  0.00000000000E+00 0.  1.
         11    1    3    3    0    0  0.21129739103E+01  0.17451410569E+02 -0.32659550948E+02  0.37089926638E+02  0.51100000000E-03 0. -1.
        -11    1    3    3    0    0 -0.11465301438E+02 -0.73874422993E+01  0.33879510720E+01  0.14053670464E+02  0.51100000000E-03 0.  1.
        -12    1    3    3    0    0  0.13570519995E+02 -0.12091380371E+02  0.11138975845E+02  0.21317534452E+02  0.00000000000E+00 0.  1.
</event>
<event>
 7    1  0.2655561E-013  0.7246157E+02  0.7816164E-02  0.1226708E+00
        -11   -1    0    0    0    0  0.00000000000E+00  0.00000000000E+00  0.45593999997E+02  0.45594000000E+02  0.51100000000E-03 0. -1.
         11   -1    0    0    0    0 -0.00000000000E+00 -0.00000000000E+00 -0.45593999997E+02  0.45594000000E+02  0.51100000000E-03 0.  1.
    9900012    2    1    2    0    0  0.89479320566E+01 -0.13332505751E+02  0.96362867043E+01  0.72461568970E+02  0.69999998274E+02 0.  0.
        -12    1    1    2    0    0 -0.89479320566E+01  0.13332505751E+02 -0.96362867043E+01  0.18726431030E+02  0.00000000000E+00 0.  1.
         11    1    3    3    0    0 -0.70888617830E+01  0.15561562119E+02  0.16372675603E+02  0.23674431009E+02  0.51100000000E-03 0. -1.
        -11    1    3    3    0    0 -0.23892212316E+01 -0.27270130144E+01  0.11427065172E+02  0.11988444302E+02  0.51100000000E-03 0.  1.
        -12    1    3    3    0    0  0.18426015071E+02 -0.26167054855E+02 -0.18163454070E+02  0.36798693659E+02  0.00000000000E+00 0.  1.
</event>
<event>
 7    1  0.2655561E-013  0.7246156E+02  0.7816164E-02  0.1226708E+00
        -11   -1    0    0    0    0  0.00000000000E+00  0.00000000000E+00  0.45593999997E+02  0.45594000000E+02  0.51100000000E-03 0.  1.
         11   -1    0    0    0    0 -0.00000000000E+00 -0.00000000000E+00 -0.45593999997E+02  0.45594000000E+02  0.51100000000E-03 0. -1.
    9900012    2    1    2    0    0 -0.46905628247E+01  0.18027026375E+02 -0.19247262816E+01  0.72461557978E+02  0.69999983956E+02 0.  0.
        -12    1    1    2    0    0  0.46905628247E+01 -0.18027026375E+02  0.19247262816E+01  0.18726442022E+02  0.00000000000E+00 0.  1.
         11    1    3    3    0    0 -0.10700722151E+01  0.80523352647E+01  0.15374532932E+02  0.17388542805E+02  0.51100000000E-03 0. -1.
        -11    1    3    3    0    0  0.11475523479E+02 -0.15055815123E+02  0.34295456605E+01  0.19238684774E+02  0.51100000000E-03 0.  1.
         12    1    3    3    0    0 -0.15096014088E+02  0.25030506233E+02 -0.20728804874E+02  0.35834330399E+02  0.00000000000E+00 0. -1.
</event>
<event>
 7    1  0.2655561E-013  0.7246147E+02  0.7816164E-02  0.1226708E+00
        -11   -1    0    0    0    0  0.00000000000E+00  0.00000000000E+00  0.45593999997E+02  0.45594000000E+02  0.51100000000E-03 0.  1.
         11   -1    0    0    0    0 -0.00000000000E+00 -0.00000000000E+00 -0.45593999997E+02  0.45594000000E+02  0.51100000000E-03 0. -1.
    9900012    2    1    2    0    0  0.13092629630E+02 -0.68442062551E+01  0.11507503912E+02  0.72461474530E+02  0.69999875249E+02 0.  0.
        -12    1    1    2    0    0 -0.13092629630E+02  0.68442062551E+01 -0.11507503912E+02  0.18726525470E+02  0.00000000000E+00 0.  1.
         11    1    3    3    0    0 -0.12530028791E+01  0.59660423049E+01  0.58962556125E+01  0.84811265472E+01  0.51100000000E-03 0. -1.
        -11    1    3    3    0    0  0.23219168565E+02 -0.93828609881E+01  0.29245964757E+02  0.38503172909E+02  0.51100000000E-03 0.  1.
         12    1    3    3    0    0 -0.88735360559E+01 -0.34273875719E+01 -0.23634716458E+02  0.25477175074E+02  0.00000000000E+00 0. -1.
</event>
<event>
 7    1  0.2655561E-013  0.7246156E+02  0.7816164E-02  0.1226708E+00
        -11   -1    0    0    0    0  0.00000000000E+00  0.00000000000E+00  0.45593999997E+02  0.45594000000E+02  0.51100000000E-03 0.  1.
         11   -1    0    0    0    0 -0.00000000000E+00 -0.00000000000E+00 -0.45593999997E+02  0.45594000000E+02  0.51100000000E-03 0. -1.
    9900012    2    1    2    0    0  0.59752714408E+00  0.10168110577E+02 -0.15714070435E+02  0.72461560909E+02  0.69999987774E+02 0.  0.
        -12    1    1    2    0    0 -0.59752714408E+00 -0.10168110577E+02  0.15714070435E+02  0.18726439091E+02  0.00000000000E+00 0.  1.
         11    1    3    3    0    0  0.32037846225E+02  0.52320749002E+01 -0.10156237530E+02  0.34013928904E+02  0.51100000000E-03 0. -1.
        -11    1    3    3    0    0 -0.50211632892E+01  0.94741220208E+01 -0.44775536241E+01  0.11619791545E+02  0.51100000000E-03 0.  1.
        -12    1    3    3    0    0 -0.26419155791E+02 -0.45380863443E+01 -0.10802792813E+01  0.26827840460E+02  0.00000000000E+00 0.  1.
</event>
<event>
 7    1  0.2655561E-013  0.7246154E+02  0.7816164E-02  0.1226708E+00
        -11   -1    0    0    0    0  0.00000000000E+00  0.00000000000E+00  0.45593999997E+02  0.45594000000E+02  0.51100000000E-03 0.  1.
         11   -1    0    0    0    0 -0.00000000000E+00 -0.00000000000E+00 -0.45593999997E+02  0.45594000000E+02  0.51100000000E-03 0. -1.
    9900012    2    1    2    0    0 -0.10046590771E+02 -0.14233954872E+02 -0.68659321973E+01  0.72461535241E+02  0.69999954337E+02 0.  0.
        -12    1    1    2    0    0  0.10046590771E+02  0.14233954872E+02  0.68659321973E+01  0.18726464759E+02  0.00000000000E+00 0.  1.
         11    1    3    3    0    0  0.15186186974E+02  0.32810839093E+01  0.90433941917E+01  0.17976895316E+02  0.51100000000E-03 0.  1.
        -11    1    3    3    0    0 -0.47031938128E+01  0.84783962792E+00  0.13422357834E+02  0.14247756109E+02  0.51100000000E-03 0. -1.
         12    1    3    3    0    0 -0.20529583932E+02 -0.18362878409E+02 -0.29331684223E+02  0.40236883816E+02  0.00000000000E+00 0. -1.
</event>
<event>
 7    1  0.2655561E-013  0.7246152E+02  0.7816164E-02  0.1226708E+00
        -11   -1    0    0    0    0  0.00000000000E+00  0.00000000000E+00  0.45593999997E+02  0.45594000000E+02  0.51100000000E-03 0. -1.
         11   -1    0    0    0    0 -0.00000000000E+00 -0.00000000000E+00 -0.45593999997E+02  0.45594000000E+02  0.51100000000E-03 0.  1.
    9900012    2    1    2    0    0  0.17919492260E+02  0.35575567186E+01  0.41129875051E+01  0.72461519315E+02  0.69999933589E+02 0.  0.
        -12    1    1    2    0    0 -0.17919492260E+02 -0.35575567186E+01 -0.41129875051E+01  0.18726480685E+02  0.00000000000E+00 0.  1.
         11    1    3    3    0    0 -0.63633759765E+01 -0.15823169896E+02  0.24497903696E+02  0.29849833252E+02  0.51100000000E-03 0. -1.
        -11    1    3    3    0    0  0.14319841177E+01 -0.32214338077E+01 -0.69165872283E+01  0.77632076772E+01  0.51100000000E-03 0.  1.
        -12    1    3    3    0    0  0.22850884118E+02  0.22602160423E+02 -0.13468328963E+02  0.34848478386E+02  0.00000000000E+00 0.  1.
</event>
<event>
 7    1  0.2655561E-013  0.7246155E+02  0.7816164E-02  0.1226708E+00
        -11   -1    0    0    0    0  0.00000000000E+00  0.00000000000E+00  0.45593999997E+02  0.45594000000E+02  0.51100000000E-03 0.  1.
         11   -1    0    0    0    0 -0.00000000000E+00 -0.00000000000E+00 -0.45593999997E+02  0.45594000000E+02  0.51100000000E-03 0. -1.
    9900012    2    1    2    0    0 -0.69726732813E+01 -0.15266889090E+02 -0.83056620547E+01  0.72461545522E+02  0.69999967729E+02 0.  0.
        -12    1    1    2    0    0  0.69726732813E+01  0.15266889090E+02  0.83056620547E+01  0.18726454478E+02  0.00000000000E+00 0.  1.
         11    1    3    3    0    0 -0.83259615481E+01  0.12675567024E+01  0.65073624121E+01  0.10643030655E+02  0.51100000000E-03 0. -1.
        -11    1    3    3    0    0 -0.25452417736E+02 -0.20551237782E+02 -0.55927544394E+01  0.33188218474E+02  0.51100000000E-03 0.  1.
         12    1    3    3    0    0  0.26805706003E+02  0.40167919896E+01 -0.92202700274E+01  0.28630296393E+02  0.00000000000E+00 0. -1.
</event>
<event>
 7    1  0.2655561E-013  0.7246136E+02  0.7816164E-02  0.1226709E+00
        -11   -1    0    0    0    0  0.00000000000E+00  0.00000000000E+00  0.45593999997E+02  0.45594000000E+02  0.51100000000E-03 0. -1.
         11   -1    0    0    0    0 -0.00000000000E+00 -0.00000000000E+00 -0.45593999997E+02  0.45594000000E+02  0.51100000000E-03 0.  1.
    9900012    2    1    2    0    0  0.96966845125E+01  0.10888031081E+01  0.15983610157E+02  0.72461361850E+02  0.69999728463E+02 0.  0.
        -12    1    1    2    0    0 -0.96966845125E+01 -0.10888031081E+01 -0.15983610157E+02  0.18726638150E+02  0.00000000000E+00 0.  1.
         11    1    3    3    0    0  0.78653146349E+01 -0.25958770486E+02  0.27648875125E+02  0.38732173130E+02  0.51100000000E-03 0. -1.
        -11    1    3    3    0    0 -0.12033114821E+01 -0.85587536615E+00  0.20203616430E+01  0.25024673014E+01  0.51100000000E-03 0.  1.
        -12    1    3    3    0    0  0.30346813596E+01  0.27903448960E+02 -0.13685626611E+02  0.31226721419E+02  0.00000000000E+00 0.  1.
</event>
<event>
 7    1  0.2655561E-013  0.7246156E+02  0.7816164E-02  0.1226708E+00
        -11   -1    0    0    0    0  0.00000000000E+00  0.00000000000E+00  0.45593999997E+02  0.45594000000E+02  0.51100000000E-03 0. -1.
         11   -1    0    0    0    0 -0.00000000000E+00 -0.00000000000E+00 -0.45593999997E+02  0.45594000000E+02  0.51100000000E-03 0.  1.
    9900012    2    1    2    0    0 -0.59012047532E+01  0.16557404418E+02 -0.64581409482E+01  0.72461562989E+02  0.69999990484E+02 0.  0.
        -12    1    1    2    0    0  0.59012047532E+01 -0.16557404418E+02  0.64581409482E+01  0.18726437011E+02  0.00000000000E+00 0.  1.
         11    1    3    3    0    0 -0.82964937450E+01  0.18196694463E+02 -0.10352596106E+01  0.20025565174E+02  0.51100000000E-03 0. -1.
        -11    1    3    3    0    0  0.20597733235E+02  0.10472128805E+02 -0.16042344292E+02  0.28129857923E+02  0.51100000000E-03 0.  1.
         12    1    3    3    0    0 -0.18202444243E+02 -0.12111418850E+02  0.10619462954E+02  0.24306139892E+02  0.00000000000E+00 0. -1.
</event>
<event>
 7    1  0.2655561E-013  0.7246158E+02  0.7816164E-02  0.1226708E+00
        -11   -1    0    0    0    0  0.00000000000E+00  0.00000000000E+00  0.45593999997E+02  0.45594000000E+02  0.51100000000E-03 0. -1.
         11   -1    0    0    0    0 -0.00000000000E+00 -0.00000000000E+00 -0.45593999997E+02  0.45594000000E+02  0.51100000000E-03 0.  1.
    9900012    2    1    2    0    0  0.14444723129E+02 -0.97711191028E+01  0.68230402562E+01  0.72461583548E+02  0.70000017265E+02 0.  0.
        -12    1    1    2    0    0 -0.14444723129E+02  0.97711191028E+01 -0.68230402562E+01  0.18726416452E+02  0.00000000000E+00 0.  1.
         11    1    3    3    0    0 -0.30966584708E+01 -0.12846429814E+02  0.60279879880E+00  0.13228129849E+02  0.51100000000E-03 0. -1.
        -11    1    3    3    0    0 -0.14276436111E+02  0.14536203349E+02 -0.88439279296E+01  0.22211098517E+02  0.51100000000E-03 0.  1.
         12    1    3    3    0    0  0.31817817711E+02 -0.11460892638E+02  0.15064169387E+02  0.37022355182E+02  0.00000000000E+00 0. -1.
</event>
<event>
 7    1  0.2655561E-013  0.7246158E+02  0.7816164E-02  0.1226708E+00
        -11   -1    0    0    0    0  0.00000000000E+00  0.00000000000E+00  0.45593999997E+02  0.45594000000E+02  0.51100000000E-03 0.  1.
         11   -1    0    0    0    0 -0.00000000000E+00 -0.00000000000E+00 -0.45593999997E+02  0.45594000000E+02  0.51100000000E-03 0. -1.
    9900012    2    1    2    0    0 -0.11229031878E+02  0.14971996622E+02 -0.65333281818E+00  0.72461583270E+02  0.70000016903E+02 0.  0.
        -12    1    1    2    0    0  0.11229031878E+02 -0.14971996622E+02  0.65333281818E+00  0.18726416730E+02  0.00000000000E+00 0.  1.
         11    1    3    3    0    0 -0.30405365291E+01  0.28911468391E+01 -0.23895455466E+02  0.24261005433E+02  0.51100000000E-03 0. -1.
        -11    1    3    3    0    0  0.76896255101E+01 -0.10636314112E+02  0.13483512517E+02  0.18816658270E+02  0.51100000000E-03 0.  1.
        -12    1    3    3    0    0 -0.15878120859E+02  0.22717163895E+02  0.97586101308E+01  0.29383919567E+02  0.00000000000E+00 0.  1.
</event>
<event>
 7    1  0.2655561E-013  0.7246161E+02  0.7816164E-02  0.1226708E+00
        -11   -1    0    0    0    0  0.00000000000E+00  0.00000000000E+00  0.45593999997E+02  0.45594000000E+02  0.51100000000E-03 0.  1.
         11   -1    0    0    0    0 -0.00000000000E+00 -0.00000000000E+00 -0.45593999997E+02  0.45594000000E+02  0.51100000000E-03 0. -1.
    9900012    2    1    2    0    0  0.11762025466E+02 -0.13343532907E+02  0.58551396298E+01  0.72461607566E+02  0.70000048554E+02 0.  0.
        -12    1    1    2    0    0 -0.11762025466E+02  0.13343532907E+02 -0.58551396298E+01  0.18726392434E+02  0.00000000000E+00 0.  1.
         11    1    3    3    0    0 -0.77014513893E+01 -0.17907404153E+02 -0.13370890497E+02  0.23638278067E+02  0.51100000000E-03 0. -1.
        -11    1    3    3    0    0 -0.12009395285E+02 -0.24188811041E+01  0.82429961845E+01  0.14765620450E+02  0.51100000000E-03 0.  1.
        -12    1    3    3    0    0  0.31472872140E+02  0.69827523500E+01  0.10983033943E+02  0.34057709050E+02  0.00000000000E+00 0.  1.
</event>
<event>
 7    1  0.2655561E-013  0.7246155E+02  0.7816164E-02  0.1226708E+00
        -11   -1    0    0    0    0  0.00000000000E+00  0.00000000000E+00  0.45593999997E+02  0.45594000000E+02  0.51100000000E-03 0.  1.
         11   -1    0    0    0    0 -0.00000000000E+00 -0.00000000000E+00 -0.45593999997E+02  0.45594000000E+02  0.51100000000E-03 0. -1.
    9900012    2    1    2    0    0 -0.28733044257E+01 -0.57496777106E+01 -0.17588781145E+02  0.72461550943E+02  0.69999974792E+02 0.  0.
        -12    1    1    2    0    0  0.28733044257E+01  0.57496777106E+01  0.17588781145E+02  0.18726449057E+02  0.00000000000E+00 0.  1.
         11    1    3    3    0    0 -0.84310967377E+01 -0.22806461607E+02 -0.77624543213E+01  0.25523984418E+02  0.51100000000E-03 0. -1.
        -11    1    3    3    0    0  0.17810493062E+02 -0.30852314079E+01  0.54084313167E+01  0.18867523566E+02  0.51100000000E-03 0.  1.
        -12    1    3    3    0    0 -0.12252700750E+02  0.20142015304E+02 -0.15234758140E+02  0.28070042960E+02  0.00000000000E+00 0.  1.
</event>
<event>
 7    1  0.2655561E-013  0.7246164E+02  0.7816164E-02  0.1226708E+00
        -11   -1    0    0    0    0  0.00000000000E+00  0.00000000000E+00  0.45593999997E+02  0.45594000000E+02  0.51100000000E-03 0. -1.
         11   -1    0    0    0    0 -0.00000000000E+00 -0.00000000000E+00 -0.45593999997E+02  0.45594000000E+02  0.51100000000E-03 0.  1.
    9900012    2    1    2    0    0  0.24950549081E+01  0.14526652420E+02  0.11551094158E+02  0.72461636077E+02  0.70000085695E+02 0.  0.
        -12    1    1    2    0    0 -0.24950549081E+01 -0.14526652420E+02 -0.11551094158E+02  0.18726363923E+02  0.00000000000E+00 0.  1.
         11    1    3    3    0    0  0.53340803739E+01 -0.14872818495E+02 -0.42445312645E+01  0.16360598685E+02  0.51100000000E-03 0. -1.
        -11    1    3    3    0    0 -0.21935461130E+02  0.71546387345E+01  0.60219874549E+00  0.23080640242E+02  0.51100000000E-03 0.  1.
        -12    1    3    3    0    0  0.19096435664E+02  0.22244832180E+02  0.15193426677E+02  0.33020397150E+02  0.00000000000E+00 0.  1.
</event>
<event>
 7    1  0.2655561E-013  0.7246158E+02  0.7816164E-02  0.1226708E+00
        -11   -1    0    0    0    0  0.00000000000E+00  0.00000000000E+00  0.45593999997E+02  0.45594000000E+02  0.51100000000E-03 0. -1.
         11   -1    0    0    0    0 -0.00000000000E+00 -0.00000000000E+00 -0.45593999997E+02  0.45594000000E+02  0.51100000000E-03 0.  1.
    9900012    2    1    2    0    0 -0.26891299575E+01  0.52686452909E+01  0.17767628947E+02  0.72461583324E+02  0.70000016974E+02 0.  0.
        -12    1    1    2    0    0  0.26891299575E+01 -0.52686452909E+01 -0.17767628947E+02  0.18726416676E+02  0.00000000000E+00 0.  1.
         11    1    3    3    0    0  0.55577282438E+01 -0.19759537972E+02  0.25027795946E+02  0.32368476243E+02  0.51100000000E-03 0. -1.
        -11    1    3    3    0    0 -0.15513271868E+02  0.27861543490E+01 -0.52289425076E+01  0.16606206674E+02  0.51100000000E-03 0.  1.
        -12    1    3    3    0    0  0.72664136666E+01  0.22242028914E+02 -0.20312244913E+01  0.23486900407E+02  0.00000000000E+00 0.  1.
</event>
<event>
 7    1  0.2655561E-013  0.7246158E+02  0.7816164E-02  0.1226708E+00
        -11   -1    0    0    0    0  0.00000000000E+00  0.00000000000E+00  0.45593999997E+02  0.45594000000E+02  0.51100000000E-03 0.  1.
         11   -1    0    0    0    0 -0.00000000000E+00 -0.00000000000E+00 -0.45593999997E+02  0.45594000000E+02  0.51100000000E-03 0. -1.
    9900012    2    1    2    0    0  0.52099933189E+00  0.79383232349E+01 -0.16952590444E+02  0.72461581794E+02  0.70000014980E+02 0.  0.
        -12    1    1    2    0    0 -0.52099933189E+00 -0.79383232349E+01  0.16952590444E+02  0.18726418206E+02  0.00000000000E+00 0.  1.
         11    1    3    3    0    0 -0.70581744097E+01  0.24150776318E+02 -0.27325028784E+02  0.37144784574E+02  0.51100000000E-03 0. -1.
        -11    1    3    3    0    0 -0.96040360735E+00  0.51771308248E+01 -0.52905032225E+01  0.74642135067E+01  0.51100000000E-03 0.  1.
        -12    1    3    3    0    0  0.85395773489E+01 -0.21389583908E+02  0.15662941563E+02  0.27852583712E+02  0.00000000000E+00 0.  1.
</event>
<event>
 7    1  0.2655561E-013  0.7246158E+02  0.7816164E-02  0.1226708E+00
        -11   -1    0    0    0    0  0.00000000000E+00  0.00000000000E+00  0.45593999997E+02  0.45594000000E+02  0.51100000000E-03 0. -1.
         11   -1    0    0    0    0 -0.00000000000E+00 -0.00000000000E+00 -0.45593999997E+02  0.45594000000E+02  0.51100000000E-03 0.  1.
    9900012    2    1    2    0    0  0.29454035721E+01 -0.17934815476E+02  0.45106194027E+01  0.72461582944E+02  0.70000016478E+02 0.  0.
        -12    1    1    2    0    0 -0.29454035721E+01  0.17934815476E+02 -0.45106194027E+01  0.18726417056E+02  0.00000000000E+00 0.  1.
         11    1    3    3    0    0  0.62256690659E+01 -0.70543569862E+00 -0.18169059272E+02  0.19219035094E+02  0.51100000000E-03 0. -1.
        -11    1    3    3    0    0  0.43212934921E+01  0.11914572449E+02 -0.37015960433E+01  0.13203500582E+02  0.51100000000E-03 0.  1.
         12    1    3    3    0    0 -0.76015589860E+01 -0.29143952226E+02  0.26381274718E+02  0.40039047268E+02  0.00000000000E+00 0. -1.
</event>
<event>
 7    1  0.2655561E-013  0.7246159E+02  0.7816164E-02  0.1226708E+00
        -11   -1    0    0    0    0  0.00000000000E+00  0.00000000000E+00  0.45593999997E+02  0.45594000000E+02  0.51100000000E-03 0.  1.
         11   -1    0    0    0    0 -0.00000000000E+00 -0.00000000000E+00 -0.45593999997E+02  0.45594000000E+02  0.51100000000E-03 0. -1.
    9900012    2    1    2    0    0 -0.16913655193E+02  0.38643261122E+01  0.70479469120E+01  0.72461593405E+02  0.70000030106E+02 0.  0.
        -12    1    1    2    0    0  0.16913655193E+02 -0.38643261122E+01 -0.70479469120E+01  0.18726406595E+02  0.00000000000E+00 0.  1.
         11    1    3    3    0    0  0.94475587069E+01  0.14131235698E+02 -0.47747544547E+01  0.17656343569E+02  0.51100000000E-03 0. -1.
        -11    1    3    3    0    0 -0.15044320090E+02  0.15729182761E+02 -0.43042342914E+01  0.22187050061E+02  0.51100000000E-03 0.  1.
         12    1    3    3    0    0 -0.11316893810E+02 -0.25996092347E+02  0.16126935658E+02  0.32618199775E+02  0.00000000000E+00 0. -1.
</event>
<event>
 7    1  0.2655561E-013  0.7246157E+02  0.7816164E-02  0.1226708E+00
        -11   -1    0    0    0    0  0.00000000000E+00  0.00000000000E+00  0.45593999997E+02  0.45594000000E+02  0.51100000000E-03 0.  1.
         11   -1    0    0    0    0 -0.00000000000E+00 -0.00000000000E+00 -0.45593999997E+02  0.45594000000E+02  0.51100000000E-03 0. -1.
    9900012    2    1    2    0    0 -0.68021457824E+01 -0.17401210027E+02  0.12679977155E+01  0.72461571728E+02  0.70000001867E+02 0.  0.
        -12    1    1    2    0    0  0.68021457824E+01  0.17401210027E+02 -0.12679977155E+01  0.18726428272E+02  0.00000000000E+00 0.  1.
         11    1    3    3    0    0  0.15904722723E+01 -0.18641453915E+01  0.56122789927E+01  0.61239134418E+01  0.51100000000E-03 0. -1.
        -11    1    3    3    0    0  0.12849475114E+02 -0.22270974744E+02  0.20558368775E+02  0.32920386597E+02  0.51100000000E-03 0.  1.
         12    1    3    3    0    0 -0.21242093169E+02  0.67339101088E+01 -0.24902650052E+02  0.33417271689E+02  0.00000000000E+00 0. -1.
</event>
<event>
 7    1  0.3010837E-013  0.7246159E+02  0.7816164E-02  0.1226708E+00
        -11   -1    0    0    0    0  0.00000000000E+00  0.00000000000E+00  0.45593999997E+02  0.45594000000E+02  0.51100000000E-03 0.  1.
         11   -1    0    0    0    0 -0.00000000000E+00 -0.00000000000E+00 -0.45593999997E+02  0.45594000000E+02  0.51100000000E-03 0. -1.
    9900012    2    1    2    0    0  0.10694853206E+02 -0.85129036828E+01  0.12799575534E+02  0.72461586888E+02  0.70000021616E+02 0.  0.
        -12    1    1    2    0    0 -0.10694853206E+02  0.85129036828E+01 -0.12799575534E+02  0.18726413112E+02  0.00000000000E+00 0.  1.
         11    1    3    3    0    0  0.63326383596E+01 -0.27460143832E+02 -0.92488251530E+01  0.29659780425E+02  0.51100000000E-03 0. -1.
        -11    1    3    3    0    0  0.42347371448E+01  0.51815237078E+00 -0.71192093551E+01  0.82996760580E+01  0.51100000000E-03 0.  1.
        -12    1    3    3    0    0  0.12747770134E+00  0.18429087779E+02  0.29167610042E+02  0.34502130405E+02  0.00000000000E+00 0.  1.
</event>
<event>
 7    1  0.2655561E-013  0.7246155E+02  0.7816164E-02  0.1226708E+00
        -11   -1    0    0    0    0  0.00000000000E+00  0.00000000000E+00  0.45593999997E+02  0.45594000000E+02  0.51100000000E-03 0. -1.
         11   -1    0    0    0    0 -0.00000000000E+00 -0.00000000000E+00 -0.45593999997E+02  0.45594000000E+02  0.51100000000E-03 0.  1.
    9900012    2    1    2    0    0 -0.84365722530E+01  0.10705892082E+02  0.12840876452E+02  0.72461548529E+02  0.69999971646E+02 0.  0.
        -12    1    1    2    0    0  0.84365722530E+01 -0.10705892082E+02 -0.12840876452E+02  0.18726451471E+02  0.00000000000E+00 0.  1.
         11    1    3    3    0    0 -0.13321519146E+01  0.13617942885E+02  0.13928053741E+02  0.19524694068E+02  0.51100000000E-03 0. -1.
        -11    1    3    3    0    0  0.74812708246E+01  0.90697288723E+01 -0.21889399639E+02  0.24847036278E+02  0.51100000000E-03 0.  1.
         12    1    3    3    0    0 -0.14585691163E+02 -0.11981779675E+02  0.20802222349E+02  0.28089818183E+02  0.00000000000E+00 0. -1.
</event>
<event>
 7    1  0.2655561E-013  0.7246159E+02  0.7816164E-02  0.1226708E+00
        -11   -1    0    0    0    0  0.00000000000E+00  0.00000000000E+00  0.45593999997E+02  0.45594000000E+02  0.51100000000E-03 0.  1.
         11   -1    0    0    0    0 -0.00000000000E+00 -0.00000000000E+00 -0.45593999997E+02  0.45594000000E+02  0.51100000000E-03 0. -1.
    9900012    2    1    2    0    0  0.49395961520E+01 -0.17829701457E+02  0.28949212733E+01  0.72461589949E+02  0.70000025604E+02 0.  0.
        -12    1    1    2    0    0 -0.49395961520E+01  0.17829701457E+02 -0.28949212733E+01  0.18726410051E+02  0.00000000000E+00 0.  1.
         11    1    3    3    0    0 -0.14288404285E+02 -0.59366912306E+01  0.76201019756E+00  0.15491399536E+02  0.51100000000E-03 0. -1.
        -11    1    3    3    0    0 -0.70380124029E+01 -0.17954159181E+02  0.17414465862E+02  0.25983630847E+02  0.51100000000E-03 0.  1.
         12    1    3    3    0    0  0.26266012840E+02  0.60611489539E+01 -0.15281554786E+02  0.30986559567E+02  0.00000000000E+00 0. -1.
</event>
<event>
 7    1  0.2655561E-013  0.7246163E+02  0.7816164E-02  0.1226708E+00
        -11   -1    0    0    0    0  0.00000000000E+00  0.00000000000E+00  0.45593999997E+02  0.45594000000E+02  0.51100000000E-03 0.  1.
         11   -1    0    0    0    0 -0.00000000000E+00 -0.00000000000E+00 -0.45593999997E+02  0.45594000000E+02  0.51100000000E-03 0. -1.
    9900012    2    1    2    0    0  0.56513528411E+01 -0.65863120811E+01 -0.16593965746E+02  0.72461628356E+02  0.70000075636E+02 0.  0.
        -12    1    1    2    0    0 -0.56513528411E+01  0.65863120811E+01  0.16593965746E+02  0.18726371644E+02  0.00000000000E+00 0.  1.
         11    1    3    3    0    0  0.19174761259E+02  0.14001533412E+02  0.15205613626E+02  0.28194415994E+02  0.51100000000E-03 0. -1.
        -11    1    3    3    0    0 -0.25475518585E+01  0.51288611072E+00  0.17565452772E+01  0.31366421866E+01  0.51100000000E-03 0.  1.
        -12    1    3    3    0    0 -0.10975856560E+02 -0.21100731604E+02 -0.33556124650E+02  0.41130570175E+02  0.00000000000E+00 0.  1.
</event>
<event>
 7    1  0.2655561E-013  0.7246143E+02  0.7816164E-02  0.1226708E+00
        -11   -1    0    0    0    0  0.00000000000E+00  0.00000000000E+00  0.45593999997E+02  0.45594000000E+02  0.51100000000E-03 0. -1.
         11   -1    0    0    0    0 -0.00000000000E+00 -0.00000000000E+00 -0.45593999997E+02  0.45594000000E+02  0.51100000000E-03 0.  1.
    9900012    2    1    2    0    0 -0.11513049885E+02 -0.13067353119E+02 -0.68831901628E+01  0.72461432188E+02  0.69999820091E+02 0.  0.
        -12    1    1    2    0    0  0.11513049885E+02  0.13067353119E+02  0.68831901628E+01  0.18726567812E+02  0.00000000000E+00 0.  1.
         11    1    3    3    0    0 -0.47774851583E+01 -0.11208474061E+02  0.78346868586E+01  0.14485736904E+02  0.51100000000E-03 0. -1.
        -11    1    3    3    0    0 -0.79358808643E+01 -0.78980049392E+01 -0.35016945997E+02  0.36763340358E+02  0.51100000000E-03 0.  1.
         12    1    3    3    0    0  0.12003161373E+01  0.60391258817E+01  0.20299068975E+02  0.21212354926E+02  0.00000000000E+00 0. -1.
</event>
<event>
 7    1  0.2655561E-013  0.7246158E+02  0.7816164E-02  0.1226708E+00
        -11   -1    0    0    0    0  0.00000000000E+00  0.00000000000E+00  0.45593999997E+02  0.45594000000E+02  0.51100000000E-03 0.  1.
         11   -1    0    0    0    0 -0.00000000000E+00 -0.00000000000E+00 -0.45593999997E+02  0.45594000000E+02  0.51100000000E-03 0. -1.
    9900012    2    1    2    0    0 -0.14487236976E+02 -0.86314496111E+01  0.81422890937E+01  0.72461579379E+02  0.70000011835E+02 0.  0.
        -12    1    1    2    0    0  0.14487236976E+02  0.86314496111E+01 -0.81422890937E+01  0.18726420621E+02  0.00000000000E+00 0.  1.
         11    1    3    3    0    0 -0.11621762000E+02  0.11092215937E+02 -0.45656292989E+01  0.16701723789E+02  0.51100000000E-03 0. -1.
        -11    1    3    3    0    0  0.14008233721E+02  0.72372551155E+01  0.17544316833E+02  0.23588376947E+02  0.51100000000E-03 0.  1.
         12    1    3    3    0    0 -0.16873708697E+02 -0.26960920664E+02 -0.48363984404E+01  0.32171478643E+02  0.00000000000E+00 0. -1.
</event>
<event>
 7    1  0.2655561E-013  0.7246170E+02  0.7816164E-02  0.1226708E+00
        -11   -1    0    0    0    0  0.00000000000E+00  0.00000000000E+00  0.45593999997E+02  0.45594000000E+02  0.51100000000E-03 0.  1.
         11   -1    0    0    0    0 -0.00000000000E+00 -0.00000000000E+00 -0.45593999997E+02  0.45594000000E+02  0.51100000000E-03 0. -1.
    9900012    2    1    2    0    0 -0.10442134595E+02 -0.15362714801E+02 -0.23713100241E+01  0.72461700521E+02  0.70000169645E+02 0.  0.
        -12    1    1    2    0    0  0.10442134595E+02  0.15362714801E+02  0.23713100241E+01  0.18726299479E+02  0.00000000000E+00 0.  1.
         11    1    3    3    0    0 -0.19964542123E+02 -0.22654773403E+02  0.11210953850E+02  0.32210358374E+02  0.51100000000E-03 0.  1.
        -11    1    3    3    0    0  0.36999674316E+01 -0.11848211716E+02 -0.15833415487E+02  0.20118820196E+02  0.51100000000E-03 0. -1.
         12    1    3    3    0    0  0.58224400966E+01  0.19140270318E+02  0.22511516128E+01  0.20132521951E+02  0.00000000000E+00 0. -1.
</event>
<event>
 7    1  0.2655561E-013  0.7246155E+02  0.7816164E-02  0.1226708E+00
        -11   -1    0    0    0    0  0.00000000000E+00  0.00000000000E+00  0.45593999997E+02  0.45594000000E+02  0.51100000000E-03 0. -1.
         11   -1    0    0    0    0 -0.00000000000E+00 -0.00000000000E+00 -0.45593999997E+02  0.45594000000E+02  0.51100000000E-03 0.  1.
    9900012    2    1    2    0    0 -0.14308771241E+01  0.81516535902E+01  0.16798306765E+02  0.72461548767E+02  0.69999971957E+02 0.  0.
        -12    1    1    2    0    0  0.14308771241E+01 -0.81516535902E+01 -0.16798306765E+02  0.18726451233E+02  0.00000000000E+00 0.  1.
         11    1    3    3    0    0 -0.11563229925E+02 -0.20719933222E+01 -0.82111636513E+01  0.14332642861E+02  0.51100000000E-03 0. -1.
        -11    1    3    3    0    0  0.57625262981E+01  0.28496323976E+02  0.30556150800E+01  0.29233268262E+02  0.51100000000E-03 0.  1.
         12    1    3    3    0    0  0.43698265024E+01 -0.18272677064E+02  0.21953855336E+02  0.28895637644E+02  0.00000000000E+00 0. -1.
</event>
<event>
 7    1  0.2655561E-013  0.7246158E+02  0.7816164E-02  0.1226708E+00
        -11   -1    0    0    0    0  0.00000000000E+00  0.00000000000E+00  0.45593999997E+02  0.45594000000E+02  0.51100000000E-03 0.  1.
         11   -1    0    0    0    0 -0.00000000000E+00 -0.00000000000E+00 -0.45593999997E+02  0.45594000000E+02  0.51100000000E-03 0. -1.
    9900012    2    1    2    0    0  0.10098874087E+02  0.14443386646E+02  0.63308773780E+01  0.72461583257E+02  0.70000016887E+02 0.  0.
        -12    1    1    2    0    0 -0.10098874087E+02 -0.14443386646E+02 -0.63308773780E+01  0.18726416743E+02  0.00000000000E+00 0.  1.
         11    1    3    3    0    0  0.10074396135E+01  0.38029863209E+02  0.13469347986E+01  0.38067041702E+02  0.51100000000E-03 0. -1.
        -11    1    3    3    0    0  0.19018040003E+01  0.22761384781E+01  0.68720834913E+01  0.74848645010E+01  0.51100000000E-03 0.  1.
         12    1    3    3    0    0  0.71896304730E+01 -0.25862615041E+02 -0.18881409118E+01  0.26909677055E+02  0.00000000000E+00 0. -1.
</event>
<event>
 7    1  0.2655561E-013  0.7246157E+02  0.7816164E-02  0.1226708E+00
        -11   -1    0    0    0    0  0.00000000000E+00  0.00000000000E+00  0.45593999997E+02  0.45594000000E+02  0.51100000000E-03 0. -1.
         11   -1    0    0    0    0 -0.00000000000E+00 -0.00000000000E+00 -0.45593999997E+02  0.45594000000E+02  0.51100000000E-03 0.  1.
    9900012    2    1    2    0    0  0.37065064770E+01  0.17613154597E+01  0.18271255569E+02  0.72461569415E+02  0.69999998854E+02 0.  0.
        -12    1    1    2    0    0 -0.37065064770E+01 -0.17613154597E+01 -0.18271255569E+02  0.18726430585E+02  0.00000000000E+00 0.  1.
         11    1    3    3    0    0  0.30418176187E+02  0.45494502939E+01  0.92413558580E+01  0.32114881268E+02  0.51100000000E-03 0. -1.
        -11    1    3    3    0    0 -0.27327200972E+01  0.74490870881E+01  0.11700874659E+02  0.14137437024E+02  0.51100000000E-03 0.  1.
        -12    1    3    3    0    0 -0.23978949613E+02 -0.10237221922E+02 -0.26709749480E+01  0.26209251122E+02  0.00000000000E+00 0.  1.
</event>
<event>
 7    1  0.2655561E-013  0.7246160E+02  0.7816164E-02  0.1226708E+00
        -11   -1    0    0    0    0  0.00000000000E+00  0.00000000000E+00  0.45593999997E+02  0.45594000000E+02  0.51100000000E-03 0.  1.
         11   -1    0    0    0    0 -0.00000000000E+00 -0.00000000000E+00 -0.45593999997E+02  0.45594000000E+02  0.51100000000E-03 0. -1.
    9900012    2    1    2    0    0 -0.10443269270E+02  0.67434543013E+01 -0.14005073117E+02  0.72461598264E+02  0.70000036436E+02 0.  0.
        -12    1    1    2    0    0  0.10443269270E+02 -0.67434543013E+01  0.14005073117E+02  0.18726401736E+02  0.00000000000E+00 0.  1.
         11    1    3    3    0    0 -0.66961292115E+01  0.23959715416E+02 -0.15193833613E+02  0.29150620737E+02  0.51100000000E-03 0. -1.
        -11    1    3    3    0    0  0.83486494715E+01  0.10004883971E+02  0.33210525234E+01  0.13447194555E+02  0.51100000000E-03 0.  1.
        -12    1    3    3    0    0 -0.12095789530E+02 -0.27221145086E+02 -0.21322920277E+01  0.29863782972E+02  0.00000000000E+00 0.  1.
</event>
<event>
 7    1  0.2655561E-013  0.7246144E+02  0.7816164E-02  0.1226708E+00
        -11   -1    0    0    0    0  0.00000000000E+00  0.00000000000E+00  0.45593999997E+02  0.45594000000E+02  0.51100000000E-03 0. -1.
         11   -1    0    0    0    0 -0.00000000000E+00 -0.00000000000E+00 -0.45593999997E+02  0.45594000000E+02  0.51100000000E-03 0.  1.
    9900012    2    1    2    0    0  0.16018692942E+00  0.17614726143E+02  0.63545244685E+01  0.72461435494E+02  0.69999824398E+02 0.  0.
        -12    1    1    2    0    0 -0.16018692942E+00 -0.17614726143E+02 -0.63545244685E+01  0.18726564506E+02  0.00000000000E+00 0.  1.
         11    1    3    3    0    0 -0.20153710393E+02  0.26645110599E+02  0.12889847614E+02  0.35808967218E+02  0.51100000000E-03 0. -1.
        -11    1    3    3    0    0 -0.10348805982E+01 -0.24387390959E+01  0.90374351086E+01  0.94177311405E+01  0.51100000000E-03 0.  1.
        -12    1    3    3    0    0  0.21348777920E+02 -0.65916453598E+01 -0.15572758254E+02  0.27234737136E+02  0.00000000000E+00 0.  1.
</event>
<event>
 7    1  0.2655561E-013  0.7246158E+02  0.7816164E-02  0.1226708E+00
        -11   -1    0    0    0    0  0.00000000000E+00  0.00000000000E+00  0.45593999997E+02  0.45594000000E+02  0.51100000000E-03 0.  1.
         11   -1    0    0    0    0 -0.00000000000E+00 -0.00000000000E+00 -0.45593999997E+02  0.45594000000E+02  0.51100000000E-03 0. -1.
    9900012    2    1    2    0    0 -0.13424661883E+02 -0.10240783532E+02  0.80983824998E+01  0.72461575004E+02  0.70000006135E+02 0.  0.
        -12    1    1    2    0    0  0.13424661883E+02  0.10240783532E+02 -0.80983824998E+01  0.18726424996E+02  0.00000000000E+00 0.  1.
         11    1    3    3    0    0 -0.22299965180E+01 -0.18939893078E+01  0.51691339142E+01  0.59396991213E+01  0.51100000000E-03 0. -1.
        -11    1    3    3    0    0 -0.96219398425E+01 -0.30424243341E+02  0.20786738789E+02  0.38082867788E+02  0.51100000000E-03 0.  1.
         12    1    3    3    0    0 -0.15727255224E+01  0.22077449116E+02 -0.17857490203E+02  0.28439008095E+02  0.00000000000E+00 0. -1.
</event>
<event>
 7    1  0.4511732E-013  0.7246160E+02  0.7816164E-02  0.1226708E+00
        -11   -1    0    0    0    0  0.00000000000E+00  0.00000000000E+00  0.45593999997E+02  0.45594000000E+02  0.51100000000E-03 0. -1.
         11   -1    0    0    0    0 -0.00000000000E+00 -0.00000000000E+00 -0.45593999997E+02  0.45594000000E+02  0.51100000000E-03 0.  1.
    9900012    2    1    2    0    0  0.75424615675E+01  0.95805355589E+01  0.14212765913E+02  0.72461598771E+02  0.70000037096E+02 0.  0.
        -12    1    1    2    0    0 -0.75424615675E+01 -0.95805355589E+01 -0.14212765913E+02  0.18726401229E+02  0.00000000000E+00 0.  1.
         11    1    3    3    0    0  0.22251823969E+01 -0.50687224177E+01  0.32262172078E+02  0.32733639136E+02  0.51100000000E-03 0. -1.
        -11    1    3    3    0    0 -0.78780036765E+01 -0.59599048163E+01 -0.97702379881E+01  0.13893918020E+02  0.51100000000E-03 0.  1.
        -12    1    3    3    0    0  0.13195282847E+02  0.20609162793E+02 -0.82791681773E+01  0.25834041615E+02  0.00000000000E+00 0.  1.
</event>
<event>
 7    1  0.2655561E-013  0.7246151E+02  0.7816164E-02  0.1226708E+00
        -11   -1    0    0    0    0  0.00000000000E+00  0.00000000000E+00  0.45593999997E+02  0.45594000000E+02  0.51100000000E-03 0.  1.
         11   -1    0    0    0    0 -0.00000000000E+00 -0.00000000000E+00 -0.45593999997E+02  0.45594000000E+02  0.51100000000E-03 0. -1.
    9900012    2    1    2    0    0  0.11691538888E+02 -0.13312564927E+02 -0.60634212547E+01  0.72461506900E+02  0.69999917417E+02 0.  0.
        -12    1    1    2    0    0 -0.11691538888E+02  0.13312564927E+02  0.60634212547E+01  0.18726493100E+02  0.00000000000E+00 0.  1.
         11    1    3    3    0    0 -0.87205577673E+01 -0.81543306647E+01  0.13050102893E+02  0.17687465113E+02  0.51100000000E-03 0. -1.
        -11    1    3    3    0    0  0.30749417537E+02 -0.17380920192E+02 -0.13334599476E+02  0.37754928275E+02  0.51100000000E-03 0.  1.
         12    1    3    3    0    0 -0.10337320882E+02  0.12222685930E+02 -0.57789246715E+01  0.17019113511E+02  0.00000000000E+00 0. -1.
</event>
<event>
 7    1  0.2734981E-013  0.7246157E+02  0.7816164E-02  0.1226708E+00
        -11   -1    0    0    0    0  0.00000000000E+00  0.00000000000E+00  0.45593999997E+02  0.45594000000E+02  0.51100000000E-03 0.  1.
         11   -1    0    0    0    0 -0.00000000000E+00 -0.00000000000E+00 -0.45593999997E+02  0.45594000000E+02  0.51100000000E-03 0. -1.
    9900012    2    1    2    0    0  0.16481148602E+02 -0.80866161957E+01 -0.36956214353E+01  0.72461568451E+02  0.69999997599E+02 0.  0.
        -12    1    1    2    0    0 -0.16481148602E+02  0.80866161957E+01  0.36956214353E+01  0.18726431549E+02  0.00000000000E+00 0.  1.
         11    1    3    3    0    0  0.25420441662E+02  0.21411632242E+02 -0.33963639614E+01  0.33409461803E+02  0.51100000000E-03 0. -1.
        -11    1    3    3    0    0 -0.21691238321E+01 -0.12069878560E+02 -0.11867722623E+02  0.17065459477E+02  0.51100000000E-03 0.  1.
        -12    1    3    3    0    0 -0.67701692273E+01 -0.17428369877E+02  0.11568465149E+02  0.21986647171E+02  0.00000000000E+00 0.  1.
</event>
<event>
 7    1  0.2655561E-013  0.7246157E+02  0.7816164E-02  0.1226708E+00
        -11   -1    0    0    0    0  0.00000000000E+00  0.00000000000E+00  0.45593999997E+02  0.45594000000E+02  0.51100000000E-03 0.  1.
         11   -1    0    0    0    0 -0.00000000000E+00 -0.00000000000E+00 -0.45593999997E+02  0.45594000000E+02  0.51100000000E-03 0. -1.
    9900012    2    1    2    0    0  0.13329874119E+02  0.11379122547E+01 -0.13103384522E+02  0.72461572838E+02  0.70000003314E+02 0.  0.
        -12    1    1    2    0    0 -0.13329874119E+02 -0.11379122547E+01  0.13103384522E+02  0.18726427162E+02  0.00000000000E+00 0.  1.
         11    1    3    3    0    0  0.29686987063E+02  0.15437049695E+02 -0.12199481151E+02  0.35615264211E+02  0.51100000000E-03 0. -1.
        -11    1    3    3    0    0  0.10172460785E+00 -0.19166652562E+02  0.25588533913E+01  0.19336976218E+02  0.51100000000E-03 0.  1.
        -12    1    3    3    0    0 -0.16458837552E+02  0.48675151215E+01 -0.34627567621E+01  0.17509332409E+02  0.00000000000E+00 0.  1.
</event>
<event>
 7    1  0.2655561E-013  0.7246155E+02  0.7816164E-02  0.1226708E+00
        -11   -1    0    0    0    0  0.00000000000E+00  0.00000000000E+00  0.45593999997E+02  0.45594000000E+02  0.51100000000E-03 0. -1.
         11   -1    0    0    0    0 -0.00000000000E+00 -0.00000000000E+00 -0.45593999997E+02  0.45594000000E+02  0.51100000000E-03 0.  1.
    9900012    2    1    2    0    0 -0.12025635207E+02  0.40436812892E+01  0.13773622286E+02  0.72461549952E+02  0.69999973501E+02 0.  0.
        -12    1    1    2    0    0  0.12025635207E+02 -0.40436812892E+01 -0.13773622286E+02  0.18726450048E+02  0.00000000000E+00 0.  1.
         11    1    3    3    0    0  0.20939256482E+02 -0.70824479480E+01 -0.84374372141E+01  0.23660174935E+02  0.51100000000E-03 0. -1.
        -11    1    3    3    0    0  0.23497654974E+01 -0.28262665126E+01 -0.15714555676E+01  0.39973307537E+01  0.51100000000E-03 0.  1.
        -12    1    3    3    0    0 -0.35314657187E+02  0.13952395750E+02  0.23782515068E+02  0.44804044263E+02  0.00000000000E+00 0.  1.
</event>
<event>
 7    1  0.2655561E-013  0.7246160E+02  0.7816164E-02  0.1226708E+00
        -11   -1    0    0    0    0  0.00000000000E+00  0.00000000000E+00  0.45593999997E+02  0.45594000000E+02  0.51100000000E-03 0.  1.
         11   -1    0    0    0    0 -0.00000000000E+00 -0.00000000000E+00 -0.45593999997E+02  0.45594000000E+02  0.51100000000E-03 0. -1.
    9900012    2    1    2    0    0 -0.84459956135E+01  0.66384013033E+01 -0.15338674837E+02  0.72461597262E+02  0.70000035130E+02 0.  0.
        -12    1    1    2    0    0  0.84459956135E+01 -0.66384013033E+01  0.15338674837E+02  0.18726402738E+02  0.00000000000E+00 0.  1.
         11    1    3    3    0    0 -0.17861210804E+02 -0.10936483353E+02 -0.78423876694E+01  0.22363643803E+02  0.51100000000E-03 0. -1.
        -11    1    3    3    0    0 -0.90245047005E+01  0.89391806825E+01  0.15066023839E+02  0.19706235332E+02  0.51100000000E-03 0.  1.
         12    1    3    3    0    0  0.18439719891E+02  0.86357039742E+01 -0.22562311006E+02  0.30391718127E+02  0.00000000000E+00 0. -1.
</event>
<event>
 7    1  0.2655561E-013  0.7246160E+02  0.7816164E-02  0.1226708E+00
        -11   -1    0    0    0    0  0.00000000000E+00  0.00000000000E+00  0.45593999997E+02  0.45594000000E+02  0.51100000000E-03 0. -1.
         11   -1    0    0    0    0 -0.00000000000E+00 -0.00000000000E+00 -0.45593999997E+02  0.45594000000E+02  0.51100000000E-03 0.  1.
    9900012    2    1    2    0    0 -0.31114784953E+00  0.18688792967E+02 -0.11447466770E+01  0.72461595100E+02  0.70000032314E+02 0.  0.
        -12    1    1    2    0    0  0.31114784953E+00 -0.18688792967E+02  0.11447466770E+01  0.18726404900E+02  0.00000000000E+00 0.  1.
         11    1    3    3    0    0 -0.13983099429E+02  0.22035219741E+02  0.18687318524E+02  0.32098190799E+02  0.51100000000E-03 0. -1.
        -11    1    3    3    0    0  0.26421345760E+01 -0.93873892202E+01  0.61280275933E+01  0.11517667903E+02  0.51100000000E-03 0.  1.
        -12    1    3    3    0    0  0.11029817004E+02  0.60409624459E+01 -0.25960092794E+02  0.28845736397E+02  0.00000000000E+00 0.  1.
</event>
<event>
 7    1  0.2655561E-013  0.7246155E+02  0.7816164E-02  0.1226708E+00
        -11   -1    0    0    0    0  0.00000000000E+00  0.00000000000E+00  0.45593999997E+02  0.45594000000E+02  0.51100000000E-03 0. -1.
         11   -1    0    0    0    0 -0.00000000000E+00 -0.00000000000E+00 -0.45593999997E+02  0.45594000000E+02  0.51100000000E-03 0.  1.
    9900012    2    1    2    0    0 -0.66181450917E+01 -0.48749644818E+01  0.16826017487E+02  0.72461548451E+02  0.69999971545E+02 0.  0.
        -12    1    1    2    0    0  0.66181450917E+01  0.48749644818E+01 -0.16826017487E+02  0.18726451549E+02  0.00000000000E+00 0.  1.
         11    1    3    3    0    0 -0.95979134878E+01  0.19710847747E+02 -0.42146845561E+01  0.22324897052E+02  0.51100000000E-03 0. -1.
        -11    1    3    3    0    0 -0.28454530688E+01  0.95413903397E+01  0.69670816255E+00  0.99809886938E+01  0.51100000000E-03 0.  1.
        -12    1    3    3    0    0  0.58252214649E+01 -0.34127202568E+02  0.20343993881E+02  0.40155662705E+02  0.00000000000E+00 0.  1.
</event>
<event>
 7    1  0.2655561E-013  0.7246156E+02  0.7816164E-02  0.1226708E+00
        -11   -1    0    0    0    0  0.00000000000E+00  0.00000000000E+00  0.45593999997E+02  0.45594000000E+02  0.51100000000E-03 0. -1.
         11   -1    0    0    0    0 -0.00000000000E+00 -0.00000000000E+00 -0.45593999997E+02  0.45594000000E+02  0.51100000000E-03 0.  1.
    9900012    2    1    2    0    0 -0.16427822198E+02  0.12350346928E+01  0.89039899193E+01  0.72461556415E+02  0.69999981919E+02 0.  0.
        -12    1    1    2    0    0  0.16427822198E+02 -0.12350346928E+01 -0.89039899193E+01  0.18726443585E+02  0.00000000000E+00 0.  1.
         11    1    3    3    0    0 -0.17351571133E+02 -0.97317332103E+01 -0.56198721710E+01  0.20672847301E+02  0.51100000000E-03 0. -1.
        -11    1    3    3    0    0 -0.22693805241E+02  0.62286119335E+01  0.14611900614E+02  0.27700397881E+02  0.51100000000E-03 0.  1.
        -12    1    3    3    0    0  0.23617554176E+02  0.47381559696E+01 -0.88038523277E-01  0.24088311233E+02  0.00000000000E+00 0.  1.
</event>
<event>
 7    1  0.2655561E-013  0.7246165E+02  0.7816164E-02  0.1226708E+00
        -11   -1    0    0    0    0  0.00000000000E+00  0.00000000000E+00  0.45593999997E+02  0.45594000000E+02  0.51100000000E-03 0.  1.
         11   -1    0    0    0    0 -0.00000000000E+00 -0.00000000000E+00 -0.45593999997E+02  0.45594000000E+02  0.51100000000E-03 0. -1.
    9900012    2    1    2    0    0 -0.92821378905E+01  0.16046244152E+02  0.26526071429E+01  0.72461645314E+02  0.70000097726E+02 0.  0.
        -12    1    1    2    0    0  0.92821378905E+01 -0.16046244152E+02 -0.26526071429E+01  0.18726354686E+02  0.00000000000E+00 0.  1.
         11    1    3    3    0    0 -0.11687625689E+02 -0.10355231718E+02  0.23425231389E+02  0.28152670993E+02  0.51100000000E-03 0. -1.
        -11    1    3    3    0    0  0.73873423423E+01 -0.37594141664E+01 -0.23427680402E+01  0.86136278135E+01  0.51100000000E-03 0.  1.
        -12    1    3    3    0    0 -0.49818545437E+01  0.30160890036E+02 -0.18429856206E+02  0.35695346507E+02  0.00000000000E+00 0.  1.
</event>
<event>
 7    1  0.2655561E-013  0.7246160E+02  0.7816164E-02  0.1226708E+00
        -11   -1    0    0    0    0  0.00000000000E+00  0.00000000000E+00  0.45593999997E+02  0.45594000000E+02  0.51100000000E-03 0.  1.
         11   -1    0    0    0    0 -0.00000000000E+00 -0.00000000000E+00 -0.45593999997E+02  0.45594000000E+02  0.51100000000E-03 0. -1.
    9900012    2    1    2    0    0  0.62480878075E+01  0.16251448976E+02  0.68941848738E+01  0.72461602051E+02  0.70000041369E+02 0.  0.
        -12    1    1    2    0    0 -0.62480878075E+01 -0.16251448976E+02 -0.68941848738E+01  0.18726397949E+02  0.00000000000E+00 0.  1.
         11    1    3    3    0    0 -0.62268698173E+01  0.12735560924E+02  0.10336264123E+02  0.17544422933E+02  0.51100000000E-03 0. -1.
        -11    1    3    3    0    0 -0.20122132763E+02  0.26486048410E+01 -0.83405999692E+01  0.21942674009E+02  0.51100000000E-03 0.  1.
         12    1    3    3    0    0  0.32597090388E+02  0.86728321029E+00  0.48985207202E+01  0.32974505109E+02  0.00000000000E+00 0. -1.
</event>
<event>
 7    1  0.2655561E-013  0.7246158E+02  0.7816164E-02  0.1226708E+00
        -11   -1    0    0    0    0  0.00000000000E+00  0.00000000000E+00  0.45593999997E+02  0.45594000000E+02  0.51100000000E-03 0.  1.
         11   -1    0    0    0    0 -0.00000000000E+00 -0.00000000000E+00 -0.45593999997E+02  0.45594000000E+02  0.51100000000E-03 0. -1.
    9900012    2    1    2    0    0 -0.86926043106E+01  0.16577842012E+02 -0.54089032878E+00  0.72461580752E+02  0.70000013624E+02 0.  0.
        -12    1    1    2    0    0  0.86926043106E+01 -0.16577842012E+02  0.54089032878E+00  0.18726419248E+02  0.00000000000E+00 0.  1.
         11    1    3    3    0    0 -0.10832699936E+02  0.25149966571E+02  0.82822457608E+01  0.28608806363E+02  0.51100000000E-03 0. -1.
        -11    1    3    3    0    0 -0.26236076341E+01 -0.20831432500E+02  0.80263149198E+01  0.22477847506E+02  0.51100000000E-03 0.  1.
         12    1    3    3    0    0  0.47637032591E+01  0.12259307941E+02 -0.16849451009E+02  0.21374926883E+02  0.00000000000E+00 0. -1.
</event>
<event>
 7    1  0.2655561E-013  0.7246154E+02  0.7816164E-02  0.1226708E+00
        -11   -1    0    0    0    0  0.00000000000E+00  0.00000000000E+00  0.45593999997E+02  0.45594000000E+02  0.51100000000E-03 0.  1.
         11   -1    0    0    0    0 -0.00000000000E+00 -0.00000000000E+00 -0.45593999997E+02  0.45594000000E+02  0.51100000000E-03 0. -1.
    9900012    2    1    2    0    0  0.69310927483E+00 -0.93382462381E+00 -0.18690311624E+02  0.72461543381E+02  0.69999964941E+02 0.  0.
        -12    1    1    2    0    0 -0.69310927483E+00  0.93382462381E+00  0.18690311624E+02  0.18726456619E+02  0.00000000000E+00 0.  1.
         11    1    3    3    0    0 -0.14355935384E+02  0.20597724856E+02 -0.29870395157E+02  0.39020503035E+02  0.51100000000E-03 0. -1.
        -11    1    3    3    0    0 -0.34392380521E+01 -0.67279073520E+01  0.46517671766E+01  0.88731073386E+01  0.51100000000E-03 0.  1.
        -12    1    3    3    0    0  0.18488282711E+02 -0.14803642128E+02  0.65283163563E+01  0.24567933008E+02  0.00000000000E+00 0.  1.
</event>
<event>
 7    1  0.2655561E-013  0.7246155E+02  0.7816164E-02  0.1226708E+00
        -11   -1    0    0    0    0  0.00000000000E+00  0.00000000000E+00  0.45593999997E+02  0.45594000000E+02  0.51100000000E-03 0.  1.
         11   -1    0    0    0    0 -0.00000000000E+00 -0.00000000000E+00 -0.45593999997E+02  0.45594000000E+02  0.51100000000E-03 0. -1.
    9900012    2    1    2    0    0  0.83862083115E+01 -0.13429889507E+01 -0.16689746589E+02  0.72461554786E+02  0.69999979797E+02 0.  0.
        -12    1    1    2    0    0 -0.83862083115E+01  0.13429889507E+01  0.16689746589E+02  0.18726445214E+02  0.00000000000E+00 0.  1.
         11    1    3    3    0    0  0.58030329280E+01 -0.26003977236E+02 -0.18559203017E+01  0.26708172227E+02  0.51100000000E-03 0. -1.
        -11    1    3    3    0    0  0.71271145302E+01  0.16062969725E+01 -0.20345450477E+02  0.21617430626E+02  0.51100000000E-03 0.  1.
        -12    1    3    3    0    0 -0.45439391467E+01  0.23054691313E+02  0.55116241903E+01  0.24135951933E+02  0.00000000000E+00 0.  1.
</event>
<event>
 7    1  0.2655561E-013  0.7246158E+02  0.7816164E-02  0.1226708E+00
        -11   -1    0    0    0    0  0.00000000000E+00  0.00000000000E+00  0.45593999997E+02  0.45594000000E+02  0.51100000000E-03 0. -1.
         11   -1    0    0    0    0 -0.00000000000E+00 -0.00000000000E+00 -0.45593999997E+02  0.45594000000E+02  0.51100000000E-03 0.  1.
    9900012    2    1    2    0    0  0.14545493852E+01  0.17827681794E+02 -0.55440985203E+01  0.72461575342E+02  0.70000006576E+02 0.  0.
        -12    1    1    2    0    0 -0.14545493852E+01 -0.17827681794E+02  0.55440985203E+01  0.18726424658E+02  0.00000000000E+00 0.  1.
         11    1    3    3    0    0  0.10494122299E+01  0.19717678907E+01 -0.32232945926E+01  0.39215765879E+01  0.51100000000E-03 0. -1.
        -11    1    3    3    0    0 -0.32747147568E+02  0.12965461431E+02 -0.91802195154E+00  0.35232394590E+02  0.51100000000E-03 0.  1.
         12    1    3    3    0    0  0.33152284724E+02  0.28904524718E+01 -0.14027819762E+01  0.33307604164E+02  0.00000000000E+00 0. -1.
</event>
<event>
 7    1  0.2655561E-013  0.7246168E+02  0.7816164E-02  0.1226708E+00
        -11   -1    0    0    0    0  0.00000000000E+00  0.00000000000E+00  0.45593999997E+02  0.45594000000E+02  0.51100000000E-03 0.  1.
         11   -1    0    0    0    0 -0.00000000000E+00 -0.00000000000E+00 -0.45593999997E+02  0.45594000000E+02  0.51100000000E-03 0. -1.
    9900012    2    1    2    0    0  0.12594360884E+02 -0.71626733064E+01 -0.11863952430E+02  0.72461676757E+02  0.70000138687E+02 0.  0.
        -12    1    1    2    0    0 -0.12594360884E+02  0.71626733064E+01  0.11863952430E+02  0.18726323243E+02  0.00000000000E+00 0.  1.
         11    1    3    3    0    0 -0.11366776103E+02  0.20273174031E+01 -0.19975969564E+01  0.11717679322E+02  0.51100000000E-03 0. -1.
        -11    1    3    3    0    0 -0.42846429714E+01  0.18892955162E+02  0.11842742923E+01  0.19408874929E+02  0.51100000000E-03 0.  1.
         12    1    3    3    0    0  0.28245779958E+02 -0.28082945872E+02 -0.11050629766E+02  0.41335122505E+02  0.00000000000E+00 0. -1.
</event>
<event>
 7    1  0.2655561E-013  0.7246158E+02  0.7816164E-02  0.1226708E+00
        -11   -1    0    0    0    0  0.00000000000E+00  0.00000000000E+00  0.45593999997E+02  0.45594000000E+02  0.51100000000E-03 0.  1.
         11   -1    0    0    0    0 -0.00000000000E+00 -0.00000000000E+00 -0.45593999997E+02  0.45594000000E+02  0.51100000000E-03 0. -1.
    9900012    2    1    2    0    0 -0.38647638285E+01  0.18312345655E+02 -0.63273550478E+00  0.72461581308E+02  0.70000014347E+02 0.  0.
        -12    1    1    2    0    0  0.38647638285E+01 -0.18312345655E+02  0.63273550478E+00  0.18726418692E+02  0.00000000000E+00 0.  1.
         11    1    3    3    0    0 -0.82962957761E+01  0.23859840903E+01 -0.15778899719E+02  0.17985970096E+02  0.51100000000E-03 0. -1.
        -11    1    3    3    0    0  0.94111936397E+01  0.32890718582E+02  0.66129676904E+01  0.34843956098E+02  0.51100000000E-03 0.  1.
        -12    1    3    3    0    0 -0.49796616921E+01 -0.16964357018E+02  0.85331965239E+01  0.19631655114E+02  0.00000000000E+00 0.  1.
</event>
<event>
 7    1  0.2655561E-013  0.7246154E+02  0.7816164E-02  0.1226708E+00
        -11   -1    0    0    0    0  0.00000000000E+00  0.00000000000E+00  0.45593999997E+02  0.45594000000E+02  0.51100000000E-03 0. -1.
         11   -1    0    0    0    0 -0.00000000000E+00 -0.00000000000E+00 -0.45593999997E+02  0.45594000000E+02  0.51100000000E-03 0.  1.
    9900012    2    1    2    0    0 -0.12648437016E+02 -0.12049491398E+02  0.67458904390E+01  0.72461541720E+02  0.69999962777E+02 0.  0.
        -12    1    1    2    0    0  0.12648437016E+02  0.12049491398E+02 -0.67458904390E+01  0.18726458280E+02  0.00000000000E+00 0.  1.
         11    1    3    3    0    0  0.60244957307E+01 -0.22614943159E+01  0.15548710832E+02  0.16827694856E+02  0.51100000000E-03 0. -1.
        -11    1    3    3    0    0  0.64827635573E+01 -0.22403671372E+02  0.56504356930E+01  0.23997461075E+02  0.51100000000E-03 0.  1.
        -12    1    3    3    0    0 -0.25155696304E+02  0.12615674290E+02 -0.14453256086E+02  0.31636385789E+02  0.00000000000E+00 0.  1.
</event>
<event>
 7    1  0.2655561E-013  0.7246133E+02  0.7816164E-02  0.1226709E+00
        -11   -1    0    0    0    0  0.00000000000E+00  0.00000000000E+00  0.45593999997E+02  0.45594000000E+02  0.51100000000E-03 0.  1.
         11   -1    0    0    0    0 -0.00000000000E+00 -0.00000000000E+00 -0.45593999997E+02  0.45594000000E+02  0.51100000000E-03 0. -1.
    9900012    2    1    2    0    0 -0.20373407235E+01  0.20296128356E+01 -0.18504540329E+02  0.72461331896E+02  0.69999689441E+02 0.  0.
        -12    1    1    2    0    0  0.20373407235E+01 -0.20296128356E+01  0.18504540329E+02  0.18726668104E+02  0.00000000000E+00 0.  1.
         11    1    3    3    0    0 -0.12029406530E+02  0.10614823807E+00 -0.10075492569E+02  0.15691827162E+02  0.51100000000E-03 0. -1.
        -11    1    3    3    0    0 -0.10571407854E+02 -0.22007734251E+02 -0.58871369041E+01  0.25114804639E+02  0.51100000000E-03 0.  1.
         12    1    3    3    0    0  0.20563473660E+02  0.23931198849E+02 -0.25419108557E+01  0.31654700095E+02  0.00000000000E+00 0. -1.
</event>
<event>
 7    1  0.2655561E-013  0.7246159E+02  0.7816164E-02  0.1226708E+00
        -11   -1    0    0    0    0  0.00000000000E+00  0.00000000000E+00  0.45593999997E+02  0.45594000000E+02  0.51100000000E-03 0.  1.
         11   -1    0    0    0    0 -0.00000000000E+00 -0.00000000000E+00 -0.45593999997E+02  0.45594000000E+02  0.51100000000E-03 0. -1.
    9900012    2    1    2    0    0 -0.11656466562E+02  0.15373824339E+01 -0.14575382638E+02  0.72461587196E+02  0.70000022018E+02 0.  0.
        -12    1    1    2    0    0  0.11656466562E+02 -0.15373824339E+01  0.14575382638E+02  0.18726412804E+02  0.00000000000E+00 0.  1.
         11    1    3    3    0    0 -0.10965084966E+02 -0.24228480912E+02  0.53940899583E-01  0.26594271667E+02  0.51100000000E-03 0. -1.
        -11    1    3    3    0    0 -0.95360461444E+01  0.93050784285E+01  0.87483261099E+01  0.15939067432E+02  0.51100000000E-03 0.  1.
         12    1    3    3    0    0  0.88446645490E+01  0.16460784917E+02 -0.23377649648E+02  0.29928248097E+02  0.00000000000E+00 0. -1.
</event>
<event>
 7    1  0.2655561E-013  0.7246151E+02  0.7816164E-02  0.1226708E+00
        -11   -1    0    0    0    0  0.00000000000E+00  0.00000000000E+00  0.45593999997E+02  0.45594000000E+02  0.51100000000E-03 0.  1.
         11   -1    0    0    0    0 -0.00000000000E+00 -0.00000000000E+00 -0.45593999997E+02  0.45594000000E+02  0.51100000000E-03 0. -1.
    9900012    2    1    2    0    0  0.78539596040E+01 -0.72788534648E+01 -0.15362776027E+02  0.72461514038E+02  0.69999926715E+02 0.  0.
        -12    1    1    2    0    0 -0.78539596040E+01  0.72788534648E+01  0.15362776027E+02  0.18726485962E+02  0.00000000000E+00 0.  1.
         11    1    3    3    0    0 -0.47200024692E+01 -0.98876837937E+01 -0.92711240580E+01  0.14352646295E+02  0.51100000000E-03 0. -1.
        -11    1    3    3    0    0  0.11349241489E+02  0.25075911767E+02 -0.17765797264E+02  0.32760192093E+02  0.51100000000E-03 0.  1.
         12    1    3    3    0    0  0.12247205839E+01 -0.22467081438E+02  0.11674145294E+02  0.25348675649E+02  0.00000000000E+00 0. -1.
</event>
<event>
 7    1  0.2655561E-013  0.7246151E+02  0.7816164E-02  0.1226708E+00
        -11   -1    0    0    0    0  0.00000000000E+00  0.00000000000E+00  0.45593999997E+02  0.45594000000E+02  0.51100000000E-03 0.  1.
         11   -1    0    0    0    0 -0.00000000000E+00 -0.00000000000E+00 -0.45593999997E+02  0.45594000000E+02  0.51100000000E-03 0. -1.
    9900012    2    1    2    0    0 -0.50099654352E+01 -0.51344814370E+01 -0.17297938176E+02  0.72461512918E+02  0.69999925257E+02 0.  0.
        -12    1    1    2    0    0  0.50099654352E+01  0.51344814370E+01  0.17297938176E+02  0.18726487082E+02  0.00000000000E+00 0.  1.
         11    1    3    3    0    0 -0.11123210780E+02  0.83404036188E+01 -0.10074143463E+02  0.17169056973E+02  0.51100000000E-03 0. -1.
        -11    1    3    3    0    0 -0.20848318973E+02 -0.12452906564E+02 -0.13225393843E+02  0.27652094468E+02  0.51100000000E-03 0.  1.
        -12    1    3    3    0    0  0.26961564318E+02 -0.10219784921E+01  0.60015991300E+01  0.27640361478E+02  0.00000000000E+00 0.  1.
</event>
<event>
 7    1  0.3061695E-013  0.7246157E+02  0.7816164E-02  0.1226708E+00
        -11   -1    0    0    0    0  0.00000000000E+00  0.00000000000E+00  0.45593999997E+02  0.45594000000E+02  0.51100000000E-03 0. -1.
         11   -1    0    0    0    0 -0.00000000000E+00 -0.00000000000E+00 -0.45593999997E+02  0.45594000000E+02  0.51100000000E-03 0.  1.
    9900012    2    1    2    0    0  0.15411639504E+02 -0.49510984786E+01  0.94152719915E+01  0.72461565341E+02  0.69999993548E+02 0.  0.
        -12    1    1    2    0    0 -0.15411639504E+02  0.49510984786E+01 -0.94152719915E+01  0.18726434659E+02  0.00000000000E+00 0.  1.
         11    1    3    3    0    0  0.88370642265E+01  0.52886317157E+01  0.26442341310E+02  0.28377116551E+02  0.51100000000E-03 0. -1.
        -11    1    3    3    0    0 -0.13967269253E+02 -0.85135588997E+01  0.14233292055E+01  0.16419231463E+02  0.51100000000E-03 0.  1.
        -12    1    3    3    0    0  0.20541844531E+02 -0.17261712946E+01 -0.18450398524E+02  0.27665217327E+02  0.00000000000E+00 0.  1.
</event>
<event>
 7    1  0.2655561E-013  0.7246155E+02  0.7816164E-02  0.1226708E+00
        -11   -1    0    0    0    0  0.00000000000E+00  0.00000000000E+00  0.45593999997E+02  0.45594000000E+02  0.51100000000E-03 0.  1.
         11   -1    0    0    0    0 -0.00000000000E+00 -0.00000000000E+00 -0.45593999997E+02  0.45594000000E+02  0.51100000000E-03 0. -1.
    9900012    2    1    2    0    0  0.42107179573E+01 -0.14844977391E+02 -0.10610199292E+02  0.72461552701E+02  0.69999977081E+02 0.  0.
        -12    1    1    2    0    0 -0.42107179573E+01  0.14844977391E+02  0.10610199292E+02  0.18726447299E+02  0.00000000000E+00 0.  1.
         11    1    3    3    0    0 -0.52284388627E+01 -0.97898021937E+01  0.81758602214E+00  0.11128577946E+02  0.51100000000E-03 0. -1.
        -11    1    3    3    0    0 -0.13934635922E+02  0.14498609926E+02 -0.21306350217E+02  0.29297514023E+02  0.51100000000E-03 0.  1.
         12    1    3    3    0    0  0.23373792742E+02 -0.19553785123E+02  0.98785649028E+01  0.32035460732E+02  0.00000000000E+00 0. -1.
</event>
<event>
 7    1  0.2655561E-013  0.7246171E+02  0.7816164E-02  0.1226708E+00
        -11   -1    0    0    0    0  0.00000000000E+00  0.00000000000E+00  0.45593999997E+02  0.45594000000E+02  0.51100000000E-03 0.  1.
         11   -1    0    0    0    0 -0.00000000000E+00 -0.00000000000E+00 -0.45593999997E+02  0.45594000000E+02  0.51100000000E-03 0. -1.
    9900012    2    1    2    0    0 -0.79523547539E+01  0.11235150207E+02 -0.12696661376E+02  0.72461714827E+02  0.70000188280E+02 0.  0.
        -12    1    1    2    0    0  0.79523547539E+01 -0.11235150207E+02  0.12696661376E+02  0.18726285173E+02  0.00000000000E+00 0.  1.
         11    1    3    3    0    0 -0.31601470478E+01 -0.25583940871E+01 -0.52780332339E+00  0.41000593018E+01  0.51100000000E-03 0. -1.
        -11    1    3    3    0    0 -0.19797558697E+02 -0.42798575959E+01  0.20042284310E+02  0.28494800789E+02  0.51100000000E-03 0.  1.
         12    1    3    3    0    0  0.15005350991E+02  0.18073401890E+02 -0.32211142362E+02  0.39866854736E+02  0.00000000000E+00 0. -1.
</event>
<event>
 7    1  0.2655561E-013  0.7246158E+02  0.7816164E-02  0.1226708E+00
        -11   -1    0    0    0    0  0.00000000000E+00  0.00000000000E+00  0.45593999997E+02  0.45594000000E+02  0.51100000000E-03 0. -1.
         11   -1    0    0    0    0 -0.00000000000E+00 -0.00000000000E+00 -0.45593999997E+02  0.45594000000E+02  0.51100000000E-03 0.  1.
    9900012    2    1    2    0    0 -0.24538525983E+01 -0.70364037000E+00  0.18551612293E+02  0.72461579600E+02  0.70000012122E+02 0.  0.
        -12    1    1    2    0    0  0.24538525983E+01  0.70364037000E+00 -0.18551612293E+02  0.18726420400E+02  0.00000000000E+00 0.  1.
         11    1    3    3    0    0 -0.16389102540E+02 -0.71946427190E+01 -0.13429130838E+02  0.22376485900E+02  0.51100000000E-03 0. -1.
        -11    1    3    3    0    0  0.10283978202E+02 -0.13818750935E+02  0.19281158690E+02  0.25855002722E+02  0.51100000000E-03 0.  1.
         12    1    3    3    0    0  0.36512717404E+01  0.20309753284E+02  0.12699584441E+02  0.24230090977E+02  0.00000000000E+00 0. -1.
</event>
<event>
 7    1  0.2655561E-013  0.7246152E+02  0.7816164E-02  0.1226708E+00
        -11   -1    0    0    0    0  0.00000000000E+00  0.00000000000E+00  0.45593999997E+02  0.45594000000E+02  0.51100000000E-03 0. -1.
         11   -1    0    0    0    0 -0.00000000000E+00 -0.00000000000E+00 -0.45593999997E+02  0.45594000000E+02  0.51100000000E-03 0.  1.
    9900012    2    1    2    0    0 -0.61710613505E+01  0.54307641352E+01  0.16825752588E+02  0.72461517484E+02  0.69999931205E+02 0.  0.
        -12    1    1    2    0    0  0.61710613505E+01 -0.54307641352E+01 -0.16825752588E+02  0.18726482516E+02  0.00000000000E+00 0.  1.
         11    1    3    3    0    0  0.14034252806E+01 -0.45901485488E+01  0.59625727624E+01  0.76544980519E+01  0.51100000000E-03 0. -1.
        -11    1    3    3    0    0 -0.22819925671E+02 -0.18317595803E+02 -0.36825056283E+01  0.29493120750E+02  0.51100000000E-03 0.  1.
         12    1    3    3    0    0  0.15245439040E+02  0.28338508487E+02  0.14545685453E+02  0.35313898682E+02  0.00000000000E+00 0. -1.
</event>
<event>
 7    1  0.2655561E-013  0.7246157E+02  0.7816164E-02  0.1226708E+00
        -11   -1    0    0    0    0  0.00000000000E+00  0.00000000000E+00  0.45593999997E+02  0.45594000000E+02  0.51100000000E-03 0.  1.
         11   -1    0    0    0    0 -0.00000000000E+00 -0.00000000000E+00 -0.45593999997E+02  0.45594000000E+02  0.51100000000E-03 0. -1.
    9900012    2    1    2    0    0 -0.55097821354E+00  0.11514650028E+02 -0.14757651590E+02  0.72461574215E+02  0.70000005107E+02 0.  0.
        -12    1    1    2    0    0  0.55097821354E+00 -0.11514650028E+02  0.14757651590E+02  0.18726425785E+02  0.00000000000E+00 0.  1.
         11    1    3    3    0    0  0.22139894505E+01  0.22683866107E+02  0.21466330353E+01  0.22892522021E+02  0.51100000000E-03 0. -1.
        -11    1    3    3    0    0 -0.31448460643E+01  0.27991834696E+01  0.14551963707E+02  0.15148766711E+02  0.51100000000E-03 0.  1.
        -12    1    3    3    0    0  0.37987840028E+00 -0.13968399549E+02 -0.31456248332E+02  0.34420285482E+02  0.00000000000E+00 0.  1.
</event>
<event>
 7    1  0.2655561E-013  0.7246160E+02  0.7816164E-02  0.1226708E+00
        -11   -1    0    0    0    0  0.00000000000E+00  0.00000000000E+00  0.45593999997E+02  0.45594000000E+02  0.51100000000E-03 0.  1.
         11   -1    0    0    0    0 -0.00000000000E+00 -0.00000000000E+00 -0.45593999997E+02  0.45594000000E+02  0.51100000000E-03 0. -1.
    9900012    2    1    2    0    0 -0.62317081672E+01  0.75403764441E+01 -0.15968302454E+02  0.72461597600E+02  0.70000035570E+02 0.  0.
        -12    1    1    2    0    0  0.62317081672E+01 -0.75403764441E+01  0.15968302454E+02  0.18726402400E+02  0.00000000000E+00 0.  1.
         11    1    3    3    0    0 -0.13199224220E+02 -0.11561995220E+02 -0.28357519403E+02  0.33347386111E+02  0.51100000000E-03 0. -1.
        -11    1    3    3    0    0 -0.11196097763E+02  0.92361543703E+01 -0.89771094643E+00  0.14541837500E+02  0.51100000000E-03 0.  1.
        -12    1    3    3    0    0  0.18163613816E+02  0.98662172935E+01  0.13286927895E+02  0.24572373989E+02  0.00000000000E+00 0.  1.
</event>
<event>
 7    1  0.2655561E-013  0.7246157E+02  0.7816164E-02  0.1226708E+00
        -11   -1    0    0    0    0  0.00000000000E+00  0.00000000000E+00  0.45593999997E+02  0.45594000000E+02  0.51100000000E-03 0. -1.
         11   -1    0    0    0    0 -0.00000000000E+00 -0.00000000000E+00 -0.45593999997E+02  0.45594000000E+02  0.51100000000E-03 0.  1.
    9900012    2    1    2    0    0  0.40292829176E+01  0.18029636897E+02 -0.30620834583E+01  0.72461567276E+02  0.69999996067E+02 0.  0.
        -12    1    1    2    0    0 -0.40292829176E+01 -0.18029636897E+02  0.30620834583E+01  0.18726432724E+02  0.00000000000E+00 0.  1.
         11    1    3    3    0    0 -0.21681518725E+02  0.13980044263E+02  0.66708675480E+00  0.25806489432E+02  0.51100000000E-03 0. -1.
        -11    1    3    3    0    0 -0.14233201112E+00  0.86684753900E+01 -0.15589990686E+02  0.17838456600E+02  0.51100000000E-03 0.  1.
         12    1    3    3    0    0  0.25853133654E+02 -0.46188827556E+01  0.11860820473E+02  0.28816621244E+02  0.00000000000E+00 0. -1.
</event>
<event>
 7    1  0.2655561E-013  0.7246156E+02  0.7816164E-02  0.1226708E+00
        -11   -1    0    0    0    0  0.00000000000E+00  0.00000000000E+00  0.45593999997E+02  0.45594000000E+02  0.51100000000E-03 0.  1.
         11   -1    0    0    0    0 -0.00000000000E+00 -0.00000000000E+00 -0.45593999997E+02  0.45594000000E+02  0.51100000000E-03 0. -1.
    9900012    2    1    2    0    0 -0.15527408980E+01  0.18516085262E+02 -0.23287530346E+01  0.72461561246E+02  0.69999988212E+02 0.  0.
        -12    1    1    2    0    0  0.15527408980E+01 -0.18516085262E+02  0.23287530346E+01  0.18726438754E+02  0.00000000000E+00 0.  1.
         11    1    3    3    0    0  0.10129670451E+01  0.33948526521E+02  0.14395868841E+02  0.36888610642E+02  0.51100000000E-03 0. -1.
        -11    1    3    3    0    0  0.36981313579E+01  0.26528329981E+01  0.49049965355E+01  0.66912397753E+01  0.51100000000E-03 0.  1.
        -12    1    3    3    0    0 -0.62638393009E+01 -0.18085274257E+02 -0.21629618411E+02  0.28881710828E+02  0.00000000000E+00 0.  1.
</event>
<event>
 7    1  0.2655561E-013  0.7246159E+02  0.7816164E-02  0.1226708E+00
        -11   -1    0    0    0    0  0.00000000000E+00  0.00000000000E+00  0.45593999997E+02  0.45594000000E+02  0.51100000000E-03 0.  1.
         11   -1    0    0    0    0 -0.00000000000E+00 -0.00000000000E+00 -0.45593999997E+02  0.45594000000E+02  0.51100000000E-03 0. -1.
    9900012    2    1    2    0    0 -0.34088753456E+01 -0.26956122734E+01 -0.18215153203E+02  0.72461586493E+02  0.70000021101E+02 0.  0.
        -12    1    1    2    0    0  0.34088753456E+01  0.26956122734E+01  0.18215153203E+02  0.18726413507E+02  0.00000000000E+00 0.  1.
         11    1    3    3    0    0  0.11467685804E+02  0.17463385246E+02 -0.26740003621E+02  0.33933839097E+02  0.51100000000E-03 0. -1.
        -11    1    3    3    0    0 -0.74835825219E+01  0.44781173384E+01 -0.43693548266E+01  0.97544248483E+01  0.51100000000E-03 0.  1.
        -12    1    3    3    0    0 -0.73929786281E+01 -0.24637114858E+02  0.12894205245E+02  0.28773322547E+02  0.00000000000E+00 0.  1.
</event>
<event>
 7    1  0.2655561E-013  0.7246140E+02  0.7816164E-02  0.1226708E+00
        -11   -1    0    0    0    0  0.00000000000E+00  0.00000000000E+00  0.45593999997E+02  0.45594000000E+02  0.51100000000E-03 0. -1.
         11   -1    0    0    0    0 -0.00000000000E+00 -0.00000000000E+00 -0.45593999997E+02  0.45594000000E+02  0.51100000000E-03 0.  1.
    9900012    2    1    2    0    0  0.10475217228E+02  0.28785816885E+01  0.15253501604E+02  0.72461395403E+02  0.69999772172E+02 0.  0.
        -12    1    1    2    0    0 -0.10475217228E+02 -0.28785816885E+01 -0.15253501604E+02  0.18726604597E+02  0.00000000000E+00 0.  1.
         11    1    3    3    0    0 -0.13704304034E+01 -0.14581172478E+01 -0.23170013101E+01  0.30614834200E+01  0.51100000000E-03 0. -1.
        -11    1    3    3    0    0 -0.24425472853E+02 -0.43671944494E+01 -0.56686420234E+01  0.25452104316E+02  0.51100000000E-03 0.  1.
         12    1    3    3    0    0  0.36271120485E+02  0.87038933857E+01  0.23239144938E+02  0.43947807667E+02  0.00000000000E+00 0. -1.
</event>
<event>
 7    1  0.2655561E-013  0.7246155E+02  0.7816164E-02  0.1226708E+00
        -11   -1    0    0    0    0  0.00000000000E+00  0.00000000000E+00  0.45593999997E+02  0.45594000000E+02  0.51100000000E-03 0.  1.
         11   -1    0    0    0    0 -0.00000000000E+00 -0.00000000000E+00 -0.45593999997E+02  0.45594000000E+02  0.51100000000E-03 0. -1.
    9900012    2    1    2    0    0  0.25357226141E+01  0.13743136740E+02 -0.12464993852E+02  0.72461554306E+02  0.69999979172E+02 0.  0.
        -12    1    1    2    0    0 -0.25357226141E+01 -0.13743136740E+02  0.12464993852E+02  0.18726445694E+02  0.00000000000E+00 0.  1.
         11    1    3    3    0    0  0.23187316286E+01  0.17020286135E+02 -0.13846689977E+02  0.22063487486E+02  0.51100000000E-03 0. -1.
        -11    1    3    3    0    0 -0.63854768575E+01  0.16025110331E+02 -0.16051759658E+02  0.23563477337E+02  0.51100000000E-03 0.  1.
        -12    1    3    3    0    0  0.66024678430E+01 -0.19302259726E+02  0.17433455783E+02  0.26834589483E+02  0.00000000000E+00 0.  1.
</event>
<event>
 7    1  0.3454831E-013  0.7246160E+02  0.7816164E-02  0.1226708E+00
        -11   -1    0    0    0    0  0.00000000000E+00  0.00000000000E+00  0.45593999997E+02  0.45594000000E+02  0.51100000000E-03 0. -1.
         11   -1    0    0    0    0 -0.00000000000E+00 -0.00000000000E+00 -0.45593999997E+02  0.45594000000E+02  0.51100000000E-03 0.  1.
    9900012    2    1    2    0    0  0.41830667433E+01 -0.97970061716E+01  0.15401260442E+02  0.72461596167E+02  0.70000033704E+02 0.  0.
        -12    1    1    2    0    0 -0.41830667433E+01  0.97970061716E+01 -0.15401260442E+02  0.18726403833E+02  0.00000000000E+00 0.  1.
         11    1    3    3    0    0  0.23468063215E+02 -0.27858955215E+01  0.14789672541E+02  0.27879125149E+02  0.51100000000E-03 0. -1.
        -11    1    3    3    0    0  0.83810836547E+01 -0.31074174396E+01 -0.11130386663E+02  0.14275297331E+02  0.51100000000E-03 0.  1.
        -12    1    3    3    0    0 -0.27666080126E+02 -0.39036932105E+01  0.11741974564E+02  0.30307173687E+02  0.00000000000E+00 0.  1.
</event>
<event>
 7    1  0.2655561E-013  0.7246156E+02  0.7816164E-02  0.1226708E+00
        -11   -1    0    0    0    0  0.00000000000E+00  0.00000000000E+00  0.45593999997E+02  0.45594000000E+02  0.51100000000E-03 0. -1.
         11   -1    0    0    0    0 -0.00000000000E+00 -0.00000000000E+00 -0.45593999997E+02  0.45594000000E+02  0.51100000000E-03 0.  1.
    9900012    2    1    2    0    0 -0.14088307449E+02 -0.74341410282E+01 -0.98454463404E+01  0.72461556845E+02  0.69999982479E+02 0.  0.
        -12    1    1    2    0    0  0.14088307449E+02  0.74341410282E+01  0.98454463404E+01  0.18726443155E+02  0.00000000000E+00 0.  1.
         11    1    3    3    0    0  0.96040456059E+01 -0.94462223135E+00 -0.15932996386E+02  0.18627677721E+02  0.51100000000E-03 0. -1.
        -11    1    3    3    0    0 -0.16150700985E+02  0.12134499224E+02 -0.14653414965E+02  0.24956237379E+02  0.51100000000E-03 0.  1.
         12    1    3    3    0    0 -0.75416520701E+01 -0.18624018021E+02  0.20740965010E+02  0.28877641745E+02  0.00000000000E+00 0. -1.
</event>
<event>
 7    1  0.2655561E-013  0.7246149E+02  0.7816164E-02  0.1226708E+00
        -11   -1    0    0    0    0  0.00000000000E+00  0.00000000000E+00  0.45593999997E+02  0.45594000000E+02  0.51100000000E-03 0. -1.
         11   -1    0    0    0    0 -0.00000000000E+00 -0.00000000000E+00 -0.45593999997E+02  0.45594000000E+02  0.51100000000E-03 0.  1.
    9900012    2    1    2    0    0  0.81797770073E+01  0.69444720448E+01  0.15347566183E+02  0.72461488536E+02  0.69999893494E+02 0.  0.
        -12    1    1    2    0    0 -0.81797770073E+01 -0.69444720448E+01 -0.15347566183E+02  0.18726511464E+02  0.00000000000E+00 0.  1.
         11    1    3    3    0    0 -0.52072294939E+01  0.21675048014E+02  0.22300363679E+02  0.31531399682E+02  0.51100000000E-03 0. -1.
        -11    1    3    3    0    0 -0.79138192420E+01 -0.17033176496E+02 -0.48778782311E+01  0.19404930632E+02  0.51100000000E-03 0.  1.
        -12    1    3    3    0    0  0.21300825743E+02  0.23026005265E+01 -0.20749192649E+01  0.21525158222E+02  0.00000000000E+00 0.  1.
</event>
<event>
 7    1  0.2655561E-013  0.7246157E+02  0.7816164E-02  0.1226708E+00
        -11   -1    0    0    0    0  0.00000000000E+00  0.00000000000E+00  0.45593999997E+02  0.45594000000E+02  0.51100000000E-03 0. -1.
         11   -1    0    0    0    0 -0.00000000000E+00 -0.00000000000E+00 -0.45593999997E+02  0.45594000000E+02  0.51100000000E-03 0.  1.
    9900012    2    1    2    0    0 -0.90716196807E+01 -0.32925023718E+01  0.16048188205E+02  0.72461569476E+02  0.69999998934E+02 0.  0.
        -12    1    1    2    0    0  0.90716196807E+01  0.32925023718E+01 -0.16048188205E+02  0.18726430524E+02  0.00000000000E+00 0.  1.
         11    1    3    3    0    0  0.11051772271E+02 -0.10497405670E+02  0.21797893219E+02  0.26598596677E+02  0.51100000000E-03 0. -1.
        -11    1    3    3    0    0 -0.17625865728E+01  0.21693676137E+02  0.51827341333E-01  0.21765224145E+02  0.51100000000E-03 0.  1.
        -12    1    3    3    0    0 -0.18360805379E+02 -0.14488772839E+02 -0.58015323547E+01  0.24097748654E+02  0.00000000000E+00 0.  1.
</event>
<event>
 7    1  0.2655561E-013  0.7246155E+02  0.7816164E-02  0.1226708E+00
        -11   -1    0    0    0    0  0.00000000000E+00  0.00000000000E+00  0.45593999997E+02  0.45594000000E+02  0.51100000000E-03 0.  1.
         11   -1    0    0    0    0 -0.00000000000E+00 -0.00000000000E+00 -0.45593999997E+02  0.45594000000E+02  0.51100000000E-03 0. -1.
    9900012    2    1    2    0    0  0.18716443222E+02  0.46701282759E+00  0.39547974941E+00  0.72461554739E+02  0.69999979736E+02 0.  0.
        -12    1    1    2    0    0 -0.18716443222E+02 -0.46701282759E+00 -0.39547974941E+00  0.18726445261E+02  0.00000000000E+00 0.  1.
         11    1    3    3    0    0  0.19115660756E+02 -0.10722157176E+02 -0.12435034099E+02  0.25199270107E+02  0.51100000000E-03 0. -1.
        -11    1    3    3    0    0  0.16304213620E+02 -0.49398665016E+01  0.16544366835E+02  0.23747541705E+02  0.51100000000E-03 0.  1.
        -12    1    3    3    0    0 -0.16703431153E+02  0.16129036505E+02 -0.37138529868E+01  0.23514742926E+02  0.00000000000E+00 0.  1.
</event>
<event>
 7    1  0.2655561E-013  0.7246159E+02  0.7816164E-02  0.1226708E+00
        -11   -1    0    0    0    0  0.00000000000E+00  0.00000000000E+00  0.45593999997E+02  0.45594000000E+02  0.51100000000E-03 0. -1.
         11   -1    0    0    0    0 -0.00000000000E+00 -0.00000000000E+00 -0.45593999997E+02  0.45594000000E+02  0.51100000000E-03 0.  1.
    9900012    2    1    2    0    0 -0.19903318684E+01 -0.18587676713E+02  0.11024753591E+01  0.72461585542E+02  0.70000019863E+02 0.  0.
        -12    1    1    2    0    0  0.19903318684E+01  0.18587676713E+02 -0.11024753591E+01  0.18726414458E+02  0.00000000000E+00 0.  1.
         11    1    3    3    0    0  0.12777761478E+02 -0.39662509984E+02 -0.86330804662E+01  0.42554858303E+02  0.51100000000E-03 0.  1.
        -11    1    3    3    0    0  0.17668272245E+01  0.27116330565E+01 -0.26926555478E+00  0.32476355205E+01  0.51100000000E-03 0. -1.
        -12    1    3    3    0    0 -0.16534920571E+02  0.18363200214E+02  0.10004821380E+02  0.26659091719E+02  0.00000000000E+00 0.  1.
</event>
<event>
 7    1  0.2655561E-013  0.7246165E+02  0.7816164E-02  0.1226708E+00
        -11   -1    0    0    0    0  0.00000000000E+00  0.00000000000E+00  0.45593999997E+02  0.45594000000E+02  0.51100000000E-03 0.  1.
         11   -1    0    0    0    0 -0.00000000000E+00 -0.00000000000E+00 -0.45593999997E+02  0.45594000000E+02  0.51100000000E-03 0. -1.
    9900012    2    1    2    0    0 -0.16178708453E+02  0.94299645493E+01 -0.35146926363E-01  0.72461652948E+02  0.70000107672E+02 0.  0.
        -12    1    1    2    0    0  0.16178708453E+02 -0.94299645493E+01  0.35146926363E-01  0.18726347052E+02  0.00000000000E+00 0.  1.
         11    1    3    3    0    0  0.58572108726E+00 -0.13507580373E+02  0.41829862186E+01  0.14152567636E+02  0.51100000000E-03 0. -1.
        -11    1    3    3    0    0 -0.33497211405E+01 -0.15658660850E+02  0.42771174012E+01  0.16574318232E+02  0.51100000000E-03 0.  1.
         12    1    3    3    0    0 -0.13414708400E+02  0.38596205772E+02 -0.84952505462E+01  0.41734767080E+02  0.00000000000E+00 0. -1.
</event>
<event>
 7    1  0.2655561E-013  0.7246157E+02  0.7816164E-02  0.1226708E+00
        -11   -1    0    0    0    0  0.00000000000E+00  0.00000000000E+00  0.45593999997E+02  0.45594000000E+02  0.51100000000E-03 0.  1.
         11   -1    0    0    0    0 -0.00000000000E+00 -0.00000000000E+00 -0.45593999997E+02  0.45594000000E+02  0.51100000000E-03 0. -1.
    9900012    2    1    2    0    0  0.15465119572E+01 -0.26873538083E+01 -0.18467961142E+02  0.72461570590E+02  0.70000000385E+02 0.  0.
        -12    1    1    2    0    0 -0.15465119572E+01  0.26873538083E+01  0.18467961142E+02  0.18726429410E+02  0.00000000000E+00 0.  1.
         11    1    3    3    0    0  0.18915995038E+02 -0.81466498016E+00  0.97842931722E+01  0.21312225141E+02  0.51100000000E-03 0.  1.
        -11    1    3    3    0    0  0.35127139105E+01 -0.13209747519E+01  0.82662735448E+01  0.90782934459E+01  0.51100000000E-03 0. -1.
         12    1    3    3    0    0 -0.20882196992E+02 -0.55171407623E+00 -0.36518527859E+02  0.42071052003E+02  0.00000000000E+00 0. -1.
</event>
<event>
 7    1  0.2655561E-013  0.7246159E+02  0.7816164E-02  0.1226708E+00
        -11   -1    0    0    0    0  0.00000000000E+00  0.00000000000E+00  0.45593999997E+02  0.45594000000E+02  0.51100000000E-03 0. -1.
         11   -1    0    0    0    0 -0.00000000000E+00 -0.00000000000E+00 -0.45593999997E+02  0.45594000000E+02  0.51100000000E-03 0.  1.
    9900012    2    1    2    0    0 -0.94164558642E+00 -0.19446360617E+01  0.18601349544E+02  0.72461587885E+02  0.70000022916E+02 0.  0.
        -12    1    1    2    0    0  0.94164558642E+00  0.19446360617E+01 -0.18601349544E+02  0.18726412115E+02  0.00000000000E+00 0.  1.
         11    1    3    3    0    0  0.60092138936E+01 -0.18139497259E+02  0.88434863627E+01  0.21056098018E+02  0.51100000000E-03 0. -1.
        -11    1    3    3    0    0 -0.87614627177E+01  0.74670427288E+01  0.28453313815E+02  0.30693827122E+02  0.51100000000E-03 0.  1.
        -12    1    3    3    0    0  0.18106032377E+01  0.87278184683E+01 -0.18695450634E+02  0.20711662746E+02  0.00000000000E+00 0.  1.
</event>
<event>
 7    1  0.3876471E-013  0.7246158E+02  0.7816164E-02  0.1226708E+00
        -11   -1    0    0    0    0  0.00000000000E+00  0.00000000000E+00  0.45593999997E+02  0.45594000000E+02  0.51100000000E-03 0. -1.
         11   -1    0    0    0    0 -0.00000000000E+00 -0.00000000000E+00 -0.45593999997E+02  0.45594000000E+02  0.51100000000E-03 0.  1.
    9900012    2    1    2    0    0 -0.27208290396E+01 -0.11785704073E+02  0.14295913659E+02  0.72461578065E+02  0.70000010122E+02 0.  0.
        -12    1    1    2    0    0  0.27208290396E+01  0.11785704073E+02 -0.14295913659E+02  0.18726421935E+02  0.00000000000E+00 0.  1.
         11    1    3    3    0    0  0.56406240251E+01 -0.91028278370E+01  0.39875918270E+02  0.41288823817E+02  0.51100000000E-03 0. -1.
        -11    1    3    3    0    0  0.36322674587E+01  0.31982195530E+00 -0.12031561801E+01  0.38396924394E+01  0.51100000000E-03 0.  1.
        -12    1    3    3    0    0 -0.11993720523E+02 -0.30026981909E+01 -0.24376848431E+02  0.27333061809E+02  0.00000000000E+00 0.  1.
</event>
<event>
 7    1  0.2655561E-013  0.7246158E+02  0.7816164E-02  0.1226708E+00
        -11   -1    0    0    0    0  0.00000000000E+00  0.00000000000E+00  0.45593999997E+02  0.45594000000E+02  0.51100000000E-03 0. -1.
         11   -1    0    0    0    0 -0.00000000000E+00 -0.00000000000E+00 -0.45593999997E+02  0.45594000000E+02  0.51100000000E-03 0.  1.
    9900012    2    1    2    0    0  0.14647088932E+02  0.11641454127E+02  0.78610254857E+00  0.72461584817E+02  0.70000018919E+02 0.  0.
        -12    1    1    2    0    0 -0.14647088932E+02 -0.11641454127E+02 -0.78610254857E+00  0.18726415183E+02  0.00000000000E+00 0.  1.
         11    1    3    3    0    0  0.31817728558E+02  0.28999861271E+02 -0.94557410149E+01  0.44076874239E+02  0.51100000000E-03 0. -1.
        -11    1    3    3    0    0 -0.22396099736E+01  0.12806158829E+01  0.12413264870E+01  0.28629917188E+01  0.51100000000E-03 0.  1.
        -12    1    3    3    0    0 -0.14931029652E+02 -0.18639023027E+02  0.90005170765E+01  0.25521718859E+02  0.00000000000E+00 0.  1.
</event>
<event>
 7    1  0.2655561E-013  0.7246158E+02  0.7816164E-02  0.1226708E+00
        -11   -1    0    0    0    0  0.00000000000E+00  0.00000000000E+00  0.45593999997E+02  0.45594000000E+02  0.51100000000E-03 0.  1.
         11   -1    0    0    0    0 -0.00000000000E+00 -0.00000000000E+00 -0.45593999997E+02  0.45594000000E+02  0.51100000000E-03 0. -1.
    9900012    2    1    2    0    0  0.17251354181E+02  0.57477690294E+01 -0.44757783688E+01  0.72461583848E+02  0.70000017656E+02 0.  0.
        -12    1    1    2    0    0 -0.17251354181E+02 -0.57477690294E+01  0.44757783688E+01  0.18726416152E+02  0.00000000000E+00 0.  1.
         11    1    3    3    0    0  0.23806155576E+02 -0.38060755676E+01 -0.96335606557E+01  0.25961986552E+02  0.51100000000E-03 0. -1.
        -11    1    3    3    0    0  0.13112167626E+02  0.86620073468E+00 -0.12905715022E+02  0.18418380061E+02  0.51100000000E-03 0.  1.
        -12    1    3    3    0    0 -0.19666969021E+02  0.86876438623E+01  0.18063497309E+02  0.28081217235E+02  0.00000000000E+00 0.  1.
</event>
<event>
 7    1  0.2655561E-013  0.7246161E+02  0.7816164E-02  0.1226708E+00
        -11   -1    0    0    0    0  0.00000000000E+00  0.00000000000E+00  0.45593999997E+02  0.45594000000E+02  0.51100000000E-03 0. -1.
         11   -1    0    0    0    0 -0.00000000000E+00 -0.00000000000E+00 -0.45593999997E+02  0.45594000000E+02  0.51100000000E-03 0.  1.
    9900012    2    1    2    0    0  0.15360092111E+02 -0.82147200519E+01  0.68748642412E+01  0.72461606500E+02  0.70000047165E+02 0.  0.
        -12    1    1    2    0    0 -0.15360092111E+02  0.82147200519E+01 -0.68748642412E+01  0.18726393500E+02  0.00000000000E+00 0.  1.
         11    1    3    3    0    0  0.91715148197E+01 -0.22543462183E+02  0.50075841572E+01  0.24847540535E+02  0.51100000000E-03 0. -1.
        -11    1    3    3    0    0  0.20848092952E+02  0.53843308698E+01  0.14789850706E+02  0.26122283262E+02  0.51100000000E-03 0.  1.
         12    1    3    3    0    0 -0.14659515661E+02  0.89444112617E+01 -0.12922570622E+02  0.21491782702E+02  0.00000000000E+00 0. -1.
</event>
<event>
 7    1  0.4625970E-013  0.7246158E+02  0.7816164E-02  0.1226708E+00
        -11   -1    0    0    0    0  0.00000000000E+00  0.00000000000E+00  0.45593999997E+02  0.45594000000E+02  0.51100000000E-03 0. -1.
         11   -1    0    0    0    0 -0.00000000000E+00 -0.00000000000E+00 -0.45593999997E+02  0.45594000000E+02  0.51100000000E-03 0.  1.
    9900012    2    1    2    0    0  0.23679074093E+01 -0.94105549896E+01  0.16016037100E+02  0.72461575485E+02  0.70000006762E+02 0.  0.
        -12    1    1    2    0    0 -0.23679074093E+01  0.94105549896E+01 -0.16016037100E+02  0.18726424515E+02  0.00000000000E+00 0.  1.
         11    1    3    3    0    0  0.46785689908E+01 -0.29981453299E+01  0.26060450396E+02  0.26646293519E+02  0.51100000000E-03 0. -1.
        -11    1    3    3    0    0 -0.71882350937E+01  0.98675183683E+01  0.12572727709E+02  0.17524614826E+02  0.51100000000E-03 0.  1.
        -12    1    3    3    0    0  0.48775735122E+01 -0.16279928028E+02 -0.22617141005E+02  0.28290667139E+02  0.00000000000E+00 0.  1.
</event>
<event>
 7    1  0.2655561E-013  0.7246160E+02  0.7816164E-02  0.1226708E+00
        -11   -1    0    0    0    0  0.00000000000E+00  0.00000000000E+00  0.45593999997E+02  0.45594000000E+02  0.51100000000E-03 0.  1.
         11   -1    0    0    0    0 -0.00000000000E+00 -0.00000000000E+00 -0.45593999997E+02  0.45594000000E+02  0.51100000000E-03 0. -1.
    9900012    2    1    2    0    0 -0.10407280042E+02 -0.13896233434E+02 -0.70186505549E+01  0.72461595189E+02  0.70000032430E+02 0.  0.
        -12    1    1    2    0    0  0.10407280042E+02  0.13896233434E+02  0.70186505549E+01  0.18726404811E+02  0.00000000000E+00 0.  1.
         11    1    3    3    0    0  0.10389417747E+02  0.10873629595E+02  0.99056060432E+01  0.18008244029E+02  0.51100000000E-03 0.  1.
        -11    1    3    3    0    0  0.60496002994E+01 -0.17351962247E+02 -0.19114450735E+02  0.26515099185E+02  0.51100000000E-03 0. -1.
         12    1    3    3    0    0 -0.26846298088E+02 -0.74179007822E+01  0.21901941374E+01  0.27938251975E+02  0.00000000000E+00 0. -1.
</event>
<event>
 7    1  0.2655561E-013  0.7246157E+02  0.7816164E-02  0.1226708E+00
        -11   -1    0    0    0    0  0.00000000000E+00  0.00000000000E+00  0.45593999997E+02  0.45594000000E+02  0.51100000000E-03 0.  1.
         11   -1    0    0    0    0 -0.00000000000E+00 -0.00000000000E+00 -0.45593999997E+02  0.45594000000E+02  0.51100000000E-03 0. -1.
    9900012    2    1    2    0    0 -0.56317353648E+01 -0.13917452555E+02  0.11192290271E+02  0.72461567068E+02  0.69999995798E+02 0.  0.
        -12    1    1    2    0    0  0.56317353648E+01  0.13917452555E+02 -0.11192290271E+02  0.18726432932E+02  0.00000000000E+00 0.  1.
         11    1    3    3    0    0 -0.14477438572E+02 -0.25890741064E+02  0.31935298806E+01  0.29834968306E+02  0.51100000000E-03 0. -1.
        -11    1    3    3    0    0 -0.11676605335E+02  0.13437358911E+02 -0.47472116782E+01  0.18423944899E+02  0.51100000000E-03 0.  1.
        -12    1    3    3    0    0  0.20522308542E+02 -0.14640704021E+01  0.12745972068E+02  0.24202653863E+02  0.00000000000E+00 0.  1.
</event>
<event>
 7    1  0.2655561E-013  0.7246157E+02  0.7816164E-02  0.1226708E+00
        -11   -1    0    0    0    0  0.00000000000E+00  0.00000000000E+00  0.45593999997E+02  0.45594000000E+02  0.51100000000E-03 0. -1.
         11   -1    0    0    0    0 -0.00000000000E+00 -0.00000000000E+00 -0.45593999997E+02  0.45594000000E+02  0.51100000000E-03 0.  1.
    9900012    2    1    2    0    0 -0.17848633692E+02 -0.53493553856E+01  0.18681067936E+01  0.72461570796E+02  0.70000000654E+02 0.  0.
        -12    1    1    2    0    0  0.17848633692E+02  0.53493553856E+01 -0.18681067936E+01  0.18726429204E+02  0.00000000000E+00 0.  1.
         11    1    3    3    0    0 -0.39754522389E+01  0.81176799352E+01  0.25278131040E+02  0.26845574256E+02  0.51100000000E-03 0. -1.
        -11    1    3    3    0    0  0.60888611023E+01 -0.11571855947E+01 -0.21167969387E+02  0.22056659680E+02  0.51100000000E-03 0.  1.
         12    1    3    3    0    0 -0.19962042556E+02 -0.12309849726E+02 -0.22420548592E+01  0.23559336860E+02  0.00000000000E+00 0. -1.
</event>
<event>
 7    1  0.2655561E-013  0.7246151E+02  0.7816164E-02  0.1226708E+00
        -11   -1    0    0    0    0  0.00000000000E+00  0.00000000000E+00  0.45593999997E+02  0.45594000000E+02  0.51100000000E-03 0.  1.
         11   -1    0    0    0    0 -0.00000000000E+00 -0.00000000000E+00 -0.45593999997E+02  0.45594000000E+02  0.51100000000E-03 0. -1.
    9900012    2    1    2    0    0  0.14035169493E+02 -0.12274796162E+02  0.17391623051E+01  0.72461513703E+02  0.69999926279E+02 0.  0.
        -12    1    1    2    0    0 -0.14035169493E+02  0.12274796162E+02 -0.17391623051E+01  0.18726486297E+02  0.00000000000E+00 0.  1.
         11    1    3    3    0    0  0.20487590853E+00  0.18338437961E+02  0.76496828256E+01  0.19871032398E+02  0.51100000000E-03 0. -1.
        -11    1    3    3    0    0  0.28052898986E+01  0.97254993392E+01  0.11258037861E+01  0.10184420614E+02  0.51100000000E-03 0.  1.
         12    1    3    3    0    0  0.11025003685E+02 -0.40338733462E+02 -0.70363243066E+01  0.42406060691E+02  0.00000000000E+00 0. -1.
</event>
<event>
 7    1  0.2655561E-013  0.7246187E+02  0.7816164E-02  0.1226707E+00
        -11   -1    0    0    0    0  0.00000000000E+00  0.00000000000E+00  0.45593999997E+02  0.45594000000E+02  0.51100000000E-03 0.  1.
         11   -1    0    0    0    0 -0.00000000000E+00 -0.00000000000E+00 -0.45593999997E+02  0.45594000000E+02  0.51100000000E-03 0. -1.
    9900012    2    1    2    0    0  0.86913500270E+01  0.16363895496E+02  0.27113244297E+01  0.72461870628E+02  0.70000391239E+02 0.  0.
        -12    1    1    2    0    0 -0.86913500270E+01 -0.16363895496E+02 -0.27113244297E+01  0.18726129372E+02  0.00000000000E+00 0.  1.
         11    1    3    3    0    0  0.24232890770E+02  0.32878142620E+01  0.22013101225E+02  0.32903181358E+02  0.51100000000E-03 0. -1.
        -11    1    3    3    0    0  0.52907250494E+01  0.11588335729E+02 -0.11807549732E+02  0.17369499919E+02  0.51100000000E-03 0.  1.
        -12    1    3    3    0    0 -0.20832265792E+02  0.14877455051E+01 -0.74942270633E+01  0.22189189350E+02  0.00000000000E+00 0.  1.
</event>
<event>
 7    1  0.2655561E-013  0.7246158E+02  0.7816164E-02  0.1226708E+00
        -11   -1    0    0    0    0  0.00000000000E+00  0.00000000000E+00  0.45593999997E+02  0.45594000000E+02  0.51100000000E-03 0.  1.
         11   -1    0    0    0    0 -0.00000000000E+00 -0.00000000000E+00 -0.45593999997E+02  0.45594000000E+02  0.51100000000E-03 0. -1.
    9900012    2    1    2    0    0  0.64682179723E+01  0.46045202616E+01 -0.16959937055E+02  0.72461577077E+02  0.70000008836E+02 0.  0.
        -12    1    1    2    0    0 -0.64682179723E+01 -0.46045202616E+01  0.16959937055E+02  0.18726422923E+02  0.00000000000E+00 0.  1.
         11    1    3    3    0    0  0.15290027027E+02 -0.22709048388E+02 -0.16905673987E+02  0.32175885666E+02  0.51100000000E-03 0. -1.
        -11    1    3    3    0    0 -0.81648763869E+01 -0.34372413316E+01  0.30556038694E+01  0.93710484821E+01  0.51100000000E-03 0.  1.
        -12    1    3    3    0    0 -0.65693266774E+00  0.30750809982E+02 -0.31098669368E+01  0.30914642929E+02  0.00000000000E+00 0.  1.
</event>
<event>
 7    1  0.2655561E-013  0.7246151E+02  0.7816164E-02  0.1226708E+00
        -11   -1    0    0    0    0  0.00000000000E+00  0.00000000000E+00  0.45593999997E+02  0.45594000000E+02  0.51100000000E-03 0.  1.
         11   -1    0    0    0    0 -0.00000000000E+00 -0.00000000000E+00 -0.45593999997E+02  0.45594000000E+02  0.51100000000E-03 0. -1.
    9900012    2    1    2    0    0  0.16764652681E+02  0.83441892603E+01 -0.48031454276E-01  0.72461511249E+02  0.69999923082E+02 0.  0.
        -12    1    1    2    0    0 -0.16764652681E+02 -0.83441892603E+01  0.48031454276E-01  0.18726488751E+02  0.00000000000E+00 0.  1.
         11    1    3    3    0    0 -0.93191956225E+01 -0.34233097169E+01 -0.15032638009E+02  0.18015178662E+02  0.51100000000E-03 0. -1.
        -11    1    3    3    0    0  0.19394226774E+00 -0.14969845238E+02  0.24242036802E+01  0.15166101800E+02  0.51100000000E-03 0.  1.
        -12    1    3    3    0    0  0.25889906036E+02  0.26737344215E+02  0.12560402875E+02  0.39280230786E+02  0.00000000000E+00 0.  1.
</event>
<event>
 7    1  0.2655561E-013  0.7246154E+02  0.7816164E-02  0.1226708E+00
        -11   -1    0    0    0    0  0.00000000000E+00  0.00000000000E+00  0.45593999997E+02  0.45594000000E+02  0.51100000000E-03 0.  1.
         11   -1    0    0    0    0 -0.00000000000E+00 -0.00000000000E+00 -0.45593999997E+02  0.45594000000E+02  0.51100000000E-03 0. -1.
    9900012    2    1    2    0    0 -0.11956086914E+02 -0.14014948528E+02  0.33635674492E+01  0.72461537907E+02  0.69999957809E+02 0.  0.
        -12    1    1    2    0    0  0.11956086914E+02  0.14014948528E+02 -0.33635674492E+01  0.18726462093E+02  0.00000000000E+00 0.  1.
         11    1    3    3    0    0 -0.25375323714E+02 -0.16252450854E+02 -0.10467154755E+02  0.31900008484E+02  0.51100000000E-03 0. -1.
        -11    1    3    3    0    0 -0.63909664597E+01 -0.10399405666E+02 -0.18025102332E+01  0.12338603401E+02  0.51100000000E-03 0.  1.
        -12    1    3    3    0    0  0.19810203260E+02  0.12636907992E+02  0.15633232437E+02  0.28222926022E+02  0.00000000000E+00 0.  1.
</event>
<event>
 7    1  0.2655561E-013  0.7246158E+02  0.7816164E-02  0.1226708E+00
        -11   -1    0    0    0    0  0.00000000000E+00  0.00000000000E+00  0.45593999997E+02  0.45594000000E+02  0.51100000000E-03 0. -1.
         11   -1    0    0    0    0 -0.00000000000E+00 -0.00000000000E+00 -0.45593999997E+02  0.45594000000E+02  0.51100000000E-03 0.  1.
    9900012    2    1    2    0    0  0.11934885377E+02  0.14307557916E+02 -0.18790971467E+01  0.72461582602E+02  0.70000016033E+02 0.  0.
        -12    1    1    2    0    0 -0.11934885377E+02 -0.14307557916E+02  0.18790971467E+01  0.18726417398E+02  0.00000000000E+00 0.  1.
         11    1    3    3    0    0 -0.18741543428E+02  0.22983285863E+02  0.97582479011E+01  0.31220190286E+02  0.51100000000E-03 0.  1.
        -11    1    3    3    0    0  0.21226963745E+02  0.23260629814E+01  0.18530220933E+01  0.21434277454E+02  0.51100000000E-03 0. -1.
        -12    1    3    3    0    0  0.94494650604E+01 -0.11001790929E+02 -0.13490367141E+02  0.19807114862E+02  0.00000000000E+00 0.  1.
</event>
<event>
 7    1  0.2655561E-013  0.7246193E+02  0.7816164E-02  0.1226707E+00
        -11   -1    0    0    0    0  0.00000000000E+00  0.00000000000E+00  0.45593999997E+02  0.45594000000E+02  0.51100000000E-03 0.  1.
         11   -1    0    0    0    0 -0.00000000000E+00 -0.00000000000E+00 -0.45593999997E+02  0.45594000000E+02  0.51100000000E-03 0. -1.
    9900012    2    1    2    0    0 -0.17359059835E+02  0.68701167266E+01 -0.14595643213E+01  0.72461927529E+02  0.70000465363E+02 0.  0.
        -12    1    1    2    0    0  0.17359059835E+02 -0.68701167266E+01  0.14595643213E+01  0.18726072471E+02  0.00000000000E+00 0.  1.
         11    1    3    3    0    0 -0.34996474920E+02  0.17056559777E+01  0.14821552204E+02  0.38043934197E+02  0.51100000000E-03 0. -1.
        -11    1    3    3    0    0 -0.28967758398E+01  0.82932797099E+01 -0.14695087064E+01  0.89066971831E+01  0.51100000000E-03 0.  1.
        -12    1    3    3    0    0  0.20534190926E+02 -0.31288189610E+01 -0.14811607819E+02  0.25511296150E+02  0.00000000000E+00 0.  1.
</event>
<event>
 7    1  0.2655561E-013  0.7246165E+02  0.7816164E-02  0.1226708E+00
        -11   -1    0    0    0    0  0.00000000000E+00  0.00000000000E+00  0.45593999997E+02  0.45594000000E+02  0.51100000000E-03 0.  1.
         11   -1    0    0    0    0 -0.00000000000E+00 -0.00000000000E+00 -0.45593999997E+02  0.45594000000E+02  0.51100000000E-03 0. -1.
    9900012    2    1    2    0    0 -0.17385173109E+02 -0.14406404332E+01  0.68085504648E+01  0.72461653631E+02  0.70000108561E+02 0.  0.
        -12    1    1    2    0    0  0.17385173109E+02  0.14406404332E+01 -0.68085504648E+01  0.18726346369E+02  0.00000000000E+00 0.  1.
         11    1    3    3    0    0 -0.25798226447E+02  0.56127791568E+01  0.86923025258E+01  0.27795825247E+02  0.51100000000E-03 0. -1.
        -11    1    3    3    0    0  0.23271783431E+00  0.31458502388E+01  0.19417524585E+02  0.19672081552E+02  0.51100000000E-03 0.  1.
         12    1    3    3    0    0  0.81803355038E+01 -0.10199269829E+02 -0.21301276646E+02  0.24993746833E+02  0.00000000000E+00 0. -1.
</event>
<event>
 7    1  0.2655561E-013  0.7246160E+02  0.7816164E-02  0.1226708E+00
        -11   -1    0    0    0    0  0.00000000000E+00  0.00000000000E+00  0.45593999997E+02  0.45594000000E+02  0.51100000000E-03 0.  1.
         11   -1    0    0    0    0 -0.00000000000E+00 -0.00000000000E+00 -0.45593999997E+02  0.45594000000E+02  0.51100000000E-03 0. -1.
    9900012    2    1    2    0    0  0.83685190586E+01  0.26640250863E+01 -0.16539315076E+02  0.72461599276E+02  0.70000037754E+02 0.  0.
        -12    1    1    2    0    0 -0.83685190586E+01 -0.26640250863E+01  0.16539315076E+02  0.18726400724E+02  0.00000000000E+00 0.  1.
         11    1    3    3    0    0  0.21158387269E+00  0.78527421479E+01  0.13342163846E+01  0.79680901475E+01  0.51100000000E-03 0. -1.
        -11    1    3    3    0    0  0.28906913734E+02  0.10749377520E+02  0.30503865827E+01  0.30991347781E+02  0.51100000000E-03 0.  1.
         12    1    3    3    0    0 -0.20749978549E+02 -0.15938094582E+02 -0.20923918043E+02  0.33502161347E+02  0.00000000000E+00 0. -1.
</event>
<event>
 7    1  0.2655561E-013  0.7246158E+02  0.7816164E-02  0.1226708E+00
        -11   -1    0    0    0    0  0.00000000000E+00  0.00000000000E+00  0.45593999997E+02  0.45594000000E+02  0.51100000000E-03 0.  1.
         11   -1    0    0    0    0 -0.00000000000E+00 -0.00000000000E+00 -0.45593999997E+02  0.45594000000E+02  0.51100000000E-03 0. -1.
    9900012    2    1    2    0    0  0.15099447007E+02 -0.28919558498E+01 -0.10692159253E+02  0.72461575407E+02  0.70000006661E+02 0.  0.
        -12    1    1    2    0    0 -0.15099447007E+02  0.28919558498E+01  0.10692159253E+02  0.18726424593E+02  0.00000000000E+00 0.  1.
         11    1    3    3    0    0  0.34693170842E+01 -0.98196355729E+01  0.29591345413E+01  0.10826720709E+02  0.51100000000E-03 0. -1.
        -11    1    3    3    0    0  0.35097619687E+02  0.90243565543E+00 -0.32215338851E+01  0.35256709697E+02  0.51100000000E-03 0.  1.
        -12    1    3    3    0    0 -0.23467489765E+02  0.60252440676E+01 -0.10429759909E+02  0.26378145001E+02  0.00000000000E+00 0.  1.
</event>
<event>
 7    1  0.2655561E-013  0.7246143E+02  0.7816164E-02  0.1226708E+00
        -11   -1    0    0    0    0  0.00000000000E+00  0.00000000000E+00  0.45593999997E+02  0.45594000000E+02  0.51100000000E-03 0.  1.
         11   -1    0    0    0    0 -0.00000000000E+00 -0.00000000000E+00 -0.45593999997E+02  0.45594000000E+02  0.51100000000E-03 0. -1.
    9900012    2    1    2    0    0  0.60930995485E+01 -0.39414008309E+01 -0.17263373681E+02  0.72461426009E+02  0.69999812041E+02 0.  0.
        -12    1    1    2    0    0 -0.60930995485E+01  0.39414008309E+01  0.17263373681E+02  0.18726573991E+02  0.00000000000E+00 0.  1.
         11    1    3    3    0    0 -0.35298474529E+01 -0.19218249571E+02  0.70042383751E+01  0.20757174545E+02  0.51100000000E-03 0. -1.
        -11    1    3    3    0    0  0.11840290465E+02 -0.12827301992E+02 -0.88318492015E+01  0.19563581351E+02  0.51100000000E-03 0.  1.
        -12    1    3    3    0    0 -0.22173434635E+01  0.28104150732E+02 -0.15435762854E+02  0.32140670113E+02  0.00000000000E+00 0.  1.
</event>
<event>
 7    1  0.2655561E-013  0.7246162E+02  0.7816164E-02  0.1226708E+00
        -11   -1    0    0    0    0  0.00000000000E+00  0.00000000000E+00  0.45593999997E+02  0.45594000000E+02  0.51100000000E-03 0. -1.
         11   -1    0    0    0    0 -0.00000000000E+00 -0.00000000000E+00 -0.45593999997E+02  0.45594000000E+02  0.51100000000E-03 0.  1.
    9900012    2    1    2    0    0  0.57203954124E+01 -0.10006669550E+02  0.14758753806E+02  0.72461623600E+02  0.70000069440E+02 0.  0.
        -12    1    1    2    0    0 -0.57203954124E+01  0.10006669550E+02 -0.14758753806E+02  0.18726376400E+02  0.00000000000E+00 0.  1.
         11    1    3    3    0    0  0.81707227859E+01 -0.55663673593E+01  0.12238897810E+02  0.15733269726E+02  0.51100000000E-03 0. -1.
        -11    1    3    3    0    0  0.85345598077E+01 -0.27384139799E+02 -0.70718297227E+01  0.29542183391E+02  0.51100000000E-03 0.  1.
         12    1    3    3    0    0 -0.10984887181E+02  0.22943837608E+02  0.95916857196E+01  0.27186170482E+02  0.00000000000E+00 0. -1.
</event>
<event>
 7    1  0.2655561E-013  0.7246161E+02  0.7816164E-02  0.1226708E+00
        -11   -1    0    0    0    0  0.00000000000E+00  0.00000000000E+00  0.45593999997E+02  0.45594000000E+02  0.51100000000E-03 0.  1.
         11   -1    0    0    0    0 -0.00000000000E+00 -0.00000000000E+00 -0.45593999997E+02  0.45594000000E+02  0.51100000000E-03 0. -1.
    9900012    2    1    2    0    0  0.14267046393E+02 -0.12117147152E+02  0.55104329075E+00  0.72461614428E+02  0.70000057492E+02 0.  0.
        -12    1    1    2    0    0 -0.14267046393E+02  0.12117147152E+02 -0.55104329075E+00  0.18726385572E+02  0.00000000000E+00 0.  1.
         11    1    3    3    0    0 -0.29164960762E+01  0.32263750963E+01  0.21857003350E+01  0.48675180370E+01  0.51100000000E-03 0. -1.
        -11    1    3    3    0    0 -0.22589137323E+02  0.45169881450E+01 -0.21404806492E+01  0.23135556284E+02  0.51100000000E-03 0.  1.
         12    1    3    3    0    0  0.39772679792E+02 -0.19860510393E+02  0.50582360495E+00  0.44458540107E+02  0.00000000000E+00 0. -1.
</event>
<event>
 7    1  0.2655561E-013  0.7246157E+02  0.7816164E-02  0.1226708E+00
        -11   -1    0    0    0    0  0.00000000000E+00  0.00000000000E+00  0.45593999997E+02  0.45594000000E+02  0.51100000000E-03 0.  1.
         11   -1    0    0    0    0 -0.00000000000E+00 -0.00000000000E+00 -0.45593999997E+02  0.45594000000E+02  0.51100000000E-03 0. -1.
    9900012    2    1    2    0    0 -0.93165772086E+00  0.10839666452E+02 -0.15241813681E+02  0.72461568435E+02  0.69999997578E+02 0.  0.
        -12    1    1    2    0    0  0.93165772086E+00 -0.10839666452E+02  0.15241813681E+02  0.18726431565E+02  0.00000000000E+00 0.  1.
         11    1    3    3    0    0  0.20561271838E+02  0.28371440094E+02 -0.11880798198E+02  0.36998079393E+02  0.51100000000E-03 0. -1.
        -11    1    3    3    0    0 -0.32351712242E+01  0.51250668906E+01  0.62969161311E+00  0.60933697796E+01  0.51100000000E-03 0.  1.
        -12    1    3    3    0    0 -0.18257758335E+02 -0.22656840533E+02 -0.39907070955E+01  0.29370119263E+02  0.00000000000E+00 0.  1.
</event>
<event>
 7    1  0.2655561E-013  0.7246157E+02  0.7816164E-02  0.1226708E+00
        -11   -1    0    0    0    0  0.00000000000E+00  0.00000000000E+00  0.45593999997E+02  0.45594000000E+02  0.51100000000E-03 0. -1.
         11   -1    0    0    0    0 -0.00000000000E+00 -0.00000000000E+00 -0.45593999997E+02  0.45594000000E+02  0.51100000000E-03 0.  1.
    9900012    2    1    2    0    0  0.14629032038E+01 -0.13356487226E+02  0.13043900587E+02  0.72461570032E+02  0.69999999659E+02 0.  0.
        -12    1    1    2    0    0 -0.14629032038E+01  0.13356487226E+02 -0.13043900587E+02  0.18726429968E+02  0.00000000000E+00 0.  1.
         11    1    3    3    0    0  0.55044838192E+01  0.12323650507E+02  0.10926429613E+02  0.17365441782E+02  0.51100000000E-03 0. -1.
        -11    1    3    3    0    0 -0.64384899313E+01 -0.13285754130E+02  0.24958791937E+02  0.28998391518E+02  0.51100000000E-03 0.  1.
        -12    1    3    3    0    0  0.23969093159E+01 -0.12394383603E+02 -0.22841320964E+02  0.26097736732E+02  0.00000000000E+00 0.  1.
</event>
<event>
 7    1  0.2655561E-013  0.7246155E+02  0.7816164E-02  0.1226708E+00
        -11   -1    0    0    0    0  0.00000000000E+00  0.00000000000E+00  0.45593999997E+02  0.45594000000E+02  0.51100000000E-03 0.  1.
         11   -1    0    0    0    0 -0.00000000000E+00 -0.00000000000E+00 -0.45593999997E+02  0.45594000000E+02  0.51100000000E-03 0. -1.
    9900012    2    1    2    0    0  0.17599737983E+02  0.47994526835E+01 -0.42301579957E+01  0.72461554534E+02  0.69999979469E+02 0.  0.
        -12    1    1    2    0    0 -0.17599737983E+02 -0.47994526835E+01  0.42301579957E+01  0.18726445466E+02  0.00000000000E+00 0.  1.
         11    1    3    3    0    0  0.32983280742E+01 -0.66851624251E+01  0.28043330695E+01  0.79645871808E+01  0.51100000000E-03 0. -1.
        -11    1    3    3    0    0  0.21531005778E+02 -0.17936181099E+02  0.99836374123E+01  0.29748341441E+02  0.51100000000E-03 0.  1.
         12    1    3    3    0    0 -0.72295958696E+01  0.29420796208E+02 -0.17018128478E+02  0.34748625913E+02  0.00000000000E+00 0. -1.
</event>
<event>
 7    1  0.2655561E-013  0.7246153E+02  0.7816164E-02  0.1226708E+00
        -11   -1    0    0    0    0  0.00000000000E+00  0.00000000000E+00  0.45593999997E+02  0.45594000000E+02  0.51100000000E-03 0. -1.
         11   -1    0    0    0    0 -0.00000000000E+00 -0.00000000000E+00 -0.45593999997E+02  0.45594000000E+02  0.51100000000E-03 0.  1.
    9900012    2    1    2    0    0  0.43648554408E+01 -0.39773174230E+01  0.17771034041E+02  0.72461530290E+02  0.69999947887E+02 0.  0.
        -12    1    1    2    0    0 -0.43648554408E+01  0.39773174230E+01 -0.17771034041E+02  0.18726469710E+02  0.00000000000E+00 0.  1.
         11    1    3    3    0    0 -0.18937331149E+02 -0.95978228413E+01 -0.10673523417E+02  0.23762676969E+02  0.51100000000E-03 0. -1.
        -11    1    3    3    0    0 -0.47411041670E+01 -0.57141572856E+01  0.37587732125E+00  0.74344432359E+01  0.51100000000E-03 0.  1.
        -12    1    3    3    0    0  0.28043290757E+02  0.11334662704E+02  0.28068680137E+02  0.41264410085E+02  0.00000000000E+00 0.  1.
</event>
<event>
 7    1  0.2655561E-013  0.7246160E+02  0.7816164E-02  0.1226708E+00
        -11   -1    0    0    0    0  0.00000000000E+00  0.00000000000E+00  0.45593999997E+02  0.45594000000E+02  0.51100000000E-03 0.  1.
         11   -1    0    0    0    0 -0.00000000000E+00 -0.00000000000E+00 -0.45593999997E+02  0.45594000000E+02  0.51100000000E-03 0. -1.
    9900012    2    1    2    0    0 -0.25216587047E+01  0.18535878527E+02 -0.86042642111E+00  0.72461604484E+02  0.70000044538E+02 0.  0.
        -12    1    1    2    0    0  0.25216587047E+01 -0.18535878527E+02  0.86042642111E+00  0.18726395516E+02  0.00000000000E+00 0.  1.
         11    1    3    3    0    0  0.15685675303E+02 -0.24295909918E+01 -0.15344818386E+01  0.15946722449E+02  0.51100000000E-03 0. -1.
        -11    1    3    3    0    0  0.45073911751E+01  0.20936945060E+02  0.17976227497E+02  0.27960990664E+02  0.51100000000E-03 0.  1.
         12    1    3    3    0    0 -0.22714725182E+02  0.28524458793E-01 -0.17302172079E+02  0.28553891371E+02  0.00000000000E+00 0. -1.
</event>
<event>
 7    1  0.2655561E-013  0.7246165E+02  0.7816164E-02  0.1226708E+00
        -11   -1    0    0    0    0  0.00000000000E+00  0.00000000000E+00  0.45593999997E+02  0.45594000000E+02  0.51100000000E-03 0.  1.
         11   -1    0    0    0    0 -0.00000000000E+00 -0.00000000000E+00 -0.45593999997E+02  0.45594000000E+02  0.51100000000E-03 0. -1.
    9900012    2    1    2    0    0  0.25962173388E+01  0.18545263265E+02 -0.94783775653E-01  0.72461651771E+02  0.70000106138E+02 0.  0.
        -12    1    1    2    0    0 -0.25962173388E+01 -0.18545263265E+02  0.94783775653E-01  0.18726348229E+02  0.00000000000E+00 0.  1.
         11    1    3    3    0    0  0.41648737745E+01 -0.10058383114E+01 -0.20027098758E+02  0.20480297097E+02  0.51100000000E-03 0. -1.
        -11    1    3    3    0    0 -0.22292784455E+02  0.54747430059E+01  0.95956471550E+01  0.24880062185E+02  0.51100000000E-03 0.  1.
         12    1    3    3    0    0  0.20724128019E+02  0.14076358571E+02  0.10336667828E+02  0.27101292488E+02  0.00000000000E+00 0. -1.
</event>
<event>
 7    1  0.2655561E-013  0.7246195E+02  0.7816164E-02  0.1226707E+00
        -11   -1    0    0    0    0  0.00000000000E+00  0.00000000000E+00  0.45593999997E+02  0.45594000000E+02  0.51100000000E-03 0.  1.
         11   -1    0    0    0    0 -0.00000000000E+00 -0.00000000000E+00 -0.45593999997E+02  0.45594000000E+02  0.51100000000E-03 0. -1.
    9900012    2    1    2    0    0 -0.10498059873E+02 -0.87025595083E+01 -0.12834370692E+02  0.72461951988E+02  0.70000497225E+02 0.  0.
        -12    1    1    2    0    0  0.10498059873E+02  0.87025595083E+01  0.12834370692E+02  0.18726048012E+02  0.00000000000E+00 0.  1.
         11    1    3    3    0    0 -0.85090422790E+01  0.18629462833E+00 -0.28001517474E+02  0.29266422523E+02  0.51100000000E-03 0. -1.
        -11    1    3    3    0    0 -0.17353029892E+02  0.41084771517E+01 -0.26612891042E+00  0.17834742942E+02  0.51100000000E-03 0.  1.
         12    1    3    3    0    0  0.15364012298E+02 -0.12997331288E+02  0.15433275692E+02  0.25360786523E+02  0.00000000000E+00 0. -1.
</event>
<event>
 7    1  0.2655561E-013  0.7246157E+02  0.7816164E-02  0.1226708E+00
        -11   -1    0    0    0    0  0.00000000000E+00  0.00000000000E+00  0.45593999997E+02  0.45594000000E+02  0.51100000000E-03 0.  1.
         11   -1    0    0    0    0 -0.00000000000E+00 -0.00000000000E+00 -0.45593999997E+02  0.45594000000E+02  0.51100000000E-03 0. -1.
    9900012    2    1    2    0    0  0.26421643365E+01 -0.87956292090E+01 -0.16319772982E+02  0.72461571730E+02  0.70000001870E+02 0.  0.
        -12    1    1    2    0    0 -0.26421643365E+01  0.87956292090E+01  0.16319772982E+02  0.18726428270E+02  0.00000000000E+00 0.  1.
         11    1    3    3    0    0 -0.94786860958E+01 -0.42509114534E+01  0.77529655640E+01  0.12962415422E+02  0.51100000000E-03 0. -1.
        -11    1    3    3    0    0 -0.13094246845E+02  0.14953237033E+02 -0.18476275393E+02  0.27137268670E+02  0.51100000000E-03 0.  1.
         12    1    3    3    0    0  0.25215097277E+02 -0.19497954788E+02 -0.55964631531E+01  0.32361887637E+02  0.00000000000E+00 0. -1.
</event>
<event>
 7    1  0.2655561E-013  0.7246153E+02  0.7816164E-02  0.1226708E+00
        -11   -1    0    0    0    0  0.00000000000E+00  0.00000000000E+00  0.45593999997E+02  0.45594000000E+02  0.51100000000E-03 0.  1.
         11   -1    0    0    0    0 -0.00000000000E+00 -0.00000000000E+00 -0.45593999997E+02  0.45594000000E+02  0.51100000000E-03 0. -1.
    9900012    2    1    2    0    0 -0.10101886154E+02 -0.15442334540E+02 -0.31885421638E+01  0.72461532072E+02  0.69999950209E+02 0.  0.
        -12    1    1    2    0    0  0.10101886154E+02  0.15442334540E+02  0.31885421638E+01  0.18726467928E+02  0.00000000000E+00 0.  1.
         11    1    3    3    0    0  0.70139721311E+01 -0.31327317908E+01  0.10069368377E+02  0.12664990853E+02  0.51100000000E-03 0. -1.
        -11    1    3    3    0    0  0.19137739913E+02 -0.64664184546E+01 -0.11010191840E+02  0.23006346543E+02  0.51100000000E-03 0.  1.
         12    1    3    3    0    0 -0.36253598198E+02 -0.58431842945E+01 -0.22477187003E+01  0.36790194677E+02  0.00000000000E+00 0. -1.
</event>
<event>
 7    1  0.2655561E-013  0.7246162E+02  0.7816164E-02  0.1226708E+00
        -11   -1    0    0    0    0  0.00000000000E+00  0.00000000000E+00  0.45593999997E+02  0.45594000000E+02  0.51100000000E-03 0.  1.
         11   -1    0    0    0    0 -0.00000000000E+00 -0.00000000000E+00 -0.45593999997E+02  0.45594000000E+02  0.51100000000E-03 0. -1.
    9900012    2    1    2    0    0 -0.14128498679E+02 -0.52774355620E+01 -0.11100059985E+02  0.72461624678E+02  0.70000070845E+02 0.  0.
        -12    1    1    2    0    0  0.14128498679E+02  0.52774355620E+01  0.11100059985E+02  0.18726375322E+02  0.00000000000E+00 0.  1.
         11    1    3    3    0    0 -0.22471534863E+02  0.24426630405E+02 -0.12355698239E+02  0.35416005298E+02  0.51100000000E-03 0. -1.
        -11    1    3    3    0    0 -0.51452819882E+01 -0.21514034619E+01 -0.25520160691E+01  0.61331272507E+01  0.51100000000E-03 0.  1.
        -12    1    3    3    0    0  0.13488318172E+02 -0.27552662505E+02  0.38076543231E+01  0.30912492130E+02  0.00000000000E+00 0.  1.
</event>
<event>
 7    1  0.2655561E-013  0.7246158E+02  0.7816164E-02  0.1226708E+00
        -11   -1    0    0    0    0  0.00000000000E+00  0.00000000000E+00  0.45593999997E+02  0.45594000000E+02  0.51100000000E-03 0. -1.
         11   -1    0    0    0    0 -0.00000000000E+00 -0.00000000000E+00 -0.45593999997E+02  0.45594000000E+02  0.51100000000E-03 0.  1.
    9900012    2    1    2    0    0  0.52801976786E-01  0.14575585592E+02  0.11757050222E+02  0.72461582475E+02  0.70000015868E+02 0.  0.
        -12    1    1    2    0    0 -0.52801976786E-01 -0.14575585592E+02 -0.11757050222E+02  0.18726417525E+02  0.00000000000E+00 0.  1.
         11    1    3    3    0    0  0.27627903458E+02  0.24652772026E+01  0.11048272807E+02  0.29857042275E+02  0.51100000000E-03 0. -1.
        -11    1    3    3    0    0 -0.15622020215E+01 -0.67814290228E+01  0.69722533686E+01  0.98509173200E+01  0.51100000000E-03 0.  1.
        -12    1    3    3    0    0 -0.26012899460E+02  0.18891737412E+02 -0.62634759531E+01  0.32753622880E+02  0.00000000000E+00 0.  1.
</event>
<event>
 7    1  0.2655561E-013  0.7246155E+02  0.7816164E-02  0.1226708E+00
        -11   -1    0    0    0    0  0.00000000000E+00  0.00000000000E+00  0.45593999997E+02  0.45594000000E+02  0.51100000000E-03 0. -1.
         11   -1    0    0    0    0 -0.00000000000E+00 -0.00000000000E+00 -0.45593999997E+02  0.45594000000E+02  0.51100000000E-03 0.  1.
    9900012    2    1    2    0    0 -0.14244720436E+02 -0.10984449129E+02  0.52067003738E+01  0.72461550476E+02  0.69999974184E+02 0.  0.
        -12    1    1    2    0    0  0.14244720436E+02  0.10984449129E+02 -0.52067003738E+01  0.18726449524E+02  0.00000000000E+00 0.  1.
         11    1    3    3    0    0 -0.56715095130E+01 -0.15524296860E+01 -0.70120228594E+01  0.91512033595E+01  0.51100000000E-03 0. -1.
        -11    1    3    3    0    0  0.15034677102E+02  0.18346758694E+02 -0.27953275015E+01  0.23884281991E+02  0.51100000000E-03 0.  1.
         12    1    3    3    0    0 -0.23607888026E+02 -0.27778778137E+02  0.15014050735E+02  0.39426065125E+02  0.00000000000E+00 0. -1.
</event>
<event>
 7    1  0.2655561E-013  0.7246140E+02  0.7816164E-02  0.1226708E+00
        -11   -1    0    0    0    0  0.00000000000E+00  0.00000000000E+00  0.45593999997E+02  0.45594000000E+02  0.51100000000E-03 0.  1.
         11   -1    0    0    0    0 -0.00000000000E+00 -0.00000000000E+00 -0.45593999997E+02  0.45594000000E+02  0.51100000000E-03 0. -1.
    9900012    2    1    2    0    0 -0.17220666818E+02  0.14631113637E+01 -0.72106607237E+01  0.72461396234E+02  0.69999773254E+02 0.  0.
        -12    1    1    2    0    0  0.17220666818E+02 -0.14631113637E+01  0.72106607237E+01  0.18726603766E+02  0.00000000000E+00 0.  1.
         11    1    3    3    0    0  0.12965360559E+00  0.10050981851E+02  0.84513996990E+00  0.10087284474E+02  0.51100000000E-03 0. -1.
        -11    1    3    3    0    0 -0.31914351406E+02 -0.20318613568E+02  0.68637173086E+01  0.38451040279E+02  0.51100000000E-03 0.  1.
         12    1    3    3    0    0  0.14564030982E+02  0.11730743081E+02 -0.14919518002E+02  0.23923071481E+02  0.00000000000E+00 0. -1.
</event>
<event>
 7    1  0.2655561E-013  0.7246165E+02  0.7816164E-02  0.1226708E+00
        -11   -1    0    0    0    0  0.00000000000E+00  0.00000000000E+00  0.45593999997E+02  0.45594000000E+02  0.51100000000E-03 0.  1.
         11   -1    0    0    0    0 -0.00000000000E+00 -0.00000000000E+00 -0.45593999997E+02  0.45594000000E+02  0.51100000000E-03 0. -1.
    9900012    2    1    2    0    0  0.53185710338E+01 -0.16238400682E+02 -0.76617997410E+01  0.72461654125E+02  0.70000109206E+02 0.  0.
        -12    1    1    2    0    0 -0.53185710338E+01  0.16238400682E+02  0.76617997410E+01  0.18726345875E+02  0.00000000000E+00 0.  1.
         11    1    3    3    0    0  0.26872285638E+01 -0.52536357536E+00  0.19426150694E+01  0.33572247183E+01  0.51100000000E-03 0. -1.
        -11    1    3    3    0    0  0.21061759274E+02 -0.64039810623E+01  0.22149060608E+02  0.31228025286E+02  0.51100000000E-03 0.  1.
         12    1    3    3    0    0 -0.18430416804E+02 -0.93090560440E+01 -0.31753475418E+02  0.37876404121E+02  0.00000000000E+00 0. -1.
</event>
<event>
 7    1  0.2655561E-013  0.7246157E+02  0.7816164E-02  0.1226708E+00
        -11   -1    0    0    0    0  0.00000000000E+00  0.00000000000E+00  0.45593999997E+02  0.45594000000E+02  0.51100000000E-03 0. -1.
         11   -1    0    0    0    0 -0.00000000000E+00 -0.00000000000E+00 -0.45593999997E+02  0.45594000000E+02  0.51100000000E-03 0.  1.
    9900012    2    1    2    0    0  0.41169372573E+01  0.15018224793E+02  0.10401102370E+02  0.72461570046E+02  0.69999999676E+02 0.  0.
        -12    1    1    2    0    0 -0.41169372573E+01 -0.15018224793E+02 -0.10401102370E+02  0.18726429954E+02  0.00000000000E+00 0.  1.
         11    1    3    3    0    0 -0.11846748145E+00 -0.19826789703E+02 -0.52914179167E+01  0.20521080096E+02  0.51100000000E-03 0.  1.
        -11    1    3    3    0    0 -0.63384964199E+00 -0.13716422432E+01 -0.81622872822E+01  0.83009699283E+01  0.51100000000E-03 0. -1.
         12    1    3    3    0    0  0.48692543807E+01  0.36216656739E+02  0.23854807568E+02  0.43639520022E+02  0.00000000000E+00 0. -1.
</event>
<event>
 7    1  0.2655561E-013  0.7246157E+02  0.7816164E-02  0.1226708E+00
        -11   -1    0    0    0    0  0.00000000000E+00  0.00000000000E+00  0.45593999997E+02  0.45594000000E+02  0.51100000000E-03 0. -1.
         11   -1    0    0    0    0 -0.00000000000E+00 -0.00000000000E+00 -0.45593999997E+02  0.45594000000E+02  0.51100000000E-03 0.  1.
    9900012    2    1    2    0    0 -0.17739735188E+02  0.45366482688E+01  0.39242499909E+01  0.72461571615E+02  0.70000001721E+02 0.  0.
        -12    1    1    2    0    0  0.17739735188E+02 -0.45366482688E+01 -0.39242499909E+01  0.18726428385E+02  0.00000000000E+00 0.  1.
         11    1    3    3    0    0 -0.11542946217E+02 -0.13088085870E+02 -0.13279238849E+01  0.17501456546E+02  0.51100000000E-03 0. -1.
        -11    1    3    3    0    0 -0.20466341041E+02 -0.10590596866E+02  0.33278904090E+01  0.23283185186E+02  0.51100000000E-03 0.  1.
        -12    1    3    3    0    0  0.14269552069E+02  0.28215331005E+02  0.19242834668E+01  0.31676929884E+02  0.00000000000E+00 0.  1.
</event>
<event>
 7    1  0.2655561E-013  0.7246154E+02  0.7816164E-02  0.1226708E+00
        -11   -1    0    0    0    0  0.00000000000E+00  0.00000000000E+00  0.45593999997E+02  0.45594000000E+02  0.51100000000E-03 0. -1.
         11   -1    0    0    0    0 -0.00000000000E+00 -0.00000000000E+00 -0.45593999997E+02  0.45594000000E+02  0.51100000000E-03 0.  1.
    9900012    2    1    2    0    0 -0.12523570024E+02 -0.12362544891E+02  0.64037474207E+01  0.72461540021E+02  0.69999960563E+02 0.  0.
        -12    1    1    2    0    0  0.12523570024E+02  0.12362544891E+02 -0.64037474207E+01  0.18726459979E+02  0.00000000000E+00 0.  1.
         11    1    3    3    0    0 -0.28713133187E+02 -0.12410028518E+02  0.21455214355E+02  0.37931241062E+02  0.51100000000E-03 0. -1.
        -11    1    3    3    0    0 -0.67390038265E+01 -0.21737364268E+01 -0.74363561010E+01  0.10268334575E+02  0.51100000000E-03 0.  1.
         12    1    3    3    0    0  0.22928566990E+02  0.22212200542E+01 -0.76151108332E+01  0.24261964383E+02  0.00000000000E+00 0. -1.
</event>
<event>
 7    1  0.2655561E-013  0.7246145E+02  0.7816164E-02  0.1226708E+00
        -11   -1    0    0    0    0  0.00000000000E+00  0.00000000000E+00  0.45593999997E+02  0.45594000000E+02  0.51100000000E-03 0. -1.
         11   -1    0    0    0    0 -0.00000000000E+00 -0.00000000000E+00 -0.45593999997E+02  0.45594000000E+02  0.51100000000E-03 0.  1.
    9900012    2    1    2    0    0 -0.18034503076E+02  0.50306373871E+01  0.36453250112E+00  0.72461454733E+02  0.69999849459E+02 0.  0.
        -12    1    1    2    0    0  0.18034503076E+02 -0.50306373871E+01 -0.36453250112E+00  0.18726545267E+02  0.00000000000E+00 0.  1.
         11    1    3    3    0    0 -0.66952492206E+01 -0.13951603285E+02  0.31443938957E+01  0.15791162389E+02  0.51100000000E-03 0. -1.
        -11    1    3    3    0    0  0.10909009316E+02 -0.71687194725E+01 -0.15311242038E+02  0.20120416401E+02  0.51100000000E-03 0.  1.
         12    1    3    3    0    0 -0.22248263171E+02  0.26150960145E+02  0.12531380644E+02  0.36549875943E+02  0.00000000000E+00 0. -1.
</event>
<event>
 7    1  0.2655561E-013  0.7246192E+02  0.7816164E-02  0.1226707E+00
        -11   -1    0    0    0    0  0.00000000000E+00  0.00000000000E+00  0.45593999997E+02  0.45594000000E+02  0.51100000000E-03 0. -1.
         11   -1    0    0    0    0 -0.00000000000E+00 -0.00000000000E+00 -0.45593999997E+02  0.45594000000E+02  0.51100000000E-03 0.  1.
    9900012    2    1    2    0    0 -0.91645506841E+01  0.14876056050E+02  0.67364712889E+01  0.72461919837E+02  0.70000455343E+02 0.  0.
        -12    1    1    2    0    0  0.91645506841E+01 -0.14876056050E+02 -0.67364712889E+01  0.18726080163E+02  0.00000000000E+00 0.  1.
         11    1    3    3    0    0 -0.12545829806E+02  0.17806029581E+02 -0.71873571313E+01  0.22937101773E+02  0.51100000000E-03 0. -1.
        -11    1    3    3    0    0  0.26608253229E+01  0.14816025411E+02 -0.11196190385E+02  0.18760311292E+02  0.51100000000E-03 0.  1.
        -12    1    3    3    0    0  0.72045379896E+00 -0.17745998943E+02  0.25120018805E+02  0.30764506772E+02  0.00000000000E+00 0.  1.
</event>
<event>
 7    1  0.2655561E-013  0.7246175E+02  0.7816164E-02  0.1226708E+00
        -11   -1    0    0    0    0  0.00000000000E+00  0.00000000000E+00  0.45593999997E+02  0.45594000000E+02  0.51100000000E-03 0.  1.
         11   -1    0    0    0    0 -0.00000000000E+00 -0.00000000000E+00 -0.45593999997E+02  0.45594000000E+02  0.51100000000E-03 0. -1.
    9900012    2    1    2    0    0 -0.13323033620E+02  0.39964398618E+01 -0.12537846395E+02  0.72461752414E+02  0.70000237245E+02 0.  0.
        -12    1    1    2    0    0  0.13323033620E+02 -0.39964398618E+01  0.12537846395E+02  0.18726247586E+02  0.00000000000E+00 0.  1.
         11    1    3    3    0    0  0.13244370907E+02 -0.17625031419E+02  0.11407767494E+02  0.24823220031E+02  0.51100000000E-03 0.  1.
        -11    1    3    3    0    0 -0.18310306526E+02  0.54366355930E+01 -0.20863779947E+01  0.19213987224E+02  0.51100000000E-03 0. -1.
        -12    1    3    3    0    0 -0.82570980011E+01  0.16184835688E+02 -0.21859235895E+02  0.28424545160E+02  0.00000000000E+00 0.  1.
</event>
<event>
 7    1  0.2655561E-013  0.7246176E+02  0.7816164E-02  0.1226708E+00
        -11   -1    0    0    0    0  0.00000000000E+00  0.00000000000E+00  0.45593999997E+02  0.45594000000E+02  0.51100000000E-03 0.  1.
         11   -1    0    0    0    0 -0.00000000000E+00 -0.00000000000E+00 -0.45593999997E+02  0.45594000000E+02  0.51100000000E-03 0. -1.
    9900012    2    1    2    0    0 -0.86760429749E+01 -0.16594842526E+02  0.97101670425E-01  0.72461763087E+02  0.70000251148E+02 0.  0.
        -12    1    1    2    0    0  0.86760429749E+01  0.16594842526E+02 -0.97101670425E-01  0.18726236913E+02  0.00000000000E+00 0.  1.
         11    1    3    3    0    0  0.22152965211E+02  0.88486441738E+01 -0.81102213159E+01  0.25195794518E+02  0.51100000000E-03 0. -1.
        -11    1    3    3    0    0  0.25219544527E+01  0.17581386505E+01 -0.10416794627E+01  0.32459824615E+01  0.51100000000E-03 0.  1.
        -12    1    3    3    0    0 -0.33350962639E+02 -0.27201625350E+02  0.92490024490E+01  0.44019986108E+02  0.00000000000E+00 0.  1.
</event>
<event>
 7    1  0.2655561E-013  0.7246160E+02  0.7816164E-02  0.1226708E+00
        -11   -1    0    0    0    0  0.00000000000E+00  0.00000000000E+00  0.45593999997E+02  0.45594000000E+02  0.51100000000E-03 0. -1.
         11   -1    0    0    0    0 -0.00000000000E+00 -0.00000000000E+00 -0.45593999997E+02  0.45594000000E+02  0.51100000000E-03 0.  1.
    9900012    2    1    2    0    0  0.13606198255E+02  0.11892520465E+02  0.49109534907E+01  0.72461597832E+02  0.70000035873E+02 0.  0.
        -12    1    1    2    0    0 -0.13606198255E+02 -0.11892520465E+02 -0.49109534907E+01  0.18726402168E+02  0.00000000000E+00 0.  1.
         11    1    3    3    0    0  0.12090102616E+02  0.78166584974E+01  0.25530067862E+02  0.29309641701E+02  0.51100000000E-03 0. -1.
        -11    1    3    3    0    0 -0.99774918641E+01  0.15791000974E+02 -0.27340655694E+01  0.18878060559E+02  0.51100000000E-03 0.  1.
        -12    1    3    3    0    0  0.11493587502E+02 -0.11715139006E+02 -0.17885048802E+02  0.24273895572E+02  0.00000000000E+00 0.  1.
</event>
<event>
 7    1  0.2655561E-013  0.7246152E+02  0.7816164E-02  0.1226708E+00
        -11   -1    0    0    0    0  0.00000000000E+00  0.00000000000E+00  0.45593999997E+02  0.45594000000E+02  0.51100000000E-03 0.  1.
         11   -1    0    0    0    0 -0.00000000000E+00 -0.00000000000E+00 -0.45593999997E+02  0.45594000000E+02  0.51100000000E-03 0. -1.
    9900012    2    1    2    0    0  0.89884966570E+01  0.14583115490E+02 -0.75644367257E+01  0.72461520552E+02  0.69999935201E+02 0.  0.
        -12    1    1    2    0    0 -0.89884966570E+01 -0.14583115490E+02  0.75644367257E+01  0.18726479448E+02  0.00000000000E+00 0.  1.
         11    1    3    3    0    0 -0.30186165260E+01  0.38539391410E+00 -0.46962376950E-01  0.30434815468E+01  0.51100000000E-03 0. -1.
        -11    1    3    3    0    0  0.10903868255E+01 -0.15796949886E+02 -0.27519056196E+02  0.31749504300E+02  0.51100000000E-03 0.  1.
         12    1    3    3    0    0  0.10916726357E+02  0.29994671462E+02  0.20001581847E+02  0.37668534705E+02  0.00000000000E+00 0. -1.
</event>
<event>
 7    1  0.2655561E-013  0.7246158E+02  0.7816164E-02  0.1226708E+00
        -11   -1    0    0    0    0  0.00000000000E+00  0.00000000000E+00  0.45593999997E+02  0.45594000000E+02  0.51100000000E-03 0. -1.
         11   -1    0    0    0    0 -0.00000000000E+00 -0.00000000000E+00 -0.45593999997E+02  0.45594000000E+02  0.51100000000E-03 0.  1.
    9900012    2    1    2    0    0  0.97167302728E+01 -0.11857892345E+02  0.10754269801E+02  0.72461580774E+02  0.70000013652E+02 0.  0.
        -12    1    1    2    0    0 -0.97167302728E+01  0.11857892345E+02 -0.10754269801E+02  0.18726419226E+02  0.00000000000E+00 0.  1.
         11    1    3    3    0    0  0.12212563176E+02 -0.80932471313E+01  0.28615330266E+01  0.14927683008E+02  0.51100000000E-03 0. -1.
        -11    1    3    3    0    0 -0.16159452832E+02  0.19320128871E+01 -0.20103189963E+02  0.25865011822E+02  0.51100000000E-03 0.  1.
         12    1    3    3    0    0  0.13663619929E+02 -0.56966581008E+01  0.27995926737E+02  0.31668885944E+02  0.00000000000E+00 0. -1.
</event>
<event>
 7    1  0.2655561E-013  0.7246162E+02  0.7816164E-02  0.1226708E+00
        -11   -1    0    0    0    0  0.00000000000E+00  0.00000000000E+00  0.45593999997E+02  0.45594000000E+02  0.51100000000E-03 0.  1.
         11   -1    0    0    0    0 -0.00000000000E+00 -0.00000000000E+00 -0.45593999997E+02  0.45594000000E+02  0.51100000000E-03 0. -1.
    9900012    2    1    2    0    0 -0.11620937271E+02  0.13829776902E+02 -0.49364326451E+01  0.72461620759E+02  0.70000065740E+02 0.  0.
        -12    1    1    2    0    0  0.11620937271E+02 -0.13829776902E+02  0.49364326451E+01  0.18726379241E+02  0.00000000000E+00 0.  1.
         11    1    3    3    0    0  0.39194305873E+01 -0.61251313071E+01 -0.47264479282E+01  0.86728588099E+01  0.51100000000E-03 0. -1.
        -11    1    3    3    0    0 -0.19753165113E+02  0.38617609153E+01 -0.26134086726E+02  0.32986227711E+02  0.51100000000E-03 0.  1.
        -12    1    3    3    0    0  0.42127972544E+01  0.16093147294E+02  0.25924102009E+02  0.30802534238E+02  0.00000000000E+00 0.  1.
</event>
<event>
 7    1  0.2655561E-013  0.7246194E+02  0.7816164E-02  0.1226707E+00
        -11   -1    0    0    0    0  0.00000000000E+00  0.00000000000E+00  0.45593999997E+02  0.45594000000E+02  0.51100000000E-03 0.  1.
         11   -1    0    0    0    0 -0.00000000000E+00 -0.00000000000E+00 -0.45593999997E+02  0.45594000000E+02  0.51100000000E-03 0. -1.
    9900012    2    1    2    0    0  0.17937629034E+02 -0.24463698741E+00 -0.53709502925E+01  0.72461935554E+02  0.70000475816E+02 0.  0.
        -12    1    1    2    0    0 -0.17937629034E+02  0.24463698741E+00  0.53709502925E+01  0.18726064446E+02  0.00000000000E+00 0.  1.
         11    1    3    3    0    0  0.60224604359E+01 -0.40975535200E+01 -0.24125224375E+02  0.25200921133E+02  0.51100000000E-03 0. -1.
        -11    1    3    3    0    0  0.56452189038E+01 -0.11451918996E+02 -0.85301361665E+01  0.15355069796E+02  0.51100000000E-03 0.  1.
        -12    1    3    3    0    0  0.62699496940E+01  0.15304835528E+02  0.27284410249E+02  0.31905944624E+02  0.00000000000E+00 0.  1.
</event>
<event>
 7    1  0.2655561E-013  0.7246160E+02  0.7816164E-02  0.1226708E+00
        -11   -1    0    0    0    0  0.00000000000E+00  0.00000000000E+00  0.45593999997E+02  0.45594000000E+02  0.51100000000E-03 0. -1.
         11   -1    0    0    0    0 -0.00000000000E+00 -0.00000000000E+00 -0.45593999997E+02  0.45594000000E+02  0.51100000000E-03 0.  1.
    9900012    2    1    2    0    0 -0.16044590984E+02  0.54418298792E+01  0.79772043975E+01  0.72461596120E+02  0.70000033642E+02 0.  0.
        -12    1    1    2    0    0  0.16044590984E+02 -0.54418298792E+01 -0.79772043975E+01  0.18726403880E+02  0.00000000000E+00 0.  1.
         11    1    3    3    0    0 -0.33179416238E+02 -0.10982478830E+02  0.20894274813E+02  0.40719273365E+02  0.51100000000E-03 0. -1.
        -11    1    3    3    0    0  0.48734839844E+01 -0.11927302574E+00  0.29926422601E+01  0.57202255339E+01  0.51100000000E-03 0.  1.
        -12    1    3    3    0    0  0.12261341269E+02  0.16543581735E+02 -0.15909712676E+02  0.26022097221E+02  0.00000000000E+00 0.  1.
</event>
<event>
 7    1  0.2655561E-013  0.7246158E+02  0.7816164E-02  0.1226708E+00
        -11   -1    0    0    0    0  0.00000000000E+00  0.00000000000E+00  0.45593999997E+02  0.45594000000E+02  0.51100000000E-03 0. -1.
         11   -1    0    0    0    0 -0.00000000000E+00 -0.00000000000E+00 -0.45593999997E+02  0.45594000000E+02  0.51100000000E-03 0.  1.
    9900012    2    1    2    0    0  0.12504332820E+02  0.53872140350E+01 -0.12856843699E+02  0.72461578980E+02  0.70000011315E+02 0.  0.
        -12    1    1    2    0    0 -0.12504332820E+02 -0.53872140350E+01  0.12856843699E+02  0.18726421020E+02  0.00000000000E+00 0.  1.
         11    1    3    3    0    0  0.30624911590E+00 -0.52979636378E+00 -0.64408860435E+01  0.64698907251E+01  0.51100000000E-03 0. -1.
        -11    1    3    3    0    0 -0.24805101005E+00  0.31743840151E+02 -0.16276096828E+02  0.35674139724E+02  0.51100000000E-03 0.  1.
         12    1    3    3    0    0  0.12446134714E+02 -0.25826829753E+02  0.98601391731E+01  0.30317548531E+02  0.00000000000E+00 0. -1.
</event>
<event>
 7    1  0.2655561E-013  0.7246149E+02  0.7816164E-02  0.1226708E+00
        -11   -1    0    0    0    0  0.00000000000E+00  0.00000000000E+00  0.45593999997E+02  0.45594000000E+02  0.51100000000E-03 0.  1.
         11   -1    0    0    0    0 -0.00000000000E+00 -0.00000000000E+00 -0.45593999997E+02  0.45594000000E+02  0.51100000000E-03 0. -1.
    9900012    2    1    2    0    0 -0.14972675674E+02  0.40416409668E+01  0.10496020432E+02  0.72461486084E+02  0.69999890300E+02 0.  0.
        -12    1    1    2    0    0  0.14972675674E+02 -0.40416409668E+01 -0.10496020432E+02  0.18726513916E+02  0.00000000000E+00 0.  1.
         11    1    3    3    0    0  0.32114937578E+01  0.10271235099E+02 -0.81326768239E+00  0.10792282762E+02  0.51100000000E-03 0. -1.
        -11    1    3    3    0    0 -0.39238741483E+02 -0.38250113043E+01  0.78077471806E+01  0.40190427479E+02  0.51100000000E-03 0.  1.
         12    1    3    3    0    0  0.21054572051E+02 -0.24045828283E+01  0.35015409334E+01  0.21478775843E+02  0.00000000000E+00 0. -1.
</event>
<event>
 7    1  0.2655561E-013  0.7246156E+02  0.7816164E-02  0.1226708E+00
        -11   -1    0    0    0    0  0.00000000000E+00  0.00000000000E+00  0.45593999997E+02  0.45594000000E+02  0.51100000000E-03 0. -1.
         11   -1    0    0    0    0 -0.00000000000E+00 -0.00000000000E+00 -0.45593999997E+02  0.45594000000E+02  0.51100000000E-03 0.  1.
    9900012    2    1    2    0    0 -0.41346691340E+01 -0.21432459961E+01  0.18138092179E+02  0.72461564671E+02  0.69999992674E+02 0.  0.
        -12    1    1    2    0    0  0.41346691340E+01  0.21432459961E+01 -0.18138092179E+02  0.18726435329E+02  0.00000000000E+00 0.  1.
         11    1    3    3    0    0 -0.32052882515E+01  0.17661961157E+02 -0.13950698188E+02  0.22734131276E+02  0.51100000000E-03 0. -1.
        -11    1    3    3    0    0  0.10820936523E+02 -0.24309415151E+01 -0.35245856988E+00  0.11096232297E+02  0.51100000000E-03 0.  1.
         12    1    3    3    0    0 -0.11750317406E+02 -0.17374265638E+02  0.32441248937E+02  0.38631201097E+02  0.00000000000E+00 0. -1.
</event>
<event>
 7    1  0.2655561E-013  0.7246155E+02  0.7816164E-02  0.1226708E+00
        -11   -1    0    0    0    0  0.00000000000E+00  0.00000000000E+00  0.45593999997E+02  0.45594000000E+02  0.51100000000E-03 0.  1.
         11   -1    0    0    0    0 -0.00000000000E+00 -0.00000000000E+00 -0.45593999997E+02  0.45594000000E+02  0.51100000000E-03 0. -1.
    9900012    2    1    2    0    0  0.85899954242E+01 -0.93698875396E+01 -0.13751260025E+02  0.72461549024E+02  0.69999972291E+02 0.  0.
        -12    1    1    2    0    0 -0.85899954242E+01  0.93698875396E+01  0.13751260025E+02  0.18726450976E+02  0.00000000000E+00 0.  1.
         11    1    3    3    0    0  0.49366348626E+01  0.11941213989E+02  0.50624195719E+01  0.13877717662E+02  0.51100000000E-03 0. -1.
        -11    1    3    3    0    0 -0.48501907846E+01  0.14247816684E+02  0.38916431750E+01  0.15545723456E+02  0.51100000000E-03 0.  1.
         12    1    3    3    0    0  0.85035513461E+01 -0.35558918213E+02 -0.22705322772E+02  0.43038107906E+02  0.00000000000E+00 0. -1.
</event>
<event>
 7    1  0.2655561E-013  0.7246183E+02  0.7816164E-02  0.1226707E+00
        -11   -1    0    0    0    0  0.00000000000E+00  0.00000000000E+00  0.45593999997E+02  0.45594000000E+02  0.51100000000E-03 0. -1.
         11   -1    0    0    0    0 -0.00000000000E+00 -0.00000000000E+00 -0.45593999997E+02  0.45594000000E+02  0.51100000000E-03 0.  1.
    9900012    2    1    2    0    0  0.16077871747E+02  0.89814858612E+01  0.33918161805E+01  0.72461829404E+02  0.70000337537E+02 0.  0.
        -12    1    1    2    0    0 -0.16077871747E+02 -0.89814858612E+01 -0.33918161805E+01  0.18726170596E+02  0.00000000000E+00 0.  1.
         11    1    3    3    0    0 -0.31320871821E+01  0.80776477461E+01  0.68320100796E+01  0.11033346057E+02  0.51100000000E-03 0. -1.
        -11    1    3    3    0    0 -0.20060983492E+02 -0.47720242709E+01 -0.65283902672E+01  0.21629497314E+02  0.51100000000E-03 0.  1.
         12    1    3    3    0    0  0.39270942421E+02  0.56758623860E+01  0.30881963681E+01  0.39798986033E+02  0.00000000000E+00 0. -1.
</event>
<event>
 7    1  0.2655561E-013  0.7246159E+02  0.7816164E-02  0.1226708E+00
        -11   -1    0    0    0    0  0.00000000000E+00  0.00000000000E+00  0.45593999997E+02  0.45594000000E+02  0.51100000000E-03 0.  1.
         11   -1    0    0    0    0 -0.00000000000E+00 -0.00000000000E+00 -0.45593999997E+02  0.45594000000E+02  0.51100000000E-03 0. -1.
    9900012    2    1    2    0    0  0.18150666107E+02 -0.38995490130E+01 -0.24546235315E+01  0.72461592461E+02  0.70000028876E+02 0.  0.
        -12    1    1    2    0    0 -0.18150666107E+02  0.38995490130E+01  0.24546235315E+01  0.18726407539E+02  0.00000000000E+00 0.  1.
         11    1    3    3    0    0  0.15006008792E+02 -0.60925199722E+01 -0.10816671050E+02  0.19475612245E+02  0.51100000000E-03 0. -1.
        -11    1    3    3    0    0 -0.79889631315E+01  0.23927053992E+02 -0.41220001380E+01  0.25560092529E+02  0.51100000000E-03 0.  1.
         12    1    3    3    0    0  0.11133620447E+02 -0.21734083033E+02  0.12484047656E+02  0.27425887687E+02  0.00000000000E+00 0. -1.
</event>
<event>
 7    1  0.2655561E-013  0.7246141E+02  0.7816164E-02  0.1226708E+00
        -11   -1    0    0    0    0  0.00000000000E+00  0.00000000000E+00  0.45593999997E+02  0.45594000000E+02  0.51100000000E-03 0. -1.
         11   -1    0    0    0    0 -0.00000000000E+00 -0.00000000000E+00 -0.45593999997E+02  0.45594000000E+02  0.51100000000E-03 0.  1.
    9900012    2    1    2    0    0  0.15770919859E+02 -0.19235731742E+01  0.99127673800E+01  0.72461414511E+02  0.69999797063E+02 0.  0.
        -12    1    1    2    0    0 -0.15770919859E+02  0.19235731742E+01 -0.99127673800E+01  0.18726585489E+02  0.00000000000E+00 0.  1.
         11    1    3    3    0    0 -0.62658930189E+01  0.10248960057E+02  0.15120970614E+02  0.19311818924E+02  0.51100000000E-03 0. -1.
        -11    1    3    3    0    0 -0.19154560262E+01  0.89665217981E+01  0.13356497962E+02  0.16200726002E+02  0.51100000000E-03 0.  1.
        -12    1    3    3    0    0  0.23952268904E+02 -0.21139055029E+02 -0.18564701195E+02  0.36948869585E+02  0.00000000000E+00 0.  1.
</event>
<event>
 7    1  0.2655561E-013  0.7246153E+02  0.7816164E-02  0.1226708E+00
        -11   -1    0    0    0    0  0.00000000000E+00  0.00000000000E+00  0.45593999997E+02  0.45594000000E+02  0.51100000000E-03 0.  1.
         11   -1    0    0    0    0 -0.00000000000E+00 -0.00000000000E+00 -0.45593999997E+02  0.45594000000E+02  0.51100000000E-03 0. -1.
    9900012    2    1    2    0    0  0.58400891764E+01 -0.47604691614E+01 -0.17143859908E+02  0.72461531011E+02  0.69999948827E+02 0.  0.
        -12    1    1    2    0    0 -0.58400891764E+01  0.47604691614E+01  0.17143859908E+02  0.18726468989E+02  0.00000000000E+00 0.  1.
         11    1    3    3    0    0 -0.15742136019E+02 -0.14001037262E+02 -0.12389386750E+02  0.24440556359E+02  0.51100000000E-03 0. -1.
        -11    1    3    3    0    0  0.23674673335E+02 -0.21312836705E+01 -0.18454839577E+02  0.30093415088E+02  0.51100000000E-03 0.  1.
         12    1    3    3    0    0 -0.20924481394E+01  0.11371851771E+02  0.13700366419E+02  0.17927559564E+02  0.00000000000E+00 0. -1.
</event>
<event>
 7    1  0.2655561E-013  0.7246160E+02  0.7816164E-02  0.1226708E+00
        -11   -1    0    0    0    0  0.00000000000E+00  0.00000000000E+00  0.45593999997E+02  0.45594000000E+02  0.51100000000E-03 0. -1.
         11   -1    0    0    0    0 -0.00000000000E+00 -0.00000000000E+00 -0.45593999997E+02  0.45594000000E+02  0.51100000000E-03 0.  1.
    9900012    2    1    2    0    0 -0.25060850940E+01  0.33841532312E+01  0.18246781658E+02  0.72461601615E+02  0.70000040801E+02 0.  0.
        -12    1    1    2    0    0  0.25060850940E+01 -0.33841532312E+01 -0.18246781658E+02  0.18726398385E+02  0.00000000000E+00 0.  1.
         11    1    3    3    0    0 -0.90056064619E+01 -0.82182314028E+01  0.31664264538E+02  0.33930309815E+02  0.51100000000E-03 0.  1.
        -11    1    3    3    0    0  0.73862948472E+01  0.15967306846E+02  0.60166009704E+01  0.18593324796E+02  0.51100000000E-03 0. -1.
        -12    1    3    3    0    0 -0.88677347930E+00 -0.43649222120E+01 -0.19434083851E+02  0.19937967004E+02  0.00000000000E+00 0.  1.
</event>
<event>
 7    1  0.2655561E-013  0.7246115E+02  0.7816164E-02  0.1226709E+00
        -11   -1    0    0    0    0  0.00000000000E+00  0.00000000000E+00  0.45593999997E+02  0.45594000000E+02  0.51100000000E-03 0.  1.
         11   -1    0    0    0    0 -0.00000000000E+00 -0.00000000000E+00 -0.45593999997E+02  0.45594000000E+02  0.51100000000E-03 0. -1.
    9900012    2    1    2    0    0  0.68873636698E+01  0.11718819695E+02 -0.12881323915E+02  0.72461147110E+02  0.69999448721E+02 0.  0.
        -12    1    1    2    0    0 -0.68873636698E+01 -0.11718819695E+02  0.12881323915E+02  0.18726852890E+02  0.00000000000E+00 0.  1.
         11    1    3    3    0    0 -0.19492887959E+02 -0.84274749583E+01 -0.59397239482E+01  0.22051651548E+02  0.51100000000E-03 0. -1.
        -11    1    3    3    0    0  0.85732379474E+01  0.26674941605E+02  0.43230880853E+01  0.28350344079E+02  0.51100000000E-03 0.  1.
        -12    1    3    3    0    0  0.17807013681E+02 -0.65286469512E+01 -0.11264688052E+02  0.22059151483E+02  0.00000000000E+00 0.  1.
</event>
<event>
 7    1  0.2655561E-013  0.7246160E+02  0.7816164E-02  0.1226708E+00
        -11   -1    0    0    0    0  0.00000000000E+00  0.00000000000E+00  0.45593999997E+02  0.45594000000E+02  0.51100000000E-03 0.  1.
         11   -1    0    0    0    0 -0.00000000000E+00 -0.00000000000E+00 -0.45593999997E+02  0.45594000000E+02  0.51100000000E-03 0. -1.
    9900012    2    1    2    0    0  0.47800769150E+01 -0.17999683796E+02 -0.19596672184E+01  0.72461600248E+02  0.70000039020E+02 0.  0.
        -12    1    1    2    0    0 -0.47800769150E+01  0.17999683796E+02  0.19596672184E+01  0.18726399752E+02  0.00000000000E+00 0.  1.
         11    1    3    3    0    0 -0.19033869856E+02 -0.24538201409E+02 -0.11983396221E+02  0.33286833964E+02  0.51100000000E-03 0. -1.
        -11    1    3    3    0    0  0.72912645930E+01 -0.18472069053E+01  0.17613031851E+02  0.19151856411E+02  0.51100000000E-03 0.  1.
        -12    1    3    3    0    0  0.16522682178E+02  0.83857245188E+01 -0.75893028490E+01  0.20022909873E+02  0.00000000000E+00 0.  1.
</event>
<event>
 7    1  0.2655561E-013  0.7246157E+02  0.7816164E-02  0.1226708E+00
        -11   -1    0    0    0    0  0.00000000000E+00  0.00000000000E+00  0.45593999997E+02  0.45594000000E+02  0.51100000000E-03 0.  1.
         11   -1    0    0    0    0 -0.00000000000E+00 -0.00000000000E+00 -0.45593999997E+02  0.45594000000E+02  0.51100000000E-03 0. -1.
    9900012    2    1    2    0    0  0.63782952136E+01  0.16752556334E+02 -0.54173994508E+01  0.72461574544E+02  0.70000005536E+02 0.  0.
        -12    1    1    2    0    0 -0.63782952136E+01 -0.16752556334E+02  0.54173994508E+01  0.18726425456E+02  0.00000000000E+00 0.  1.
         11    1    3    3    0    0  0.15942095853E+02  0.58152290419E+01 -0.55966809167E+01  0.17868691797E+02  0.51100000000E-03 0. -1.
        -11    1    3    3    0    0  0.11385652224E+02  0.55777899107E+01 -0.20867536550E+02  0.24417184498E+02  0.51100000000E-03 0.  1.
        -12    1    3    3    0    0 -0.20949452864E+02  0.53595373809E+01  0.21046818016E+02  0.30175698249E+02  0.00000000000E+00 0.  1.
</event>
<event>
 7    1  0.2655561E-013  0.7246160E+02  0.7816164E-02  0.1226708E+00
        -11   -1    0    0    0    0  0.00000000000E+00  0.00000000000E+00  0.45593999997E+02  0.45594000000E+02  0.51100000000E-03 0. -1.
         11   -1    0    0    0    0 -0.00000000000E+00 -0.00000000000E+00 -0.45593999997E+02  0.45594000000E+02  0.51100000000E-03 0.  1.
    9900012    2    1    2    0    0 -0.48975986059E+01 -0.28969158271E+01  0.17840943835E+02  0.72461604983E+02  0.70000045189E+02 0.  0.
        -12    1    1    2    0    0  0.48975986059E+01  0.28969158271E+01 -0.17840943835E+02  0.18726395017E+02  0.00000000000E+00 0.  1.
         11    1    3    3    0    0 -0.80402506042E+01 -0.16277639652E+02 -0.14068990401E+01  0.18209518049E+02  0.51100000000E-03 0.  1.
        -11    1    3    3    0    0  0.31472554338E+01  0.76693881515E+01 -0.16279424598E+02  0.18268672554E+02  0.51100000000E-03 0. -1.
         12    1    3    3    0    0 -0.46034355231E-02  0.57113356731E+01  0.35527267473E+02  0.35983414380E+02  0.00000000000E+00 0. -1.
</event>
<event>
 7    1  0.2655561E-013  0.7246161E+02  0.7816164E-02  0.1226708E+00
        -11   -1    0    0    0    0  0.00000000000E+00  0.00000000000E+00  0.45593999997E+02  0.45594000000E+02  0.51100000000E-03 0. -1.
         11   -1    0    0    0    0 -0.00000000000E+00 -0.00000000000E+00 -0.45593999997E+02  0.45594000000E+02  0.51100000000E-03 0.  1.
    9900012    2    1    2    0    0 -0.17154134580E+02 -0.39971495267E+01  0.63589448393E+01  0.72461609077E+02  0.70000050522E+02 0.  0.
        -12    1    1    2    0    0  0.17154134580E+02  0.39971495267E+01 -0.63589448393E+01  0.18726390923E+02  0.00000000000E+00 0.  1.
         11    1    3    3    0    0 -0.12230499550E+02 -0.59930282819E+01  0.11140947937E+02  0.17596085600E+02  0.51100000000E-03 0.  1.
        -11    1    3    3    0    0 -0.21179106105E+02  0.87867734155E+01 -0.20872139604E+02  0.31006582114E+02  0.51100000000E-03 0. -1.
         12    1    3    3    0    0  0.16255471075E+02 -0.67908946603E+01  0.16090136506E+02  0.23858941363E+02  0.00000000000E+00 0. -1.
</event>
<event>
 7    1  0.2655561E-013  0.7246159E+02  0.7816164E-02  0.1226708E+00
        -11   -1    0    0    0    0  0.00000000000E+00  0.00000000000E+00  0.45593999997E+02  0.45594000000E+02  0.51100000000E-03 0.  1.
         11   -1    0    0    0    0 -0.00000000000E+00 -0.00000000000E+00 -0.45593999997E+02  0.45594000000E+02  0.51100000000E-03 0. -1.
    9900012    2    1    2    0    0  0.79938120249E+01 -0.29740243591E+01 -0.16671313377E+02  0.72461587069E+02  0.70000021851E+02 0.  0.
        -12    1    1    2    0    0 -0.79938120249E+01  0.29740243591E+01  0.16671313377E+02  0.18726412931E+02  0.00000000000E+00 0.  1.
         11    1    3    3    0    0  0.10042550195E+01 -0.11392740903E+02 -0.35798135860E+02  0.37580707879E+02  0.51100000000E-03 0. -1.
        -11    1    3    3    0    0  0.14783986510E+02  0.91546759625E+01  0.39923912149E+01  0.17841343475E+02  0.51100000000E-03 0.  1.
        -12    1    3    3    0    0 -0.77944295045E+01 -0.73595941898E+00  0.15134431268E+02  0.17039535715E+02  0.00000000000E+00 0.  1.
</event>
<event>
 7    1  0.2655561E-013  0.7246150E+02  0.7816164E-02  0.1226708E+00
        -11   -1    0    0    0    0  0.00000000000E+00  0.00000000000E+00  0.45593999997E+02  0.45594000000E+02  0.51100000000E-03 0.  1.
         11   -1    0    0    0    0 -0.00000000000E+00 -0.00000000000E+00 -0.45593999997E+02  0.45594000000E+02  0.51100000000E-03 0. -1.
    9900012    2    1    2    0    0 -0.16563736534E+02  0.39995135656E+01  0.77671287395E+01  0.72461500979E+02  0.69999909704E+02 0.  0.
        -12    1    1    2    0    0  0.16563736534E+02 -0.39995135656E+01 -0.77671287395E+01  0.18726499021E+02  0.00000000000E+00 0.  1.
         11    1    3    3    0    0 -0.86274909012E+00  0.10672050209E+02  0.59334766972E+01  0.12241043160E+02  0.51100000000E-03 0. -1.
        -11    1    3    3    0    0  0.19515923947E+02 -0.70859720058E+01  0.11451940427E+02  0.23711373359E+02  0.51100000000E-03 0.  1.
        -12    1    3    3    0    0 -0.35216911390E+02  0.41343536221E+00 -0.96182883850E+01  0.36509084460E+02  0.00000000000E+00 0.  1.
</event>
<event>
 7    1  0.2655561E-013  0.7246160E+02  0.7816164E-02  0.1226708E+00
        -11   -1    0    0    0    0  0.00000000000E+00  0.00000000000E+00  0.45593999997E+02  0.45594000000E+02  0.51100000000E-03 0. -1.
         11   -1    0    0    0    0 -0.00000000000E+00 -0.00000000000E+00 -0.45593999997E+02  0.45594000000E+02  0.51100000000E-03 0.  1.
    9900012    2    1    2    0    0 -0.12756098828E+02 -0.13340110337E+02 -0.31624948862E+01  0.72461602188E+02  0.70000041547E+02 0.  0.
        -12    1    1    2    0    0  0.12756098828E+02  0.13340110337E+02  0.31624948862E+01  0.18726397812E+02  0.00000000000E+00 0.  1.
         11    1    3    3    0    0  0.66561881701E+01 -0.35880697232E+00  0.14089425618E+02  0.15586709015E+02  0.51100000000E-03 0. -1.
        -11    1    3    3    0    0  0.71071286196E+01 -0.42454862614E+01  0.13186637097E+02  0.15569933494E+02  0.51100000000E-03 0.  1.
        -12    1    3    3    0    0 -0.26519415618E+02 -0.87358171033E+01 -0.30438557602E+02  0.41304959679E+02  0.00000000000E+00 0.  1.
</event>
<event>
 7    1  0.2655561E-013  0.7246153E+02  0.7816164E-02  0.1226708E+00
        -11   -1    0    0    0    0  0.00000000000E+00  0.00000000000E+00  0.45593999997E+02  0.45594000000E+02  0.51100000000E-03 0. -1.
         11   -1    0    0    0    0 -0.00000000000E+00 -0.00000000000E+00 -0.45593999997E+02  0.45594000000E+02  0.51100000000E-03 0.  1.
    9900012    2    1    2    0    0 -0.72686553817E+01  0.13122308306E+02  0.11209481283E+02  0.72461526841E+02  0.69999943394E+02 0.  0.
        -12    1    1    2    0    0  0.72686553817E+01 -0.13122308306E+02 -0.11209481283E+02  0.18726473159E+02  0.00000000000E+00 0.  1.
         11    1    3    3    0    0 -0.95480940374E+01  0.17175062813E+01  0.58415294641E+01  0.11324283391E+02  0.51100000000E-03 0. -1.
        -11    1    3    3    0    0 -0.19479071297E+02  0.23854790490E+02 -0.92010613707E+01  0.32142569570E+02  0.51100000000E-03 0.  1.
         12    1    3    3    0    0  0.21758509952E+02 -0.12449988466E+02  0.14569013189E+02  0.28994673881E+02  0.00000000000E+00 0. -1.
</event>
<event>
 7    1  0.2655561E-013  0.7246159E+02  0.7816164E-02  0.1226708E+00
        -11   -1    0    0    0    0  0.00000000000E+00  0.00000000000E+00  0.45593999997E+02  0.45594000000E+02  0.51100000000E-03 0.  1.
         11   -1    0    0    0    0 -0.00000000000E+00 -0.00000000000E+00 -0.45593999997E+02  0.45594000000E+02  0.51100000000E-03 0. -1.
    9900012    2    1    2    0    0 -0.11217526350E+02 -0.13515876966E+02 -0.64935848345E+01  0.72461588930E+02  0.70000024276E+02 0.  0.
        -12    1    1    2    0    0  0.11217526350E+02  0.13515876966E+02  0.64935848345E+01  0.18726411070E+02  0.00000000000E+00 0.  1.
         11    1    3    3    0    0 -0.10902316488E+02 -0.17333191018E+02 -0.15439136645E+02  0.25645018157E+02  0.51100000000E-03 0. -1.
        -11    1    3    3    0    0 -0.17114988765E+02  0.45244563498E+01 -0.10912381001E+02  0.20795999737E+02  0.51100000000E-03 0.  1.
        -12    1    3    3    0    0  0.16799778904E+02 -0.70714229770E+00  0.19857932812E+02  0.26020571035E+02  0.00000000000E+00 0.  1.
</event>
<event>
 7    1  0.2655561E-013  0.7246155E+02  0.7816164E-02  0.1226708E+00
        -11   -1    0    0    0    0  0.00000000000E+00  0.00000000000E+00  0.45593999997E+02  0.45594000000E+02  0.51100000000E-03 0. -1.
         11   -1    0    0    0    0 -0.00000000000E+00 -0.00000000000E+00 -0.45593999997E+02  0.45594000000E+02  0.51100000000E-03 0.  1.
    9900012    2    1    2    0    0 -0.12718655367E+01 -0.96091257928E+01  0.16022701850E+02  0.72461550390E+02  0.69999974070E+02 0.  0.
        -12    1    1    2    0    0  0.12718655367E+01  0.96091257928E+01 -0.16022701850E+02  0.18726449610E+02  0.00000000000E+00 0.  1.
         11    1    3    3    0    0  0.83889963897E+01  0.10169009215E+01 -0.61688310234E+01  0.10462496087E+02  0.51100000000E-03 0. -1.
        -11    1    3    3    0    0 -0.22030939509E+02  0.13552491648E+02 -0.15691190258E+01  0.25913210150E+02  0.51100000000E-03 0.  1.
         12    1    3    3    0    0  0.12370077582E+02 -0.24178518362E+02  0.23760651899E+02  0.36085844153E+02  0.00000000000E+00 0. -1.
</event>
<event>
 7    1  0.2655561E-013  0.7246154E+02  0.7816164E-02  0.1226708E+00
        -11   -1    0    0    0    0  0.00000000000E+00  0.00000000000E+00  0.45593999997E+02  0.45594000000E+02  0.51100000000E-03 0. -1.
         11   -1    0    0    0    0 -0.00000000000E+00 -0.00000000000E+00 -0.45593999997E+02  0.45594000000E+02  0.51100000000E-03 0.  1.
    9900012    2    1    2    0    0  0.79734328575E+01  0.13203291619E+02  0.10619681482E+02  0.72461543424E+02  0.69999964996E+02 0.  0.
        -12    1    1    2    0    0 -0.79734328575E+01 -0.13203291619E+02 -0.10619681482E+02  0.18726456576E+02  0.00000000000E+00 0.  1.
         11    1    3    3    0    0  0.11183023575E+02  0.53675525929E+01 -0.62906127969E+01  0.13908358880E+02  0.51100000000E-03 0. -1.
        -11    1    3    3    0    0 -0.10109340435E+02 -0.22627121665E+02  0.85937650781E+01  0.26230482218E+02  0.51100000000E-03 0.  1.
         12    1    3    3    0    0  0.68997497173E+01  0.30462860692E+02  0.83165292011E+01  0.32322702326E+02  0.00000000000E+00 0. -1.
</event>
<event>
 7    1  0.2655561E-013  0.7246168E+02  0.7816164E-02  0.1226708E+00
        -11   -1    0    0    0    0  0.00000000000E+00  0.00000000000E+00  0.45593999997E+02  0.45594000000E+02  0.51100000000E-03 0. -1.
         11   -1    0    0    0    0 -0.00000000000E+00 -0.00000000000E+00 -0.45593999997E+02  0.45594000000E+02  0.51100000000E-03 0.  1.
    9900012    2    1    2    0    0 -0.10416041949E+01 -0.12006284028E+02  0.14333147107E+02  0.72461684253E+02  0.70000148452E+02 0.  0.
        -12    1    1    2    0    0  0.10416041949E+01  0.12006284028E+02 -0.14333147107E+02  0.18726315747E+02  0.00000000000E+00 0.  1.
         11    1    3    3    0    0  0.15409489153E+02  0.16269358647E+02  0.78322049748E+01  0.23737898428E+02  0.51100000000E-03 0. -1.
        -11    1    3    3    0    0 -0.18680639182E+02 -0.17977616750E+01  0.11031003218E+02  0.21768813921E+02  0.51100000000E-03 0.  1.
         12    1    3    3    0    0  0.22295458337E+01 -0.26477881000E+02 -0.45300610852E+01  0.26954971904E+02  0.00000000000E+00 0. -1.
</event>
<event>
 7    1  0.2655561E-013  0.7246154E+02  0.7816164E-02  0.1226708E+00
        -11   -1    0    0    0    0  0.00000000000E+00  0.00000000000E+00  0.45593999997E+02  0.45594000000E+02  0.51100000000E-03 0.  1.
         11   -1    0    0    0    0 -0.00000000000E+00 -0.00000000000E+00 -0.45593999997E+02  0.45594000000E+02  0.51100000000E-03 0. -1.
    9900012    2    1    2    0    0  0.89638707566E+01 -0.99783623297E+01 -0.13067578983E+02  0.72461539731E+02  0.69999960186E+02 0.  0.
        -12    1    1    2    0    0 -0.89638707566E+01  0.99783623297E+01  0.13067578983E+02  0.18726460269E+02  0.00000000000E+00 0.  1.
         11    1    3    3    0    0  0.61788978895E+00 -0.97740144474E+01 -0.29944235613E+02  0.31505085191E+02  0.51100000000E-03 0. -1.
        -11    1    3    3    0    0  0.67663697488E+01  0.74320824563E+01 -0.92691694760E+01  0.13672494734E+02  0.51100000000E-03 0.  1.
         12    1    3    3    0    0  0.15796112189E+01 -0.76364303386E+01  0.26145826106E+02  0.27283959806E+02  0.00000000000E+00 0. -1.
</event>
<event>
 7    1  0.2655561E-013  0.7246166E+02  0.7816164E-02  0.1226708E+00
        -11   -1    0    0    0    0  0.00000000000E+00  0.00000000000E+00  0.45593999997E+02  0.45594000000E+02  0.51100000000E-03 0. -1.
         11   -1    0    0    0    0 -0.00000000000E+00 -0.00000000000E+00 -0.45593999997E+02  0.45594000000E+02  0.51100000000E-03 0.  1.
    9900012    2    1    2    0    0  0.12240314831E+02  0.10182529507E+01  0.14135544968E+02  0.72461660855E+02  0.70000117972E+02 0.  0.
        -12    1    1    2    0    0 -0.12240314831E+02 -0.10182529507E+01 -0.14135544968E+02  0.18726339145E+02  0.00000000000E+00 0.  1.
         11    1    3    3    0    0  0.67541866137E+01  0.55570020156E+01  0.97177690809E+01  0.13074186184E+02  0.51100000000E-03 0. -1.
        -11    1    3    3    0    0  0.78593909366E+01  0.17625973459E+02  0.23242903640E+02  0.30210553390E+02  0.51100000000E-03 0.  1.
        -12    1    3    3    0    0 -0.23732627192E+01 -0.22164722524E+02 -0.18825127753E+02  0.29176921280E+02  0.00000000000E+00 0.  1.
</event>
<event>
 7    1  0.2655561E-013  0.7246153E+02  0.7816164E-02  0.1226708E+00
        -11   -1    0    0    0    0  0.00000000000E+00  0.00000000000E+00  0.45593999997E+02  0.45594000000E+02  0.51100000000E-03 0.  1.
         11   -1    0    0    0    0 -0.00000000000E+00 -0.00000000000E+00 -0.45593999997E+02  0.45594000000E+02  0.51100000000E-03 0. -1.
    9900012    2    1    2    0    0  0.59046723113E+01  0.16425020685E+02 -0.67848501588E+01  0.72461530731E+02  0.69999948461E+02 0.  0.
        -12    1    1    2    0    0 -0.59046723113E+01 -0.16425020685E+02  0.67848501588E+01  0.18726469269E+02  0.00000000000E+00 0.  1.
         11    1    3    3    0    0  0.19562784149E+02  0.59340405459E+01  0.12435305042E+02  0.23928062450E+02  0.51100000000E-03 0. -1.
        -11    1    3    3    0    0 -0.92503237030E+01  0.99963244044E+01  0.11297336703E+02  0.17695332917E+02  0.51100000000E-03 0.  1.
        -12    1    3    3    0    0 -0.44077881343E+01  0.49465573523E+00 -0.30517491905E+02  0.30838135363E+02  0.00000000000E+00 0.  1.
</event>
<event>
 7    1  0.2655561E-013  0.7246156E+02  0.7816164E-02  0.1226708E+00
        -11   -1    0    0    0    0  0.00000000000E+00  0.00000000000E+00  0.45593999997E+02  0.45594000000E+02  0.51100000000E-03 0. -1.
         11   -1    0    0    0    0 -0.00000000000E+00 -0.00000000000E+00 -0.45593999997E+02  0.45594000000E+02  0.51100000000E-03 0.  1.
    9900012    2    1    2    0    0  0.69409928667E+01  0.11444717490E+02  0.13096588369E+02  0.72461559673E+02  0.69999986164E+02 0.  0.
        -12    1    1    2    0    0 -0.69409928667E+01 -0.11444717490E+02 -0.13096588369E+02  0.18726440327E+02  0.00000000000E+00 0.  1.
         11    1    3    3    0    0  0.76169931526E+01  0.19427140079E+02  0.15510841945E+02  0.26000357198E+02  0.51100000000E-03 0. -1.
        -11    1    3    3    0    0  0.12061655167E+02  0.14057878385E+02  0.62836791149E+01  0.19559961491E+02  0.51100000000E-03 0.  1.
         12    1    3    3    0    0 -0.12737655452E+02 -0.22040300973E+02 -0.86979326905E+01  0.26901240984E+02  0.00000000000E+00 0. -1.
</event>
<event>
 7    1  0.2655561E-013  0.7246163E+02  0.7816164E-02  0.1226708E+00
        -11   -1    0    0    0    0  0.00000000000E+00  0.00000000000E+00  0.45593999997E+02  0.45594000000E+02  0.51100000000E-03 0.  1.
         11   -1    0    0    0    0 -0.00000000000E+00 -0.00000000000E+00 -0.45593999997E+02  0.45594000000E+02  0.51100000000E-03 0. -1.
    9900012    2    1    2    0    0  0.54394813696E+01  0.36748990280E+01  0.17538074527E+02  0.72461630930E+02  0.70000078989E+02 0.  0.
        -12    1    1    2    0    0 -0.54394813696E+01 -0.36748990280E+01 -0.17538074527E+02  0.18726369070E+02  0.00000000000E+00 0.  1.
         11    1    3    3    0    0  0.12847244011E+02 -0.74318206685E+01 -0.13909497133E+02  0.20341036057E+02  0.51100000000E-03 0. -1.
        -11    1    3    3    0    0  0.10379989244E+02 -0.75525219380E+01  0.20335823358E+02  0.24048502578E+02  0.51100000000E-03 0.  1.
        -12    1    3    3    0    0 -0.17787751885E+02  0.18659241634E+02  0.11111748301E+02  0.28072092295E+02  0.00000000000E+00 0.  1.
</event>
<event>
 7    1  0.2655561E-013  0.7246157E+02  0.7816164E-02  0.1226708E+00
        -11   -1    0    0    0    0  0.00000000000E+00  0.00000000000E+00  0.45593999997E+02  0.45594000000E+02  0.51100000000E-03 0.  1.
         11   -1    0    0    0    0 -0.00000000000E+00 -0.00000000000E+00 -0.45593999997E+02  0.45594000000E+02  0.51100000000E-03 0. -1.
    9900012    2    1    2    0    0 -0.19942594771E+01 -0.17006642445E+02  0.75813011140E+01  0.72461572559E+02  0.70000002950E+02 0.  0.
        -12    1    1    2    0    0  0.19942594771E+01  0.17006642445E+02 -0.75813011140E+01  0.18726427441E+02  0.00000000000E+00 0.  1.
         11    1    3    3    0    0 -0.13067854948E+02  0.14183538153E+02 -0.14770787883E+02  0.24292339583E+02  0.51100000000E-03 0. -1.
        -11    1    3    3    0    0  0.19015179606E+02 -0.14822195323E+02  0.95921331114E+01  0.25947707944E+02  0.51100000000E-03 0.  1.
        -12    1    3    3    0    0 -0.79415841351E+01 -0.16367985275E+02  0.12759955885E+02  0.22221525032E+02  0.00000000000E+00 0.  1.
</event>
<event>
 7    1  0.2655561E-013  0.7246163E+02  0.7816164E-02  0.1226708E+00
        -11   -1    0    0    0    0  0.00000000000E+00  0.00000000000E+00  0.45593999997E+02  0.45594000000E+02  0.51100000000E-03 0. -1.
         11   -1    0    0    0    0 -0.00000000000E+00 -0.00000000000E+00 -0.45593999997E+02  0.45594000000E+02  0.51100000000E-03 0.  1.
    9900012    2    1    2    0    0 -0.93592419600E+00 -0.15118655144E+01  0.18641763740E+02  0.72461626972E+02  0.70000073833E+02 0.  0.
        -12    1    1    2    0    0  0.93592419600E+00  0.15118655144E+01 -0.18641763740E+02  0.18726373028E+02  0.00000000000E+00 0.  1.
         11    1    3    3    0    0 -0.93805794836E+01  0.17634925939E+02  0.27316298220E+02  0.33840301905E+02  0.51100000000E-03 0. -1.
        -11    1    3    3    0    0 -0.40499310195E+01  0.60232072780E+01  0.34260143220E+01  0.80261162197E+01  0.51100000000E-03 0.  1.
        -12    1    3    3    0    0  0.12494586307E+02 -0.25169998731E+02 -0.12100548802E+02  0.30595208847E+02  0.00000000000E+00 0.  1.
</event>
<event>
 7    1  0.2655561E-013  0.7246153E+02  0.7816164E-02  0.1226708E+00
        -11   -1    0    0    0    0  0.00000000000E+00  0.00000000000E+00  0.45593999997E+02  0.45594000000E+02  0.51100000000E-03 0. -1.
         11   -1    0    0    0    0 -0.00000000000E+00 -0.00000000000E+00 -0.45593999997E+02  0.45594000000E+02  0.51100000000E-03 0.  1.
    9900012    2    1    2    0    0  0.11411800554E+01 -0.77970521329E+01  0.16987769781E+02  0.72461531139E+02  0.69999948993E+02 0.  0.
        -12    1    1    2    0    0 -0.11411800554E+01  0.77970521329E+01 -0.16987769781E+02  0.18726468861E+02  0.00000000000E+00 0.  1.
         11    1    3    3    0    0 -0.28819882857E+01 -0.37626969662E+01 -0.11995917482E+00  0.47411111992E+01  0.51100000000E-03 0. -1.
        -11    1    3    3    0    0 -0.29474474997E+02 -0.10093057070E+02  0.47981778019E+01  0.31522007992E+02  0.51100000000E-03 0.  1.
         12    1    3    3    0    0  0.33497643338E+02  0.60587019034E+01  0.12309551154E+02  0.36198411948E+02  0.00000000000E+00 0. -1.
</event>
<event>
 7    1  0.2655561E-013  0.7246163E+02  0.7816164E-02  0.1226708E+00
        -11   -1    0    0    0    0  0.00000000000E+00  0.00000000000E+00  0.45593999997E+02  0.45594000000E+02  0.51100000000E-03 0.  1.
         11   -1    0    0    0    0 -0.00000000000E+00 -0.00000000000E+00 -0.45593999997E+02  0.45594000000E+02  0.51100000000E-03 0. -1.
    9900012    2    1    2    0    0  0.57436292466E+01 -0.17106583385E+02 -0.50052302880E+01  0.72461633500E+02  0.70000082338E+02 0.  0.
        -12    1    1    2    0    0 -0.57436292466E+01  0.17106583385E+02  0.50052302880E+01  0.18726366500E+02  0.00000000000E+00 0.  1.
         11    1    3    3    0    0  0.88918842574E+01 -0.25470067719E+02  0.15745032961E+02  0.31236133219E+02  0.51100000000E-03 0.  1.
        -11    1    3    3    0    0  0.14800728897E+02  0.97729168881E+00 -0.14729151914E+02  0.20903698029E+02  0.51100000000E-03 0. -1.
        -12    1    3    3    0    0 -0.17948983907E+02  0.73861926453E+01 -0.60211113351E+01  0.20321802253E+02  0.00000000000E+00 0.  1.
</event>
<event>
 7    1  0.2655561E-013  0.7246131E+02  0.7816164E-02  0.1226709E+00
        -11   -1    0    0    0    0  0.00000000000E+00  0.00000000000E+00  0.45593999997E+02  0.45594000000E+02  0.51100000000E-03 0. -1.
         11   -1    0    0    0    0 -0.00000000000E+00 -0.00000000000E+00 -0.45593999997E+02  0.45594000000E+02  0.51100000000E-03 0.  1.
    9900012    2    1    2    0    0  0.96246509068E+01 -0.67749901560E+01  0.14565521715E+02  0.72461312639E+02  0.69999664355E+02 0.  0.
        -12    1    1    2    0    0 -0.96246509068E+01  0.67749901560E+01 -0.14565521715E+02  0.18726687361E+02  0.00000000000E+00 0.  1.
         11    1    3    3    0    0  0.18525249907E+02  0.26439657893E+02  0.74147176213E+01  0.33124287635E+02  0.51100000000E-03 0. -1.
        -11    1    3    3    0    0 -0.11896344220E+01 -0.27452509759E+01  0.73186588792E+01  0.79066048990E+01  0.51100000000E-03 0.  1.
        -12    1    3    3    0    0 -0.77109645784E+01 -0.30469397073E+02 -0.16785478519E+00  0.31430420105E+02  0.00000000000E+00 0.  1.
</event>
<event>
 7    1  0.2655561E-013  0.7246160E+02  0.7816164E-02  0.1226708E+00
        -11   -1    0    0    0    0  0.00000000000E+00  0.00000000000E+00  0.45593999997E+02  0.45594000000E+02  0.51100000000E-03 0.  1.
         11   -1    0    0    0    0 -0.00000000000E+00 -0.00000000000E+00 -0.45593999997E+02  0.45594000000E+02  0.51100000000E-03 0. -1.
    9900012    2    1    2    0    0  0.73159803319E+01 -0.17151356010E+02 -0.17278028822E+01  0.72461604618E+02  0.70000044713E+02 0.  0.
        -12    1    1    2    0    0 -0.73159803319E+01  0.17151356010E+02  0.17278028822E+01  0.18726395382E+02  0.00000000000E+00 0.  1.
         11    1    3    3    0    0  0.36609741374E+01  0.30391124119E+00 -0.37493013594E+01  0.52490336846E+01  0.51100000000E-03 0. -1.
        -11    1    3    3    0    0  0.12585308400E+02 -0.24620046903E+02  0.27674530617E+02  0.39120536067E+02  0.51100000000E-03 0.  1.
         12    1    3    3    0    0 -0.89303022060E+01  0.71647796521E+01 -0.25653032140E+02  0.28092034866E+02  0.00000000000E+00 0. -1.
</event>
<event>
 7    1  0.2655561E-013  0.7246153E+02  0.7816164E-02  0.1226708E+00
        -11   -1    0    0    0    0  0.00000000000E+00  0.00000000000E+00  0.45593999997E+02  0.45594000000E+02  0.51100000000E-03 0. -1.
         11   -1    0    0    0    0 -0.00000000000E+00 -0.00000000000E+00 -0.45593999997E+02  0.45594000000E+02  0.51100000000E-03 0.  1.
    9900012    2    1    2    0    0 -0.70072305715E+01 -0.10761875848E+02  0.13629430303E+02  0.72461531502E+02  0.69999949465E+02 0.  0.
        -12    1    1    2    0    0  0.70072305715E+01  0.10761875848E+02 -0.13629430303E+02  0.18726468498E+02  0.00000000000E+00 0.  1.
         11    1    3    3    0    0 -0.77542912808E+01  0.43411688786E+01  0.78672760194E+01  0.11868816821E+02  0.51100000000E-03 0. -1.
        -11    1    3    3    0    0  0.24311409907E+02  0.33071257560E+01  0.15644531433E+02  0.29098678604E+02  0.51100000000E-03 0.  1.
        -12    1    3    3    0    0 -0.23564349198E+02 -0.18410170482E+02 -0.98823771501E+01  0.31494036077E+02  0.00000000000E+00 0.  1.
</event>
<event>
 7    1  0.2655561E-013  0.7246157E+02  0.7816164E-02  0.1226708E+00
        -11   -1    0    0    0    0  0.00000000000E+00  0.00000000000E+00  0.45593999997E+02  0.45594000000E+02  0.51100000000E-03 0.  1.
         11   -1    0    0    0    0 -0.00000000000E+00 -0.00000000000E+00 -0.45593999997E+02  0.45594000000E+02  0.51100000000E-03 0. -1.
    9900012    2    1    2    0    0 -0.19711279572E+01 -0.18808139402E+01 -0.18527174306E+02  0.72461574973E+02  0.70000006095E+02 0.  0.
        -12    1    1    2    0    0  0.19711279572E+01  0.18808139402E+01  0.18527174306E+02  0.18726425027E+02  0.00000000000E+00 0.  1.
         11    1    3    3    0    0 -0.74983347602E+01  0.10733735362E+02 -0.18462096680E+02  0.22633760472E+02  0.51100000000E-03 0. -1.
        -11    1    3    3    0    0 -0.17741040203E+02  0.28347897740E+01  0.94773079683E+01  0.20312555406E+02  0.51100000000E-03 0.  1.
         12    1    3    3    0    0  0.23268247006E+02 -0.15449339076E+02 -0.95423855946E+01  0.29515259095E+02  0.00000000000E+00 0. -1.
</event>
<event>
 7    1  0.2655561E-013  0.7246165E+02  0.7816164E-02  0.1226708E+00
        -11   -1    0    0    0    0  0.00000000000E+00  0.00000000000E+00  0.45593999997E+02  0.45594000000E+02  0.51100000000E-03 0. -1.
         11   -1    0    0    0    0 -0.00000000000E+00 -0.00000000000E+00 -0.45593999997E+02  0.45594000000E+02  0.51100000000E-03 0.  1.
    9900012    2    1    2    0    0 -0.37929225374E+01  0.38971401728E+01  0.17919323559E+02  0.72461651725E+02  0.70000106079E+02 0.  0.
        -12    1    1    2    0    0  0.37929225374E+01 -0.38971401728E+01 -0.17919323559E+02  0.18726348275E+02  0.00000000000E+00 0.  1.
         11    1    3    3    0    0  0.41019358329E+01  0.59959212493E+01  0.20273062258E+02  0.21535412761E+02  0.51100000000E-03 0. -1.
        -11    1    3    3    0    0  0.84293583510E+01  0.15927714448E+02 -0.15062188066E+02  0.23486499939E+02  0.51100000000E-03 0.  1.
         12    1    3    3    0    0 -0.16324216721E+02 -0.18026495525E+02  0.12708449367E+02  0.27439739026E+02  0.00000000000E+00 0. -1.
</event>
<event>
 7    1  0.2655561E-013  0.7246175E+02  0.7816164E-02  0.1226708E+00
        -11   -1    0    0    0    0  0.00000000000E+00  0.00000000000E+00  0.45593999997E+02  0.45594000000E+02  0.51100000000E-03 0. -1.
         11   -1    0    0    0    0 -0.00000000000E+00 -0.00000000000E+00 -0.45593999997E+02  0.45594000000E+02  0.51100000000E-03 0.  1.
    9900012    2    1    2    0    0 -0.89180729495E+01  0.16456757290E+02  0.56160636778E+00  0.72461754051E+02  0.70000239377E+02 0.  0.
        -12    1    1    2    0    0  0.89180729495E+01 -0.16456757290E+02 -0.56160636778E+00  0.18726245949E+02  0.00000000000E+00 0.  1.
         11    1    3    3    0    0  0.19179960278E+00  0.12943508686E+02 -0.47591317000E+00  0.12953675069E+02  0.51100000000E-03 0. -1.
        -11    1    3    3    0    0 -0.26956154829E+02 -0.72978746653E+01 -0.16338478385E+02  0.32354893510E+02  0.51100000000E-03 0.  1.
         12    1    3    3    0    0  0.17846282277E+02  0.10811123269E+02  0.17375997923E+02  0.27153185472E+02  0.00000000000E+00 0. -1.
</event>
<event>
 7    1  0.2655561E-013  0.7246161E+02  0.7816164E-02  0.1226708E+00
        -11   -1    0    0    0    0  0.00000000000E+00  0.00000000000E+00  0.45593999997E+02  0.45594000000E+02  0.51100000000E-03 0.  1.
         11   -1    0    0    0    0 -0.00000000000E+00 -0.00000000000E+00 -0.45593999997E+02  0.45594000000E+02  0.51100000000E-03 0. -1.
    9900012    2    1    2    0    0  0.14342556104E+02 -0.69328136612E+01 -0.98440321164E+01  0.72461607150E+02  0.70000048012E+02 0.  0.
        -12    1    1    2    0    0 -0.14342556104E+02  0.69328136612E+01  0.98440321164E+01  0.18726392850E+02  0.00000000000E+00 0.  1.
         11    1    3    3    0    0 -0.35529175119E+01 -0.89152648929E+01 -0.36640697030E+02  0.37876719104E+02  0.51100000000E-03 0. -1.
        -11    1    3    3    0    0 -0.35183642973E+00  0.35319259357E+01  0.45265310521E+01  0.57521972597E+01  0.51100000000E-03 0.  1.
        -12    1    3    3    0    0  0.18247310045E+02 -0.15494747040E+01  0.22270133862E+02  0.28832690786E+02  0.00000000000E+00 0.  1.
</event>
<event>
 7    1  0.2655561E-013  0.7246155E+02  0.7816164E-02  0.1226708E+00
        -11   -1    0    0    0    0  0.00000000000E+00  0.00000000000E+00  0.45593999997E+02  0.45594000000E+02  0.51100000000E-03 0. -1.
         11   -1    0    0    0    0 -0.00000000000E+00 -0.00000000000E+00 -0.45593999997E+02  0.45594000000E+02  0.51100000000E-03 0.  1.
    9900012    2    1    2    0    0  0.10773133070E+02  0.11381573687E+02  0.10250828378E+02  0.72461545499E+02  0.69999967700E+02 0.  0.
        -12    1    1    2    0    0 -0.10773133070E+02 -0.11381573687E+02 -0.10250828378E+02  0.18726454501E+02  0.00000000000E+00 0.  1.
         11    1    3    3    0    0 -0.15215038570E+02  0.19944959204E+02  0.16946069063E+02  0.30273223371E+02  0.51100000000E-03 0. -1.
        -11    1    3    3    0    0 -0.50205265674E+01  0.55213935685E+01 -0.25153404879E+01  0.78751769493E+01  0.51100000000E-03 0.  1.
        -12    1    3    3    0    0  0.31008698208E+02 -0.14084779085E+02 -0.41799001974E+01  0.34313145179E+02  0.00000000000E+00 0.  1.
</event>
<event>
 7    1  0.2655561E-013  0.7246161E+02  0.7816164E-02  0.1226708E+00
        -11   -1    0    0    0    0  0.00000000000E+00  0.00000000000E+00  0.45593999997E+02  0.45594000000E+02  0.51100000000E-03 0. -1.
         11   -1    0    0    0    0 -0.00000000000E+00 -0.00000000000E+00 -0.45593999997E+02  0.45594000000E+02  0.51100000000E-03 0.  1.
    9900012    2    1    2    0    0  0.12949800546E+02  0.13450362316E+02 -0.14381447066E+01  0.72461605772E+02  0.70000046216E+02 0.  0.
        -12    1    1    2    0    0 -0.12949800546E+02 -0.13450362316E+02  0.14381447066E+01  0.18726394228E+02  0.00000000000E+00 0.  1.
         11    1    3    3    0    0  0.11150675045E+02  0.34065722996E+01 -0.39732030833E+01  0.12317817655E+02  0.51100000000E-03 0. -1.
        -11    1    3    3    0    0 -0.54650023946E+00  0.26819780393E+02 -0.18906422411E+02  0.32818471803E+02  0.51100000000E-03 0.  1.
        -12    1    3    3    0    0  0.23456257407E+01 -0.16775990377E+02  0.21441480787E+02  0.27325316313E+02  0.00000000000E+00 0.  1.
</event>
<event>
 7    1  0.2655561E-013  0.7246156E+02  0.7816164E-02  0.1226708E+00
        -11   -1    0    0    0    0  0.00000000000E+00  0.00000000000E+00  0.45593999997E+02  0.45594000000E+02  0.51100000000E-03 0. -1.
         11   -1    0    0    0    0 -0.00000000000E+00 -0.00000000000E+00 -0.45593999997E+02  0.45594000000E+02  0.51100000000E-03 0.  1.
    9900012    2    1    2    0    0  0.52305171729E+01  0.15903362616E+02 -0.83907216877E+01  0.72461562463E+02  0.69999989798E+02 0.  0.
        -12    1    1    2    0    0 -0.52305171729E+01 -0.15903362616E+02  0.83907216877E+01  0.18726437537E+02  0.00000000000E+00 0.  1.
         11    1    3    3    0    0  0.18309599775E+01  0.28533592950E+01  0.23546569421E+02  0.23789388505E+02  0.51100000000E-03 0. -1.
        -11    1    3    3    0    0  0.72940690294E+00  0.24866943376E+01  0.74069227956E+01  0.78471771179E+01  0.51100000000E-03 0.  1.
        -12    1    3    3    0    0  0.26701502925E+01  0.10563308983E+02 -0.39344213904E+02  0.40824996840E+02  0.00000000000E+00 0.  1.
</event>
<event>
 7    1  0.2655561E-013  0.7246159E+02  0.7816164E-02  0.1226708E+00
        -11   -1    0    0    0    0  0.00000000000E+00  0.00000000000E+00  0.45593999997E+02  0.45594000000E+02  0.51100000000E-03 0. -1.
         11   -1    0    0    0    0 -0.00000000000E+00 -0.00000000000E+00 -0.45593999997E+02  0.45594000000E+02  0.51100000000E-03 0.  1.
    9900012    2    1    2    0    0  0.87053275100E+01  0.16277358352E+02 -0.31532737001E+01  0.72461594659E+02  0.70000031739E+02 0.  0.
        -12    1    1    2    0    0 -0.87053275100E+01 -0.16277358352E+02  0.31532737001E+01  0.18726405341E+02  0.00000000000E+00 0.  1.
         11    1    3    3    0    0  0.85271994883E+01 -0.19715454330E+02 -0.11309879286E+02  0.24276030159E+02  0.51100000000E-03 0. -1.
        -11    1    3    3    0    0  0.89763557138E+01  0.12402551957E+01 -0.45646401194E+01  0.10146385294E+02  0.51100000000E-03 0.  1.
        -12    1    3    3    0    0 -0.87982276921E+01  0.34752557487E+02  0.12721245705E+02  0.38039179206E+02  0.00000000000E+00 0.  1.
</event>
<event>
 7    1  0.2655561E-013  0.7246171E+02  0.7816164E-02  0.1226708E+00
        -11   -1    0    0    0    0  0.00000000000E+00  0.00000000000E+00  0.45593999997E+02  0.45594000000E+02  0.51100000000E-03 0.  1.
         11   -1    0    0    0    0 -0.00000000000E+00 -0.00000000000E+00 -0.45593999997E+02  0.45594000000E+02  0.51100000000E-03 0. -1.
    9900012    2    1    2    0    0 -0.12095188869E+02 -0.12927430913E+02  0.61042365332E+01  0.72461714532E+02  0.70000187896E+02 0.  0.
        -12    1    1    2    0    0  0.12095188869E+02  0.12927430913E+02 -0.61042365332E+01  0.18726285468E+02  0.00000000000E+00 0.  1.
         11    1    3    3    0    0 -0.76065664473E+01  0.23529907336E+02  0.73106534339E+01  0.25786858014E+02  0.51100000000E-03 0. -1.
        -11    1    3    3    0    0 -0.51748138208E+01 -0.50716721375E+01  0.10849345598E+02  0.13046411633E+02  0.51100000000E-03 0.  1.
        -12    1    3    3    0    0  0.68619139951E+00 -0.31385666112E+02 -0.12055762498E+02  0.33628444884E+02  0.00000000000E+00 0.  1.
</event>
<event>
 7    1  0.2655561E-013  0.7246155E+02  0.7816164E-02  0.1226708E+00
        -11   -1    0    0    0    0  0.00000000000E+00  0.00000000000E+00  0.45593999997E+02  0.45594000000E+02  0.51100000000E-03 0. -1.
         11   -1    0    0    0    0 -0.00000000000E+00 -0.00000000000E+00 -0.45593999997E+02  0.45594000000E+02  0.51100000000E-03 0.  1.
    9900012    2    1    2    0    0  0.90761820586E+01 -0.12931494320E+02  0.10053811599E+02  0.72461554695E+02  0.69999979679E+02 0.  0.
        -12    1    1    2    0    0 -0.90761820586E+01  0.12931494320E+02 -0.10053811599E+02  0.18726445305E+02  0.00000000000E+00 0.  1.
         11    1    3    3    0    0 -0.60716101467E+01 -0.87727888492E+00 -0.78880514045E+01  0.99927685472E+01  0.51100000000E-03 0. -1.
        -11    1    3    3    0    0 -0.10336127547E+02 -0.20560867948E+02 -0.87285299732E+01  0.24612437084E+02  0.51100000000E-03 0.  1.
         12    1    3    3    0    0  0.25483919753E+02  0.85066525128E+01  0.26670392977E+02  0.37856349064E+02  0.00000000000E+00 0. -1.
</event>
<event>
 7    1  0.2655561E-013  0.7246155E+02  0.7816164E-02  0.1226708E+00
        -11   -1    0    0    0    0  0.00000000000E+00  0.00000000000E+00  0.45593999997E+02  0.45594000000E+02  0.51100000000E-03 0. -1.
         11   -1    0    0    0    0 -0.00000000000E+00 -0.00000000000E+00 -0.45593999997E+02  0.45594000000E+02  0.51100000000E-03 0.  1.
    9900012    2    1    2    0    0  0.13911230490E+02  0.74163289637E+01  0.10107202430E+02  0.72461553193E+02  0.69999977723E+02 0.  0.
        -12    1    1    2    0    0 -0.13911230490E+02 -0.74163289637E+01 -0.10107202430E+02  0.18726446807E+02  0.00000000000E+00 0.  1.
         11    1    3    3    0    0 -0.41550567882E+01 -0.53598626253E+01  0.72551685573E+01  0.99312685660E+01  0.51100000000E-03 0. -1.
        -11    1    3    3    0    0 -0.12575116724E+02 -0.15998902967E+02  0.24267963927E+01  0.20493603825E+02  0.51100000000E-03 0.  1.
         12    1    3    3    0    0  0.30641404002E+02  0.28775094556E+02  0.42523747960E+00  0.42036680802E+02  0.00000000000E+00 0. -1.
</event>
<event>
 7    1  0.2655561E-013  0.7246164E+02  0.7816164E-02  0.1226708E+00
        -11   -1    0    0    0    0  0.00000000000E+00  0.00000000000E+00  0.45593999997E+02  0.45594000000E+02  0.51100000000E-03 0.  1.
         11   -1    0    0    0    0 -0.00000000000E+00 -0.00000000000E+00 -0.45593999997E+02  0.45594000000E+02  0.51100000000E-03 0. -1.
    9900012    2    1    2    0    0 -0.55691242839E+01 -0.16259183992E+00 -0.17878337263E+02  0.72461640912E+02  0.70000091993E+02 0.  0.
        -12    1    1    2    0    0  0.55691242839E+01  0.16259183992E+00  0.17878337263E+02  0.18726359088E+02  0.00000000000E+00 0.  1.
         11    1    3    3    0    0  0.77580461051E+01  0.69777755585E+01  0.94235095312E+01  0.14059842220E+02  0.51100000000E-03 0. -1.
        -11    1    3    3    0    0  0.79108423333E+01  0.80240103588E+01 -0.30115398426E+02  0.32154368152E+02  0.51100000000E-03 0.  1.
         12    1    3    3    0    0 -0.21238012722E+02 -0.15164377757E+02  0.28135516314E+01  0.26247430540E+02  0.00000000000E+00 0. -1.
</event>
<event>
 7    1  0.2655561E-013  0.7246153E+02  0.7816164E-02  0.1226708E+00
        -11   -1    0    0    0    0  0.00000000000E+00  0.00000000000E+00  0.45593999997E+02  0.45594000000E+02  0.51100000000E-03 0. -1.
         11   -1    0    0    0    0 -0.00000000000E+00 -0.00000000000E+00 -0.45593999997E+02  0.45594000000E+02  0.51100000000E-03 0.  1.
    9900012    2    1    2    0    0  0.12477526513E+01 -0.18386035434E+02  0.33282853447E+01  0.72461530258E+02  0.69999947846E+02 0.  0.
        -12    1    1    2    0    0 -0.12477526513E+01  0.18386035434E+02 -0.33282853447E+01  0.18726469742E+02  0.00000000000E+00 0.  1.
         11    1    3    3    0    0 -0.16586532339E+01  0.69893463101E+01 -0.21411875419E+01  0.74957839312E+01  0.51100000000E-03 0. -1.
        -11    1    3    3    0    0  0.55516563349E+01  0.15663778179E+02 -0.11780144161E+02  0.20370238870E+02  0.51100000000E-03 0.  1.
         12    1    3    3    0    0 -0.26452504497E+01 -0.41039159923E+02  0.17249617047E+02  0.44595507457E+02  0.00000000000E+00 0. -1.
</event>
<event>
 7    1  0.2655561E-013  0.7246157E+02  0.7816164E-02  0.1226708E+00
        -11   -1    0    0    0    0  0.00000000000E+00  0.00000000000E+00  0.45593999997E+02  0.45594000000E+02  0.51100000000E-03 0. -1.
         11   -1    0    0    0    0 -0.00000000000E+00 -0.00000000000E+00 -0.45593999997E+02  0.45594000000E+02  0.51100000000E-03 0.  1.
    9900012    2    1    2    0    0 -0.48274851216E+01  0.15074450917E+02  0.10006773864E+02  0.72461569315E+02  0.69999998724E+02 0.  0.
        -12    1    1    2    0    0  0.48274851216E+01 -0.15074450917E+02 -0.10006773864E+02  0.18726430685E+02  0.00000000000E+00 0.  1.
         11    1    3    3    0    0 -0.14374235514E+02 -0.12929823639E+02  0.13870792795E+02  0.23794912881E+02  0.51100000000E-03 0. -1.
        -11    1    3    3    0    0 -0.11679655335E+02 -0.47429033791E+00 -0.58913947206E+01  0.13089989766E+02  0.51100000000E-03 0.  1.
         12    1    3    3    0    0  0.21226405728E+02  0.28478564895E+02  0.20273757886E+01  0.35576666667E+02  0.00000000000E+00 0. -1.
</event>
<event>
 7    1  0.2655561E-013  0.7246157E+02  0.7816164E-02  0.1226708E+00
        -11   -1    0    0    0    0  0.00000000000E+00  0.00000000000E+00  0.45593999997E+02  0.45594000000E+02  0.51100000000E-03 0.  1.
         11   -1    0    0    0    0 -0.00000000000E+00 -0.00000000000E+00 -0.45593999997E+02  0.45594000000E+02  0.51100000000E-03 0. -1.
    9900012    2    1    2    0    0  0.11135487687E+02  0.12779661409E+02 -0.79599252634E+01  0.72461568360E+02  0.69999997481E+02 0.  0.
        -12    1    1    2    0    0 -0.11135487687E+02 -0.12779661409E+02  0.79599252634E+01  0.18726431640E+02  0.00000000000E+00 0.  1.
         11    1    3    3    0    0  0.40858864749E+01  0.78602030376E+00  0.11285797007E+02  0.12028362754E+02  0.51100000000E-03 0. -1.
        -11    1    3    3    0    0 -0.18499818750E+02  0.22891501810E+02 -0.11474907197E+02  0.31590151065E+02  0.51100000000E-03 0.  1.
         12    1    3    3    0    0  0.25549419963E+02 -0.10897860705E+02 -0.77708150728E+01  0.28843054541E+02  0.00000000000E+00 0. -1.
</event>
<event>
 7    1  0.2655561E-013  0.7246156E+02  0.7816164E-02  0.1226708E+00
        -11   -1    0    0    0    0  0.00000000000E+00  0.00000000000E+00  0.45593999997E+02  0.45594000000E+02  0.51100000000E-03 0. -1.
         11   -1    0    0    0    0 -0.00000000000E+00 -0.00000000000E+00 -0.45593999997E+02  0.45594000000E+02  0.51100000000E-03 0.  1.
    9900012    2    1    2    0    0 -0.13974739589E+02  0.12136109799E+02  0.28462170196E+01  0.72461562567E+02  0.69999989933E+02 0.  0.
        -12    1    1    2    0    0  0.13974739589E+02 -0.12136109799E+02 -0.28462170196E+01  0.18726437433E+02  0.00000000000E+00 0.  1.
         11    1    3    3    0    0  0.17128087787E+02 -0.77329586968E+00 -0.49453332041E+01  0.17844486502E+02  0.51100000000E-03 0. -1.
        -11    1    3    3    0    0 -0.57681882697E+01  0.80213967795E+01 -0.16466111850E+02  0.19202802970E+02  0.51100000000E-03 0.  1.
         12    1    3    3    0    0 -0.25334639106E+02  0.48880088892E+01  0.24257662073E+02  0.35414273094E+02  0.00000000000E+00 0. -1.
</event>
<event>
 7    1  0.2655561E-013  0.7246157E+02  0.7816164E-02  0.1226708E+00
        -11   -1    0    0    0    0  0.00000000000E+00  0.00000000000E+00  0.45593999997E+02  0.45594000000E+02  0.51100000000E-03 0. -1.
         11   -1    0    0    0    0 -0.00000000000E+00 -0.00000000000E+00 -0.45593999997E+02  0.45594000000E+02  0.51100000000E-03 0.  1.
    9900012    2    1    2    0    0  0.14033997389E+02 -0.10155231290E+02  0.71131816194E+01  0.72461570602E+02  0.70000000401E+02 0.  0.
        -12    1    1    2    0    0 -0.14033997389E+02  0.10155231290E+02 -0.71131816194E+01  0.18726429398E+02  0.00000000000E+00 0.  1.
         11    1    3    3    0    0 -0.59202872310E+01 -0.12592926134E+02 -0.25972148213E+01  0.14155462359E+02  0.51100000000E-03 0. -1.
        -11    1    3    3    0    0 -0.34711559964E+01 -0.22716014135E+02  0.58866684898E+01  0.23721700789E+02  0.51100000000E-03 0.  1.
         12    1    3    3    0    0  0.23425440616E+02  0.25153708980E+02  0.38237279508E+01  0.34584407454E+02  0.00000000000E+00 0. -1.
</event>
<event>
 7    1  0.2655561E-013  0.7246152E+02  0.7816164E-02  0.1226708E+00
        -11   -1    0    0    0    0  0.00000000000E+00  0.00000000000E+00  0.45593999997E+02  0.45594000000E+02  0.51100000000E-03 0.  1.
         11   -1    0    0    0    0 -0.00000000000E+00 -0.00000000000E+00 -0.45593999997E+02  0.45594000000E+02  0.51100000000E-03 0. -1.
    9900012    2    1    2    0    0 -0.13882008231E+02 -0.98220059722E+01 -0.78421284786E+01  0.72461523211E+02  0.69999938666E+02 0.  0.
        -12    1    1    2    0    0  0.13882008231E+02  0.98220059722E+01  0.78421284786E+01  0.18726476789E+02  0.00000000000E+00 0.  1.
         11    1    3    3    0    0 -0.25294534673E+02 -0.20652048282E+02 -0.49736947947E+01  0.33031170472E+02  0.51100000000E-03 0. -1.
        -11    1    3    3    0    0  0.11056024081E+02  0.38855851293E+00  0.15055980690E+02  0.18683393722E+02  0.51100000000E-03 0.  1.
        -12    1    3    3    0    0  0.35650236124E+00  0.10441483797E+02 -0.17924414373E+02  0.20746959017E+02  0.00000000000E+00 0.  1.
</event>
<event>
 7    1  0.2655561E-013  0.7246157E+02  0.7816164E-02  0.1226708E+00
        -11   -1    0    0    0    0  0.00000000000E+00  0.00000000000E+00  0.45593999997E+02  0.45594000000E+02  0.51100000000E-03 0.  1.
         11   -1    0    0    0    0 -0.00000000000E+00 -0.00000000000E+00 -0.45593999997E+02  0.45594000000E+02  0.51100000000E-03 0. -1.
    9900012    2    1    2    0    0  0.18131602048E+02  0.14555097772E+01  0.44503734772E+01  0.72461566126E+02  0.69999994571E+02 0.  0.
        -12    1    1    2    0    0 -0.18131602048E+02 -0.14555097772E+01 -0.44503734772E+01  0.18726433874E+02  0.00000000000E+00 0.  1.
         11    1    3    3    0    0  0.27979234339E+01  0.15967265230E+02  0.13920555508E+02  0.21367353612E+02  0.51100000000E-03 0.  1.
        -11    1    3    3    0    0  0.10373002617E+02 -0.30349322889E+02 -0.12122064146E+02  0.34287388680E+02  0.51100000000E-03 0. -1.
         12    1    3    3    0    0  0.49606759971E+01  0.15837567436E+02  0.26518821155E+01  0.16806823834E+02  0.00000000000E+00 0. -1.
</event>
<event>
 7    1  0.2655561E-013  0.7246160E+02  0.7816164E-02  0.1226708E+00
        -11   -1    0    0    0    0  0.00000000000E+00  0.00000000000E+00  0.45593999997E+02  0.45594000000E+02  0.51100000000E-03 0. -1.
         11   -1    0    0    0    0 -0.00000000000E+00 -0.00000000000E+00 -0.45593999997E+02  0.45594000000E+02  0.51100000000E-03 0.  1.
    9900012    2    1    2    0    0  0.54831353083E+01  0.17345160398E+02 -0.44450903563E+01  0.72461596439E+02  0.70000034058E+02 0.  0.
        -12    1    1    2    0    0 -0.54831353083E+01 -0.17345160398E+02  0.44450903563E+01  0.18726403561E+02  0.00000000000E+00 0.  1.
         11    1    3    3    0    0 -0.81813585019E+01  0.25446732424E+02 -0.63748145846E+01  0.27479248156E+02  0.51100000000E-03 0. -1.
        -11    1    3    3    0    0  0.26417519859E+02  0.46543531589E+01 -0.15397179621E+00  0.26824840474E+02  0.51100000000E-03 0.  1.
         12    1    3    3    0    0 -0.12753026049E+02 -0.12755925184E+02  0.20836960245E+01  0.18157507809E+02  0.00000000000E+00 0. -1.
</event>
<event>
 7    1  0.2655561E-013  0.7246151E+02  0.7816164E-02  0.1226708E+00
        -11   -1    0    0    0    0  0.00000000000E+00  0.00000000000E+00  0.45593999997E+02  0.45594000000E+02  0.51100000000E-03 0. -1.
         11   -1    0    0    0    0 -0.00000000000E+00 -0.00000000000E+00 -0.45593999997E+02  0.45594000000E+02  0.51100000000E-03 0.  1.
    9900012    2    1    2    0    0 -0.11729375744E+02 -0.13597486172E+02  0.53114403268E+01  0.72461513841E+02  0.69999926459E+02 0.  0.
        -12    1    1    2    0    0  0.11729375744E+02  0.13597486172E+02 -0.53114403268E+01  0.18726486159E+02  0.00000000000E+00 0.  1.
         11    1    3    3    0    0 -0.15430055051E+02 -0.17739010528E+02 -0.30748787093E+01  0.23711051700E+02  0.51100000000E-03 0. -1.
        -11    1    3    3    0    0  0.16295490728E+02 -0.16722174197E+02  0.68431763126E+01  0.24331115681E+02  0.51100000000E-03 0.  1.
         12    1    3    3    0    0 -0.12594811421E+02  0.20863698554E+02  0.15431427235E+01  0.24419346460E+02  0.00000000000E+00 0. -1.
</event>
<event>
 7    1  0.2655561E-013  0.7246160E+02  0.7816164E-02  0.1226708E+00
        -11   -1    0    0    0    0  0.00000000000E+00  0.00000000000E+00  0.45593999997E+02  0.45594000000E+02  0.51100000000E-03 0.  1.
         11   -1    0    0    0    0 -0.00000000000E+00 -0.00000000000E+00 -0.45593999997E+02  0.45594000000E+02  0.51100000000E-03 0. -1.
    9900012    2    1    2    0    0  0.15613416825E+01  0.12684468681E+02 -0.13687380233E+02  0.72461603891E+02  0.70000043766E+02 0.  0.
        -12    1    1    2    0    0 -0.15613416825E+01 -0.12684468681E+02  0.13687380233E+02  0.18726396109E+02  0.00000000000E+00 0.  1.
         11    1    3    3    0    0  0.20490312575E+02  0.16836567068E+01 -0.22112820156E+02  0.30193781228E+02  0.51100000000E-03 0. -1.
        -11    1    3    3    0    0  0.25335244085E+01  0.75110638107E+01  0.17107116132E+02  0.18854395989E+02  0.51100000000E-03 0.  1.
        -12    1    3    3    0    0 -0.21462495301E+02  0.34897481635E+01 -0.86816762094E+01  0.23413426674E+02  0.00000000000E+00 0.  1.
</event>
<event>
 7    1  0.2655561E-013  0.7246147E+02  0.7816164E-02  0.1226708E+00
        -11   -1    0    0    0    0  0.00000000000E+00  0.00000000000E+00  0.45593999997E+02  0.45594000000E+02  0.51100000000E-03 0.  1.
         11   -1    0    0    0    0 -0.00000000000E+00 -0.00000000000E+00 -0.45593999997E+02  0.45594000000E+02  0.51100000000E-03 0. -1.
    9900012    2    1    2    0    0 -0.19864201731E+01 -0.36029426783E+00 -0.18617394085E+02  0.72461466964E+02  0.69999865392E+02 0.  0.
        -12    1    1    2    0    0  0.19864201731E+01  0.36029426783E+00  0.18617394085E+02  0.18726533036E+02  0.00000000000E+00 0.  1.
         11    1    3    3    0    0 -0.14988063442E+01  0.92872029109E+01  0.12196750220E+02  0.15403222863E+02  0.51100000000E-03 0. -1.
        -11    1    3    3    0    0  0.22330263511E+02 -0.48697880825E+01 -0.74148206168E+01  0.24027797849E+02  0.51100000000E-03 0.  1.
        -12    1    3    3    0    0 -0.22817877340E+02 -0.47777090963E+01 -0.23399323688E+02  0.33030446252E+02  0.00000000000E+00 0.  1.
</event>
<event>
 7    1  0.2655561E-013  0.7246156E+02  0.7816164E-02  0.1226708E+00
        -11   -1    0    0    0    0  0.00000000000E+00  0.00000000000E+00  0.45593999997E+02  0.45594000000E+02  0.51100000000E-03 0. -1.
         11   -1    0    0    0    0 -0.00000000000E+00 -0.00000000000E+00 -0.45593999997E+02  0.45594000000E+02  0.51100000000E-03 0.  1.
    9900012    2    1    2    0    0  0.15876510921E+01  0.16453241843E+02  0.88005575895E+01  0.72461558346E+02  0.69999984435E+02 0.  0.
        -12    1    1    2    0    0 -0.15876510921E+01 -0.16453241843E+02 -0.88005575895E+01  0.18726441654E+02  0.00000000000E+00 0.  1.
         11    1    3    3    0    0 -0.13807008672E+02 -0.72963408364E+01  0.30264364147E+01  0.15906897739E+02  0.51100000000E-03 0. -1.
        -11    1    3    3    0    0 -0.11147552795E+02 -0.77864144665E+01 -0.40366256479E+01  0.14184164778E+02  0.51100000000E-03 0.  1.
         12    1    3    3    0    0  0.26542212559E+02  0.31535997146E+02  0.98107468227E+01  0.42370495828E+02  0.00000000000E+00 0. -1.
</event>
<event>
 7    1  0.2655561E-013  0.7246156E+02  0.7816164E-02  0.1226708E+00
        -11   -1    0    0    0    0  0.00000000000E+00  0.00000000000E+00  0.45593999997E+02  0.45594000000E+02  0.51100000000E-03 0.  1.
         11   -1    0    0    0    0 -0.00000000000E+00 -0.00000000000E+00 -0.45593999997E+02  0.45594000000E+02  0.51100000000E-03 0. -1.
    9900012    2    1    2    0    0 -0.47146724170E+01 -0.15427398625E+02 -0.95103514698E+01  0.72461560152E+02  0.69999986787E+02 0.  0.
        -12    1    1    2    0    0  0.47146724170E+01  0.15427398625E+02  0.95103514698E+01  0.18726439848E+02  0.00000000000E+00 0.  1.
         11    1    3    3    0    0 -0.91644347464E+01  0.15519714275E+01  0.81485222172E-01  0.92952740485E+01  0.51100000000E-03 0. -1.
        -11    1    3    3    0    0 -0.17767152374E+02 -0.25806974076E+02  0.93149946368E+01  0.32687011790E+02  0.51100000000E-03 0.  1.
         12    1    3    3    0    0  0.22216914704E+02  0.88276040235E+01 -0.18906831329E+02  0.30479274313E+02  0.00000000000E+00 0. -1.
</event>
<event>
 7    1  0.2655561E-013  0.7246157E+02  0.7816164E-02  0.1226708E+00
        -11   -1    0    0    0    0  0.00000000000E+00  0.00000000000E+00  0.45593999997E+02  0.45594000000E+02  0.51100000000E-03 0.  1.
         11   -1    0    0    0    0 -0.00000000000E+00 -0.00000000000E+00 -0.45593999997E+02  0.45594000000E+02  0.51100000000E-03 0. -1.
    9900012    2    1    2    0    0  0.78332756020E+01 -0.16244767425E+02 -0.50424705540E+01  0.72461569890E+02  0.69999999474E+02 0.  0.
        -12    1    1    2    0    0 -0.78332756020E+01  0.16244767425E+02  0.50424705540E+01  0.18726430110E+02  0.00000000000E+00 0.  1.
         11    1    3    3    0    0 -0.11391568234E+01 -0.10408071190E+02 -0.17173579036E+02  0.20113613333E+02  0.51100000000E-03 0. -1.
        -11    1    3    3    0    0  0.67162598588E+01 -0.12197413103E+02 -0.17268856702E+02  0.22183292022E+02  0.51100000000E-03 0.  1.
        -12    1    3    3    0    0  0.22561725666E+01  0.63607168673E+01  0.29399965184E+02  0.30164664535E+02  0.00000000000E+00 0.  1.
</event>
<event>
 7    1  0.2655561E-013  0.7246181E+02  0.7816164E-02  0.1226707E+00
        -11   -1    0    0    0    0  0.00000000000E+00  0.00000000000E+00  0.45593999997E+02  0.45594000000E+02  0.51100000000E-03 0.  1.
         11   -1    0    0    0    0 -0.00000000000E+00 -0.00000000000E+00 -0.45593999997E+02  0.45594000000E+02  0.51100000000E-03 0. -1.
    9900012    2    1    2    0    0  0.16972971038E+02 -0.52307375657E+01 -0.59352945170E+01  0.72461812925E+02  0.70000316071E+02 0.  0.
        -12    1    1    2    0    0 -0.16972971038E+02  0.52307375657E+01  0.59352945170E+01  0.18726187075E+02  0.00000000000E+00 0.  1.
         11    1    3    3    0    0  0.18995007397E+02  0.38449911012E+01 -0.61268144534E+00  0.19389936602E+02  0.51100000000E-03 0.  1.
        -11    1    3    3    0    0  0.30590739249E+01  0.14302270079E+02 -0.20170448333E+02  0.24915052657E+02  0.51100000000E-03 0. -1.
        -12    1    3    3    0    0 -0.50811102840E+01 -0.23377998746E+02  0.14847835261E+02  0.28156823667E+02  0.00000000000E+00 0.  1.
</event>
<event>
 7    1  0.2655561E-013  0.7246156E+02  0.7816164E-02  0.1226708E+00
        -11   -1    0    0    0    0  0.00000000000E+00  0.00000000000E+00  0.45593999997E+02  0.45594000000E+02  0.51100000000E-03 0. -1.
         11   -1    0    0    0    0 -0.00000000000E+00 -0.00000000000E+00 -0.45593999997E+02  0.45594000000E+02  0.51100000000E-03 0.  1.
    9900012    2    1    2    0    0 -0.12752213344E+02 -0.13459162670E+02  0.26289781923E+01  0.72461560635E+02  0.69999987417E+02 0.  0.
        -12    1    1    2    0    0  0.12752213344E+02  0.13459162670E+02 -0.26289781923E+01  0.18726439365E+02  0.00000000000E+00 0.  1.
         11    1    3    3    0    0 -0.21677541392E+02 -0.29697195401E+02  0.57505770139E+01  0.37214356796E+02  0.51100000000E-03 0.  1.
        -11    1    3    3    0    0  0.94726363231E+01  0.14671248930E+02  0.11254287834E+02  0.20775836421E+02  0.51100000000E-03 0. -1.
         12    1    3    3    0    0 -0.54730827579E+00  0.15667838014E+01 -0.14375886655E+02  0.14471367418E+02  0.00000000000E+00 0. -1.
</event>
<event>
 7    1  0.2655561E-013  0.7246155E+02  0.7816164E-02  0.1226708E+00
        -11   -1    0    0    0    0  0.00000000000E+00  0.00000000000E+00  0.45593999997E+02  0.45594000000E+02  0.51100000000E-03 0. -1.
         11   -1    0    0    0    0 -0.00000000000E+00 -0.00000000000E+00 -0.45593999997E+02  0.45594000000E+02  0.51100000000E-03 0.  1.
    9900012    2    1    2    0    0 -0.42767041243E+01  0.18122782561E+02 -0.19886317567E+01  0.72461545392E+02  0.69999967560E+02 0.  0.
        -12    1    1    2    0    0  0.42767041243E+01 -0.18122782561E+02  0.19886317567E+01  0.18726454608E+02  0.00000000000E+00 0.  1.
         11    1    3    3    0    0  0.37255442075E+01  0.23230544392E+02  0.22525276756E+02  0.32571858491E+02  0.51100000000E-03 0. -1.
        -11    1    3    3    0    0 -0.12057555069E+02 -0.13256186730E+02 -0.53938121367E+01  0.18713747099E+02  0.51100000000E-03 0.  1.
        -12    1    3    3    0    0  0.40553067370E+01  0.81484248988E+01 -0.19120096376E+02  0.21175939802E+02  0.00000000000E+00 0.  1.
</event>
<event>
 7    1  0.2655561E-013  0.7246161E+02  0.7816164E-02  0.1226708E+00
        -11   -1    0    0    0    0  0.00000000000E+00  0.00000000000E+00  0.45593999997E+02  0.45594000000E+02  0.51100000000E-03 0.  1.
         11   -1    0    0    0    0 -0.00000000000E+00 -0.00000000000E+00 -0.45593999997E+02  0.45594000000E+02  0.51100000000E-03 0. -1.
    9900012    2    1    2    0    0  0.10944820105E+02 -0.13772894400E+02  0.64184230472E+01  0.72461605213E+02  0.70000045489E+02 0.  0.
        -12    1    1    2    0    0 -0.10944820105E+02  0.13772894400E+02 -0.64184230472E+01  0.18726394787E+02  0.00000000000E+00 0.  1.
         11    1    3    3    0    0  0.23326928468E+02  0.74631828262E+01 -0.11001433187E+02  0.26849138200E+02  0.51100000000E-03 0. -1.
        -11    1    3    3    0    0  0.17699248196E+01  0.30559125280E+01 -0.73430164194E+01  0.81480749655E+01  0.51100000000E-03 0.  1.
        -12    1    3    3    0    0 -0.14152033183E+02 -0.24291989754E+02  0.24762872654E+02  0.37464392048E+02  0.00000000000E+00 0.  1.
</event>
<event>
 7    1  0.2954485E-013  0.7246154E+02  0.7816164E-02  0.1226708E+00
        -11   -1    0    0    0    0  0.00000000000E+00  0.00000000000E+00  0.45593999997E+02  0.45594000000E+02  0.51100000000E-03 0. -1.
         11   -1    0    0    0    0 -0.00000000000E+00 -0.00000000000E+00 -0.45593999997E+02  0.45594000000E+02  0.51100000000E-03 0.  1.
    9900012    2    1    2    0    0  0.24856984297E+01 -0.10824290301E+02  0.15077672552E+02  0.72461543667E+02  0.69999965313E+02 0.  0.
        -12    1    1    2    0    0 -0.24856984297E+01  0.10824290301E+02 -0.15077672552E+02  0.18726456333E+02  0.00000000000E+00 0.  1.
         11    1    3    3    0    0  0.23085468071E+02  0.12408075222E+02  0.24649889710E+02  0.35979386178E+02  0.51100000000E-03 0. -1.
        -11    1    3    3    0    0 -0.42995860591E+01 -0.88752103017E+01 -0.10926045674E+02  0.14718501028E+02  0.51100000000E-03 0.  1.
        -12    1    3    3    0    0 -0.16300183583E+02 -0.14357155221E+02  0.13538285164E+01  0.21763656460E+02  0.00000000000E+00 0.  1.
</event>
<event>
 7    1  0.2655561E-013  0.7246157E+02  0.7816164E-02  0.1226708E+00
        -11   -1    0    0    0    0  0.00000000000E+00  0.00000000000E+00  0.45593999997E+02  0.45594000000E+02  0.51100000000E-03 0.  1.
         11   -1    0    0    0    0 -0.00000000000E+00 -0.00000000000E+00 -0.45593999997E+02  0.45594000000E+02  0.51100000000E-03 0. -1.
    9900012    2    1    2    0    0 -0.15296401674E+01  0.62566869816E+01 -0.17583895462E+02  0.72461566527E+02  0.69999995092E+02 0.  0.
        -12    1    1    2    0    0  0.15296401674E+01 -0.62566869816E+01  0.17583895462E+02  0.18726433473E+02  0.00000000000E+00 0.  1.
         11    1    3    3    0    0  0.88038518041E+01 -0.10734370776E+02 -0.11192788423E+02  0.17832919994E+02  0.51100000000E-03 0. -1.
        -11    1    3    3    0    0  0.14934306177E+02  0.10769552025E+02 -0.18345378913E+02  0.25991723289E+02  0.51100000000E-03 0.  1.
        -12    1    3    3    0    0 -0.25267798149E+02  0.62215057335E+01  0.11954271874E+02  0.28636923244E+02  0.00000000000E+00 0.  1.
</event>
<event>
 7    1  0.2655561E-013  0.7246136E+02  0.7816164E-02  0.1226709E+00
        -11   -1    0    0    0    0  0.00000000000E+00  0.00000000000E+00  0.45593999997E+02  0.45594000000E+02  0.51100000000E-03 0. -1.
         11   -1    0    0    0    0 -0.00000000000E+00 -0.00000000000E+00 -0.45593999997E+02  0.45594000000E+02  0.51100000000E-03 0.  1.
    9900012    2    1    2    0    0  0.16552320019E+01  0.61632054781E+01  0.17605738249E+02  0.72461363515E+02  0.69999730631E+02 0.  0.
        -12    1    1    2    0    0 -0.16552320019E+01 -0.61632054781E+01 -0.17605738249E+02  0.18726636485E+02  0.00000000000E+00 0.  1.
         11    1    3    3    0    0  0.40842732370E+01 -0.55029207685E+01  0.21918238259E+01  0.71949646840E+01  0.51100000000E-03 0. -1.
        -11    1    3    3    0    0 -0.22429724618E+02 -0.17223218562E+02  0.72109075261E+01  0.29184396373E+02  0.51100000000E-03 0.  1.
         12    1    3    3    0    0  0.20000683383E+02  0.28889344809E+02  0.82030068966E+01  0.36082002458E+02  0.00000000000E+00 0. -1.
</event>
<event>
 7    1  0.2655561E-013  0.7246155E+02  0.7816164E-02  0.1226708E+00
        -11   -1    0    0    0    0  0.00000000000E+00  0.00000000000E+00  0.45593999997E+02  0.45594000000E+02  0.51100000000E-03 0. -1.
         11   -1    0    0    0    0 -0.00000000000E+00 -0.00000000000E+00 -0.45593999997E+02  0.45594000000E+02  0.51100000000E-03 0.  1.
    9900012    2    1    2    0    0  0.84902070997E+01  0.16687664934E+02 -0.34364993447E+00  0.72461551516E+02  0.69999975538E+02 0.  0.
        -12    1    1    2    0    0 -0.84902070997E+01 -0.16687664934E+02  0.34364993447E+00  0.18726448484E+02  0.00000000000E+00 0.  1.
         11    1    3    3    0    0  0.11360058281E+02  0.48480607460E+01 -0.16054522761E+02  0.20255920579E+02  0.51100000000E-03 0. -1.
        -11    1    3    3    0    0  0.12035552033E+02  0.11873799317E+02 -0.12005286009E+02  0.20735682178E+02  0.51100000000E-03 0.  1.
         12    1    3    3    0    0 -0.14905403215E+02 -0.34195129437E-01  0.27716158836E+02  0.31469948759E+02  0.00000000000E+00 0. -1.
</event>
<event>
 7    1  0.2655561E-013  0.7246155E+02  0.7816164E-02  0.1226708E+00
        -11   -1    0    0    0    0  0.00000000000E+00  0.00000000000E+00  0.45593999997E+02  0.45594000000E+02  0.51100000000E-03 0.  1.
         11   -1    0    0    0    0 -0.00000000000E+00 -0.00000000000E+00 -0.45593999997E+02  0.45594000000E+02  0.51100000000E-03 0. -1.
    9900012    2    1    2    0    0 -0.14024378014E+02 -0.10307525459E+02 -0.69102472053E+01  0.72461554096E+02  0.69999978898E+02 0.  0.
        -12    1    1    2    0    0  0.14024378014E+02  0.10307525459E+02  0.69102472053E+01  0.18726445904E+02  0.00000000000E+00 0.  1.
         11    1    3    3    0    0  0.61482866717E+01 -0.26486557264E+02 -0.16234872569E+02  0.31668757985E+02  0.51100000000E-03 0. -1.
        -11    1    3    3    0    0 -0.21168983555E+02 -0.21612396722E+01  0.38275363721E+01  0.21620519342E+02  0.51100000000E-03 0.  1.
        -12    1    3    3    0    0  0.99631886886E+00  0.18340271477E+02  0.54970889915E+01  0.19172276770E+02  0.00000000000E+00 0.  1.
</event>
<event>
 7    1  0.2655561E-013  0.7246157E+02  0.7816164E-02  0.1226708E+00
        -11   -1    0    0    0    0  0.00000000000E+00  0.00000000000E+00  0.45593999997E+02  0.45594000000E+02  0.51100000000E-03 0.  1.
         11   -1    0    0    0    0 -0.00000000000E+00 -0.00000000000E+00 -0.45593999997E+02  0.45594000000E+02  0.51100000000E-03 0. -1.
    9900012    2    1    2    0    0  0.16925711214E+02  0.11382177839E+01 -0.79312044484E+01  0.72461568310E+02  0.69999997415E+02 0.  0.
        -12    1    1    2    0    0 -0.16925711214E+02 -0.11382177839E+01  0.79312044484E+01  0.18726431690E+02  0.00000000000E+00 0.  1.
         11    1    3    3    0    0  0.37091831276E+02  0.13733686138E+02 -0.66471015219E-01  0.39552781204E+02  0.51100000000E-03 0. -1.
        -11    1    3    3    0    0  0.46343801074E+00  0.27794196086E+01 -0.65685819781E+01  0.71474623199E+01  0.51100000000E-03 0.  1.
        -12    1    3    3    0    0 -0.20629558072E+02 -0.15374887963E+02 -0.12961514552E+01  0.25761324786E+02  0.00000000000E+00 0.  1.
</event>
<event>
 7    1  0.2655561E-013  0.7246162E+02  0.7816164E-02  0.1226708E+00
        -11   -1    0    0    0    0  0.00000000000E+00  0.00000000000E+00  0.45593999997E+02  0.45594000000E+02  0.51100000000E-03 0. -1.
         11   -1    0    0    0    0 -0.00000000000E+00 -0.00000000000E+00 -0.45593999997E+02  0.45594000000E+02  0.51100000000E-03 0.  1.
    9900012    2    1    2    0    0  0.72293541131E+01  0.12291542047E+02  0.12138025846E+02  0.72461621861E+02  0.70000067175E+02 0.  0.
        -12    1    1    2    0    0 -0.72293541131E+01 -0.12291542047E+02 -0.12138025846E+02  0.18726378139E+02  0.00000000000E+00 0.  1.
         11    1    3    3    0    0 -0.80094858521E-01 -0.93496089288E+01 -0.58595340442E+01  0.11034298427E+02  0.51100000000E-03 0. -1.
        -11    1    3    3    0    0  0.15122010965E+02 -0.14950782622E+02  0.77438236983E+01  0.22631127289E+02  0.51100000000E-03 0.  1.
         12    1    3    3    0    0 -0.78125619934E+01  0.36591933598E+02  0.10253736191E+02  0.38796196144E+02  0.00000000000E+00 0. -1.
</event>
<event>
 7    1  0.2655561E-013  0.7246139E+02  0.7816164E-02  0.1226708E+00
        -11   -1    0    0    0    0  0.00000000000E+00  0.00000000000E+00  0.45593999997E+02  0.45594000000E+02  0.51100000000E-03 0. -1.
         11   -1    0    0    0    0 -0.00000000000E+00 -0.00000000000E+00 -0.45593999997E+02  0.45594000000E+02  0.51100000000E-03 0.  1.
    9900012    2    1    2    0    0 -0.11331626663E+02 -0.70336182200E+01  0.13145657349E+02  0.72461391785E+02  0.69999767458E+02 0.  0.
        -12    1    1    2    0    0  0.11331626663E+02  0.70336182200E+01 -0.13145657349E+02  0.18726608215E+02  0.00000000000E+00 0.  1.
         11    1    3    3    0    0 -0.11333193587E+01  0.11987427242E+02 -0.27711171681E+01  0.12355643054E+02  0.51100000000E-03 0. -1.
        -11    1    3    3    0    0 -0.26909693758E+02 -0.27540118522E+02  0.15009006022E+02  0.41326262938E+02  0.51100000000E-03 0.  1.
         12    1    3    3    0    0  0.16711386454E+02  0.85190730607E+01  0.90776849550E+00  0.18779485793E+02  0.00000000000E+00 0. -1.
</event>
<event>
 7    1  0.2655561E-013  0.7246158E+02  0.7816164E-02  0.1226708E+00
        -11   -1    0    0    0    0  0.00000000000E+00  0.00000000000E+00  0.45593999997E+02  0.45594000000E+02  0.51100000000E-03 0. -1.
         11   -1    0    0    0    0 -0.00000000000E+00 -0.00000000000E+00 -0.45593999997E+02  0.45594000000E+02  0.51100000000E-03 0.  1.
    9900012    2    1    2    0    0  0.14286826620E+02 -0.96879177992E+01  0.72601511279E+01  0.72461575874E+02  0.70000007269E+02 0.  0.
        -12    1    1    2    0    0 -0.14286826620E+02  0.96879177992E+01 -0.72601511279E+01  0.18726424126E+02  0.00000000000E+00 0.  1.
         11    1    3    3    0    0 -0.17870541702E+02 -0.21423229259E+02  0.13305731230E+02  0.30908793189E+02  0.51100000000E-03 0. -1.
        -11    1    3    3    0    0 -0.27800321308E+01 -0.27355426303E+00 -0.35606086506E+01  0.45256319787E+01  0.51100000000E-03 0.  1.
        -12    1    3    3    0    0  0.34937400452E+02  0.12008865723E+02 -0.24849714511E+01  0.37027150706E+02  0.00000000000E+00 0.  1.
</event>
<event>
 7    1  0.2655561E-013  0.7246158E+02  0.7816164E-02  0.1226708E+00
        -11   -1    0    0    0    0  0.00000000000E+00  0.00000000000E+00  0.45593999997E+02  0.45594000000E+02  0.51100000000E-03 0. -1.
         11   -1    0    0    0    0 -0.00000000000E+00 -0.00000000000E+00 -0.45593999997E+02  0.45594000000E+02  0.51100000000E-03 0.  1.
    9900012    2    1    2    0    0  0.48604136695E+01  0.10469787587E+02  0.14745803391E+02  0.72461580406E+02  0.70000013173E+02 0.  0.
        -12    1    1    2    0    0 -0.48604136695E+01 -0.10469787587E+02 -0.14745803391E+02  0.18726419594E+02  0.00000000000E+00 0.  1.
         11    1    3    3    0    0 -0.19122867241E+02  0.89929228063E+01  0.18833315600E+02  0.28306368345E+02  0.51100000000E-03 0. -1.
        -11    1    3    3    0    0 -0.63258546467E+01  0.34996370271E+01  0.86004748658E+01  0.11235304380E+02  0.51100000000E-03 0.  1.
        -12    1    3    3    0    0  0.30309135557E+02 -0.20227722463E+01 -0.12687987075E+02  0.32919907682E+02  0.00000000000E+00 0.  1.
</event>
<event>
 7    1  0.2655561E-013  0.7246140E+02  0.7816164E-02  0.1226708E+00
        -11   -1    0    0    0    0  0.00000000000E+00  0.00000000000E+00  0.45593999997E+02  0.45594000000E+02  0.51100000000E-03 0.  1.
         11   -1    0    0    0    0 -0.00000000000E+00 -0.00000000000E+00 -0.45593999997E+02  0.45594000000E+02  0.51100000000E-03 0. -1.
    9900012    2    1    2    0    0 -0.14761315228E+02  0.61438234034E+00 -0.11507033891E+02  0.72461395345E+02  0.69999772096E+02 0.  0.
        -12    1    1    2    0    0  0.14761315228E+02 -0.61438234034E+00  0.11507033891E+02  0.18726604655E+02  0.00000000000E+00 0.  1.
         11    1    3    3    0    0  0.14297386001E+02  0.11522905770E+02 -0.17077766146E+02  0.25076736244E+02  0.51100000000E-03 0. -1.
        -11    1    3    3    0    0 -0.25259932591E+01  0.11756286654E+02  0.30098621487E+01  0.12395571316E+02  0.51100000000E-03 0.  1.
        -12    1    3    3    0    0 -0.26532707970E+02 -0.22664810084E+02  0.25608701063E+01  0.34989087786E+02  0.00000000000E+00 0.  1.
</event>
<event>
 7    1  0.2655561E-013  0.7246157E+02  0.7816164E-02  0.1226708E+00
        -11   -1    0    0    0    0  0.00000000000E+00  0.00000000000E+00  0.45593999997E+02  0.45594000000E+02  0.51100000000E-03 0.  1.
         11   -1    0    0    0    0 -0.00000000000E+00 -0.00000000000E+00 -0.45593999997E+02  0.45594000000E+02  0.51100000000E-03 0. -1.
    9900012    2    1    2    0    0 -0.17296150144E+02  0.59967022082E+01  0.39448600845E+01  0.72461570328E+02  0.70000000044E+02 0.  0.
        -12    1    1    2    0    0  0.17296150144E+02 -0.59967022082E+01 -0.39448600845E+01  0.18726429672E+02  0.00000000000E+00 0.  1.
         11    1    3    3    0    0 -0.57674510571E+00 -0.19679266060E+01 -0.54445979567E+01  0.58179908228E+01  0.51100000000E-03 0. -1.
        -11    1    3    3    0    0  0.16871684996E+02  0.21033843592E+02 -0.57140300751E+01  0.27563136085E+02  0.51100000000E-03 0.  1.
         12    1    3    3    0    0 -0.33591090035E+02 -0.13069214778E+02  0.15103488116E+02  0.39080443420E+02  0.00000000000E+00 0. -1.
</event>
<event>
 7    1  0.2655561E-013  0.7246155E+02  0.7816164E-02  0.1226708E+00
        -11   -1    0    0    0    0  0.00000000000E+00  0.00000000000E+00  0.45593999997E+02  0.45594000000E+02  0.51100000000E-03 0.  1.
         11   -1    0    0    0    0 -0.00000000000E+00 -0.00000000000E+00 -0.45593999997E+02  0.45594000000E+02  0.51100000000E-03 0. -1.
    9900012    2    1    2    0    0 -0.10351649710E+02  0.15540166328E+02 -0.14235620609E+01  0.72461549451E+02  0.69999972848E+02 0.  0.
        -12    1    1    2    0    0  0.10351649710E+02 -0.15540166328E+02  0.14235620609E+01  0.18726450549E+02  0.00000000000E+00 0.  1.
         11    1    3    3    0    0 -0.85520782714E+01 -0.46201690339E+01  0.15897301359E+02  0.18633523430E+02  0.51100000000E-03 0. -1.
        -11    1    3    3    0    0 -0.69459021558E+01 -0.23433078280E+01  0.13475407185E+02  0.15340249261E+02  0.51100000000E-03 0.  1.
         12    1    3    3    0    0  0.51463307170E+01  0.22503643190E+02 -0.30796270605E+02  0.38487776759E+02  0.00000000000E+00 0. -1.
</event>
<event>
 7    1  0.2655562E-013  0.7246152E+02  0.7816164E-02  0.1226708E+00
        -11   -1    0    0    0    0  0.00000000000E+00  0.00000000000E+00  0.45593999997E+02  0.45594000000E+02  0.51100000000E-03 0. -1.
         11   -1    0    0    0    0 -0.00000000000E+00 -0.00000000000E+00 -0.45593999997E+02  0.45594000000E+02  0.51100000000E-03 0.  1.
    9900012    2    1    2    0    0 -0.70557324337E+01 -0.10221755176E+02  0.14014757546E+02  0.72461519601E+02  0.69999933963E+02 0.  0.
        -12    1    1    2    0    0  0.70557324337E+01  0.10221755176E+02 -0.14014757546E+02  0.18726480399E+02  0.00000000000E+00 0.  1.
         11    1    3    3    0    0  0.11523434012E+02 -0.10390378121E+02  0.19843862972E+02  0.25189846900E+02  0.51100000000E-03 0. -1.
        -11    1    3    3    0    0  0.12329487983E+02  0.67324255347E+01  0.32026791565E+01  0.14408295581E+02  0.51100000000E-03 0.  1.
        -12    1    3    3    0    0 -0.30908654429E+02 -0.65638025896E+01 -0.90317845828E+01  0.32863377121E+02  0.00000000000E+00 0.  1.
</event>
<event>
 7    1  0.2655561E-013  0.7246155E+02  0.7816164E-02  0.1226708E+00
        -11   -1    0    0    0    0  0.00000000000E+00  0.00000000000E+00  0.45593999997E+02  0.45594000000E+02  0.51100000000E-03 0. -1.
         11   -1    0    0    0    0 -0.00000000000E+00 -0.00000000000E+00 -0.45593999997E+02  0.45594000000E+02  0.51100000000E-03 0.  1.
    9900012    2    1    2    0    0  0.33350281847E+01 -0.67120925772E+00  0.18414858976E+02  0.72461549029E+02  0.69999972298E+02 0.  0.
        -12    1    1    2    0    0 -0.33350281847E+01  0.67120925772E+00 -0.18414858976E+02  0.18726450971E+02  0.00000000000E+00 0.  1.
         11    1    3    3    0    0 -0.87846627160E+01 -0.14647148578E+02  0.99336847380E+01  0.19758222421E+02  0.51100000000E-03 0. -1.
        -11    1    3    3    0    0  0.21758418892E+02 -0.71924467911E+01  0.16347500260E+02  0.28149615424E+02  0.51100000000E-03 0.  1.
        -12    1    3    3    0    0 -0.96387279908E+01  0.21168386111E+02 -0.78663260214E+01  0.24553711184E+02  0.00000000000E+00 0.  1.
</event>
<event>
 7    1  0.2655561E-013  0.7246142E+02  0.7816164E-02  0.1226708E+00
        -11   -1    0    0    0    0  0.00000000000E+00  0.00000000000E+00  0.45593999997E+02  0.45594000000E+02  0.51100000000E-03 0. -1.
         11   -1    0    0    0    0 -0.00000000000E+00 -0.00000000000E+00 -0.45593999997E+02  0.45594000000E+02  0.51100000000E-03 0.  1.
    9900012    2    1    2    0    0  0.12342975014E+02 -0.11479051975E+01  0.14036307524E+02  0.72461424033E+02  0.69999809467E+02 0.  0.
        -12    1    1    2    0    0 -0.12342975014E+02  0.11479051975E+01 -0.14036307524E+02  0.18726575967E+02  0.00000000000E+00 0.  1.
         11    1    3    3    0    0  0.49686699093E+01 -0.23034983308E+02  0.21754357119E+02  0.32071017923E+02  0.51100000000E-03 0. -1.
        -11    1    3    3    0    0 -0.11256441181E+02  0.11504373112E+01  0.50438852373E+00  0.11326313704E+02  0.51100000000E-03 0.  1.
         12    1    3    3    0    0  0.18630746286E+02  0.20736640799E+02 -0.82224381185E+01  0.29064092406E+02  0.00000000000E+00 0. -1.
</event>
<event>
 7    1  0.2655561E-013  0.7246157E+02  0.7816164E-02  0.1226708E+00
        -11   -1    0    0    0    0  0.00000000000E+00  0.00000000000E+00  0.45593999997E+02  0.45594000000E+02  0.51100000000E-03 0.  1.
         11   -1    0    0    0    0 -0.00000000000E+00 -0.00000000000E+00 -0.45593999997E+02  0.45594000000E+02  0.51100000000E-03 0. -1.
    9900012    2    1    2    0    0  0.69021047906E+01 -0.68381959038E+01 -0.16008719608E+02  0.72461572758E+02  0.70000003209E+02 0.  0.
        -12    1    1    2    0    0 -0.69021047906E+01  0.68381959038E+01  0.16008719608E+02  0.18726427242E+02  0.00000000000E+00 0.  1.
         11    1    3    3    0    0 -0.94266252367E+01  0.19545933349E+02  0.50104832364E+01  0.22271275589E+02  0.51100000000E-03 0. -1.
        -11    1    3    3    0    0 -0.64649560949E+01 -0.18733617192E+02 -0.27803485096E+01  0.20011856698E+02  0.51100000000E-03 0.  1.
         12    1    3    3    0    0  0.22793686122E+02 -0.76505120608E+01 -0.18238854335E+02  0.30178440471E+02  0.00000000000E+00 0. -1.
</event>
<event>
 7    1  0.2655561E-013  0.7246153E+02  0.7816164E-02  0.1226708E+00
        -11   -1    0    0    0    0  0.00000000000E+00  0.00000000000E+00  0.45593999997E+02  0.45594000000E+02  0.51100000000E-03 0.  1.
         11   -1    0    0    0    0 -0.00000000000E+00 -0.00000000000E+00 -0.45593999997E+02  0.45594000000E+02  0.51100000000E-03 0. -1.
    9900012    2    1    2    0    0  0.16313158213E+02 -0.66303367048E+01 -0.63718241953E+01  0.72461531051E+02  0.69999948879E+02 0.  0.
        -12    1    1    2    0    0 -0.16313158213E+02  0.66303367048E+01  0.63718241953E+01  0.18726468949E+02  0.00000000000E+00 0.  1.
         11    1    3    3    0    0  0.15960306851E+02  0.14099292280E+02  0.10800441324E+02  0.23878253090E+02  0.51100000000E-03 0.  1.
        -11    1    3    3    0    0 -0.17949895312E+02 -0.10091016809E+02 -0.18067154279E+02  0.27394332004E+02  0.51100000000E-03 0. -1.
         12    1    3    3    0    0  0.18302746674E+02 -0.10638612177E+02  0.89488875937E+00  0.21188945957E+02  0.00000000000E+00 0. -1.
</event>
<event>
 7    1  0.2655561E-013  0.7246154E+02  0.7816164E-02  0.1226708E+00
        -11   -1    0    0    0    0  0.00000000000E+00  0.00000000000E+00  0.45593999997E+02  0.45594000000E+02  0.51100000000E-03 0.  1.
         11   -1    0    0    0    0 -0.00000000000E+00 -0.00000000000E+00 -0.45593999997E+02  0.45594000000E+02  0.51100000000E-03 0. -1.
    9900012    2    1    2    0    0  0.16836298630E+02 -0.42318288504E+01  0.70221776238E+01  0.72461539962E+02  0.69999960486E+02 0.  0.
        -12    1    1    2    0    0 -0.16836298630E+02  0.42318288504E+01 -0.70221776238E+01  0.18726460038E+02  0.00000000000E+00 0.  1.
         11    1    3    3    0    0  0.21263781860E+02 -0.22891820311E+02 -0.13799410488E+02  0.34155637693E+02  0.51100000000E-03 0. -1.
        -11    1    3    3    0    0 -0.62161655745E+01 -0.43315322330E+01  0.10725707532E+02  0.13131781610E+02  0.51100000000E-03 0.  1.
        -12    1    3    3    0    0  0.17886823441E+01  0.22991523693E+02  0.10095880580E+02  0.25174120659E+02  0.00000000000E+00 0.  1.
</event>
<event>
 7    1  0.2655561E-013  0.7246163E+02  0.7816164E-02  0.1226708E+00
        -11   -1    0    0    0    0  0.00000000000E+00  0.00000000000E+00  0.45593999997E+02  0.45594000000E+02  0.51100000000E-03 0.  1.
         11   -1    0    0    0    0 -0.00000000000E+00 -0.00000000000E+00 -0.45593999997E+02  0.45594000000E+02  0.51100000000E-03 0. -1.
    9900012    2    1    2    0    0  0.13576210523E+02  0.12578827827E+02 -0.28524433205E+01  0.72461632639E+02  0.70000081215E+02 0.  0.
        -12    1    1    2    0    0 -0.13576210523E+02 -0.12578827827E+02  0.28524433205E+01  0.18726367361E+02  0.00000000000E+00 0.  1.
         11    1    3    3    0    0  0.19169856007E+02  0.16355950823E+02 -0.29892680901E+02  0.39096967637E+02  0.51100000000E-03 0. -1.
        -11    1    3    3    0    0  0.17040932466E+01 -0.96475656287E+01  0.10528046954E+02  0.14381210981E+02  0.51100000000E-03 0.  1.
        -12    1    3    3    0    0 -0.72977387314E+01  0.58704426319E+01  0.16512190627E+02  0.18983454021E+02  0.00000000000E+00 0.  1.
</event>
<event>
 7    1  0.2655561E-013  0.7246155E+02  0.7816164E-02  0.1226708E+00
        -11   -1    0    0    0    0  0.00000000000E+00  0.00000000000E+00  0.45593999997E+02  0.45594000000E+02  0.51100000000E-03 0.  1.
         11   -1    0    0    0    0 -0.00000000000E+00 -0.00000000000E+00 -0.45593999997E+02  0.45594000000E+02  0.51100000000E-03 0. -1.
    9900012    2    1    2    0    0 -0.99021804790E+01 -0.15243481266E+02  0.45014380987E+01  0.72461552277E+02  0.69999976529E+02 0.  0.
        -12    1    1    2    0    0  0.99021804790E+01  0.15243481266E+02 -0.45014380987E+01  0.18726447723E+02  0.00000000000E+00 0.  1.
         11    1    3    3    0    0  0.12894358710E+02 -0.68830834813E+01  0.19334157402E+02  0.24237387802E+02  0.51100000000E-03 0. -1.
        -11    1    3    3    0    0  0.95727201585E+01  0.49431625139E+01 -0.20545351185E+01  0.10967813897E+02  0.51100000000E-03 0.  1.
         12    1    3    3    0    0 -0.32369259348E+02 -0.13303560299E+02 -0.12778184185E+02  0.37256350578E+02  0.00000000000E+00 0. -1.
</event>
<event>
 7    1  0.2655561E-013  0.7246157E+02  0.7816164E-02  0.1226708E+00
        -11   -1    0    0    0    0  0.00000000000E+00  0.00000000000E+00  0.45593999997E+02  0.45594000000E+02  0.51100000000E-03 0. -1.
         11   -1    0    0    0    0 -0.00000000000E+00 -0.00000000000E+00 -0.45593999997E+02  0.45594000000E+02  0.51100000000E-03 0.  1.
    9900012    2    1    2    0    0  0.79511302916E+01  0.14769672498E+02  0.83255900216E+01  0.72461570874E+02  0.70000000755E+02 0.  0.
        -12    1    1    2    0    0 -0.79511302916E+01 -0.14769672498E+02 -0.83255900216E+01  0.18726429126E+02  0.00000000000E+00 0.  1.
         11    1    3    3    0    0  0.13327440744E+02  0.18007442185E+02 -0.88699002344E+01  0.24094891185E+02  0.51100000000E-03 0. -1.
        -11    1    3    3    0    0  0.12840744886E+02  0.10134720584E+02  0.19726804795E+02  0.25627019301E+02  0.51100000000E-03 0.  1.
        -12    1    3    3    0    0 -0.18217055339E+02 -0.13372490271E+02 -0.25313145393E+01  0.22739660388E+02  0.00000000000E+00 0.  1.
</event>
<event>
 7    1  0.2655561E-013  0.7246158E+02  0.7816164E-02  0.1226708E+00
        -11   -1    0    0    0    0  0.00000000000E+00  0.00000000000E+00  0.45593999997E+02  0.45594000000E+02  0.51100000000E-03 0.  1.
         11   -1    0    0    0    0 -0.00000000000E+00 -0.00000000000E+00 -0.45593999997E+02  0.45594000000E+02  0.51100000000E-03 0. -1.
    9900012    2    1    2    0    0  0.14048372299E+02 -0.12304925540E+02  0.13823466768E+01  0.72461579116E+02  0.70000011491E+02 0.  0.
        -12    1    1    2    0    0 -0.14048372299E+02  0.12304925540E+02 -0.13823466768E+01  0.18726420884E+02  0.00000000000E+00 0.  1.
         11    1    3    3    0    0 -0.88201628507E+00  0.36752864506E+01  0.33650814390E+01  0.50605786797E+01  0.51100000000E-03 0. -1.
        -11    1    3    3    0    0  0.43403690767E+01 -0.12085481720E+02  0.30457815938E+02  0.33054140801E+02  0.51100000000E-03 0.  1.
         12    1    3    3    0    0  0.10590019508E+02 -0.38947302702E+01 -0.32440550700E+02  0.34346859635E+02  0.00000000000E+00 0. -1.
</event>
<event>
 7    1  0.2655561E-013  0.7246169E+02  0.7816164E-02  0.1226708E+00
        -11   -1    0    0    0    0  0.00000000000E+00  0.00000000000E+00  0.45593999997E+02  0.45594000000E+02  0.51100000000E-03 0.  1.
         11   -1    0    0    0    0 -0.00000000000E+00 -0.00000000000E+00 -0.45593999997E+02  0.45594000000E+02  0.51100000000E-03 0. -1.
    9900012    2    1    2    0    0 -0.12908834985E+02  0.12322544202E+02 -0.56737599242E+01  0.72461690487E+02  0.70000156574E+02 0.  0.
        -12    1    1    2    0    0  0.12908834985E+02 -0.12322544202E+02  0.56737599242E+01  0.18726309513E+02  0.00000000000E+00 0.  1.
         11    1    3    3    0    0 -0.17252792447E+02 -0.78802771016E+01  0.36753049726E+01  0.19320079744E+02  0.51100000000E-03 0.  1.
        -11    1    3    3    0    0 -0.48195649884E+01 -0.12514239093E+02 -0.13360147756E+02  0.18929551898E+02  0.51100000000E-03 0. -1.
        -12    1    3    3    0    0  0.91635224503E+01  0.32717060397E+02  0.40110828589E+01  0.34212058845E+02  0.00000000000E+00 0.  1.
</event>
<event>
 7    1  0.2655561E-013  0.7246139E+02  0.7816164E-02  0.1226708E+00
        -11   -1    0    0    0    0  0.00000000000E+00  0.00000000000E+00  0.45593999997E+02  0.45594000000E+02  0.51100000000E-03 0.  1.
         11   -1    0    0    0    0 -0.00000000000E+00 -0.00000000000E+00 -0.45593999997E+02  0.45594000000E+02  0.51100000000E-03 0. -1.
    9900012    2    1    2    0    0  0.15901491315E+02 -0.97740666599E+01 -0.15152942310E+01  0.72461390010E+02  0.69999765145E+02 0.  0.
        -12    1    1    2    0    0 -0.15901491315E+02  0.97740666599E+01  0.15152942310E+01  0.18726609990E+02  0.00000000000E+00 0.  1.
         11    1    3    3    0    0  0.13498863246E+02  0.51289609877E+01 -0.93424795671E+01  0.17199054464E+02  0.51100000000E-03 0.  1.
        -11    1    3    3    0    0  0.24980292471E+02 -0.10310065050E+02  0.15282311695E+02  0.31046118989E+02  0.51100000000E-03 0. -1.
        -12    1    3    3    0    0 -0.22577664402E+02 -0.45929625973E+01 -0.74551263592E+01  0.24216216556E+02  0.00000000000E+00 0.  1.
</event>
<event>
 7    1  0.2655561E-013  0.7246160E+02  0.7816164E-02  0.1226708E+00
        -11   -1    0    0    0    0  0.00000000000E+00  0.00000000000E+00  0.45593999997E+02  0.45594000000E+02  0.51100000000E-03 0.  1.
         11   -1    0    0    0    0 -0.00000000000E+00 -0.00000000000E+00 -0.45593999997E+02  0.45594000000E+02  0.51100000000E-03 0. -1.
    9900012    2    1    2    0    0  0.16788503170E+02 -0.71275120619E+01 -0.42453423581E+01  0.72461596217E+02  0.70000033769E+02 0.  0.
        -12    1    1    2    0    0 -0.16788503170E+02  0.71275120619E+01  0.42453423581E+01  0.18726403783E+02  0.00000000000E+00 0.  1.
         11    1    3    3    0    0  0.47487925485E+01  0.56454406323E+01  0.31991031549E+01  0.80409136209E+01  0.51100000000E-03 0. -1.
        -11    1    3    3    0    0  0.14697975455E+02  0.22514713622E+02  0.40982084968E+01  0.27198127236E+02  0.51100000000E-03 0.  1.
         12    1    3    3    0    0 -0.26582648332E+01 -0.35287666317E+02 -0.11542654010E+02  0.37222555361E+02  0.00000000000E+00 0. -1.
</event>
<event>
 7    1  0.2655561E-013  0.7246197E+02  0.7816164E-02  0.1226707E+00
        -11   -1    0    0    0    0  0.00000000000E+00  0.00000000000E+00  0.45593999997E+02  0.45594000000E+02  0.51100000000E-03 0.  1.
         11   -1    0    0    0    0 -0.00000000000E+00 -0.00000000000E+00 -0.45593999997E+02  0.45594000000E+02  0.51100000000E-03 0. -1.
    9900012    2    1    2    0    0  0.11905445076E+02 -0.10702467215E+02 -0.97150293073E+01  0.72461969417E+02  0.70000519929E+02 0.  0.
        -12    1    1    2    0    0 -0.11905445076E+02  0.10702467215E+02  0.97150293073E+01  0.18726030583E+02  0.00000000000E+00 0.  1.
         11    1    3    3    0    0  0.10964053533E+02  0.11098712423E+02 -0.16298997951E+02  0.22562119178E+02  0.51100000000E-03 0. -1.
        -11    1    3    3    0    0  0.12981072853E+02 -0.16058510761E+02 -0.14301531008E+02  0.25118077349E+02  0.51100000000E-03 0.  1.
         12    1    3    3    0    0 -0.12039681310E+02 -0.57426688777E+01  0.20885499652E+02  0.24781772890E+02  0.00000000000E+00 0. -1.
</event>
<event>
 7    1  0.2655561E-013  0.7246158E+02  0.7816164E-02  0.1226708E+00
        -11   -1    0    0    0    0  0.00000000000E+00  0.00000000000E+00  0.45593999997E+02  0.45594000000E+02  0.51100000000E-03 0.  1.
         11   -1    0    0    0    0 -0.00000000000E+00 -0.00000000000E+00 -0.45593999997E+02  0.45594000000E+02  0.51100000000E-03 0. -1.
    9900012    2    1    2    0    0 -0.14313926189E+02  0.92238312532E+01 -0.77917330775E+01  0.72461584158E+02  0.70000018060E+02 0.  0.
        -12    1    1    2    0    0  0.14313926189E+02 -0.92238312532E+01  0.77917330775E+01  0.18726415842E+02  0.00000000000E+00 0.  1.
         11    1    3    3    0    0  0.56003505950E+00 -0.78390800628E+01 -0.65188235378E+01  0.10210772550E+02  0.51100000000E-03 0. -1.
        -11    1    3    3    0    0 -0.44003976291E+01 -0.17759781652E+02  0.13768999986E+02  0.22898879983E+02  0.51100000000E-03 0.  1.
         12    1    3    3    0    0 -0.10473563619E+02  0.34822692968E+02 -0.15041909526E+02  0.39351931625E+02  0.00000000000E+00 0. -1.
</event>
<event>
 7    1  0.2655561E-013  0.7246178E+02  0.7816164E-02  0.1226707E+00
        -11   -1    0    0    0    0  0.00000000000E+00  0.00000000000E+00  0.45593999997E+02  0.45594000000E+02  0.51100000000E-03 0.  1.
         11   -1    0    0    0    0 -0.00000000000E+00 -0.00000000000E+00 -0.45593999997E+02  0.45594000000E+02  0.51100000000E-03 0. -1.
    9900012    2    1    2    0    0  0.94216684832E+01  0.16178385198E+02 -0.40396632679E+00  0.72461783793E+02  0.70000278122E+02 0.  0.
        -12    1    1    2    0    0 -0.94216684832E+01 -0.16178385198E+02  0.40396632679E+00  0.18726216207E+02  0.00000000000E+00 0.  1.
         11    1    3    3    0    0  0.95903591771E+01 -0.14896547972E+02  0.11829050447E+02  0.21302783043E+02  0.51100000000E-03 0. -1.
        -11    1    3    3    0    0  0.63459624983E+01  0.33140836262E+01  0.11843365588E+02  0.13839064239E+02  0.51100000000E-03 0.  1.
         12    1    3    3    0    0 -0.65146531922E+01  0.27760849544E+02 -0.24076382361E+02  0.37319936511E+02  0.00000000000E+00 0. -1.
</event>
<event>
 7    1  0.2655561E-013  0.7246155E+02  0.7816164E-02  0.1226708E+00
        -11   -1    0    0    0    0  0.00000000000E+00  0.00000000000E+00  0.45593999997E+02  0.45594000000E+02  0.51100000000E-03 0. -1.
         11   -1    0    0    0    0 -0.00000000000E+00 -0.00000000000E+00 -0.45593999997E+02  0.45594000000E+02  0.51100000000E-03 0.  1.
    9900012    2    1    2    0    0  0.16332746411E+01  0.18065115646E+02  0.46544452159E+01  0.72461552135E+02  0.69999976345E+02 0.  0.
        -12    1    1    2    0    0 -0.16332746411E+01 -0.18065115646E+02 -0.46544452159E+01  0.18726447865E+02  0.00000000000E+00 0.  1.
         11    1    3    3    0    0 -0.18677095827E+02  0.16510925565E+01  0.24606720414E+02  0.30936236115E+02  0.51100000000E-03 0. -1.
        -11    1    3    3    0    0 -0.81782322742E+00 -0.42826755453E+01  0.18959215432E+01  0.47544361828E+01  0.51100000000E-03 0.  1.
        -12    1    3    3    0    0  0.21128193695E+02  0.20696698635E+02 -0.21848196741E+02  0.36770879838E+02  0.00000000000E+00 0.  1.
</event>
<event>
 7    1  0.2655561E-013  0.7246161E+02  0.7816164E-02  0.1226708E+00
        -11   -1    0    0    0    0  0.00000000000E+00  0.00000000000E+00  0.45593999997E+02  0.45594000000E+02  0.51100000000E-03 0.  1.
         11   -1    0    0    0    0 -0.00000000000E+00 -0.00000000000E+00 -0.45593999997E+02  0.45594000000E+02  0.51100000000E-03 0. -1.
    9900012    2    1    2    0    0 -0.65482624999E+01 -0.13845456494E+02 -0.10775025439E+02  0.72461612721E+02  0.70000055269E+02 0.  0.
        -12    1    1    2    0    0  0.65482624999E+01  0.13845456494E+02  0.10775025439E+02  0.18726387279E+02  0.00000000000E+00 0.  1.
         11    1    3    3    0    0  0.91077249358E+01 -0.67760208824E-01 -0.30372807839E+01  0.96010582632E+01  0.51100000000E-03 0. -1.
        -11    1    3    3    0    0 -0.13888613158E+02 -0.27036190936E+02 -0.26154696866E+02  0.40098844923E+02  0.51100000000E-03 0.  1.
         12    1    3    3    0    0 -0.17673742782E+01  0.13258494650E+02  0.18416952211E+02  0.22761709535E+02  0.00000000000E+00 0. -1.
</event>
<event>
 7    1  0.2655561E-013  0.7246156E+02  0.7816164E-02  0.1226708E+00
        -11   -1    0    0    0    0  0.00000000000E+00  0.00000000000E+00  0.45593999997E+02  0.45594000000E+02  0.51100000000E-03 0. -1.
         11   -1    0    0    0    0 -0.00000000000E+00 -0.00000000000E+00 -0.45593999997E+02  0.45594000000E+02  0.51100000000E-03 0.  1.
    9900012    2    1    2    0    0  0.10151710334E+02 -0.97874005354E+01  0.12321901846E+02  0.72461556210E+02  0.69999981652E+02 0.  0.
        -12    1    1    2    0    0 -0.10151710334E+02  0.97874005354E+01 -0.12321901846E+02  0.18726443790E+02  0.00000000000E+00 0.  1.
         11    1    3    3    0    0 -0.39072275992E+01  0.97000555621E+01 -0.84611572994E+01  0.13451716936E+02  0.51100000000E-03 0. -1.
        -11    1    3    3    0    0  0.37919816270E+01  0.80256538142E+01 -0.12045858136E+02  0.14963052573E+02  0.51100000000E-03 0.  1.
         12    1    3    3    0    0  0.10266956306E+02 -0.27513109912E+02  0.32828917281E+02  0.44046786701E+02  0.00000000000E+00 0. -1.
</event>
<event>
 7    1  0.2655561E-013  0.7246158E+02  0.7816164E-02  0.1226708E+00
        -11   -1    0    0    0    0  0.00000000000E+00  0.00000000000E+00  0.45593999997E+02  0.45594000000E+02  0.51100000000E-03 0. -1.
         11   -1    0    0    0    0 -0.00000000000E+00 -0.00000000000E+00 -0.45593999997E+02  0.45594000000E+02  0.51100000000E-03 0.  1.
    9900012    2    1    2    0    0 -0.97930679354E+01  0.15330422069E+02 -0.44443969862E+01  0.72461583232E+02  0.70000016854E+02 0.  0.
        -12    1    1    2    0    0  0.97930679354E+01 -0.15330422069E+02  0.44443969862E+01  0.18726416768E+02  0.00000000000E+00 0.  1.
         11    1    3    3    0    0 -0.13740520270E+02  0.14712512445E+02 -0.63336508371E+01  0.21103910844E+02  0.51100000000E-03 0. -1.
        -11    1    3    3    0    0 -0.82704785029E+01  0.60500486279E+01 -0.21837772741E+02  0.24122442281E+02  0.51100000000E-03 0.  1.
         12    1    3    3    0    0  0.12217930838E+02 -0.54321390043E+01  0.23727026591E+02  0.27235230107E+02  0.00000000000E+00 0. -1.
</event>
<event>
 7    1  0.2655561E-013  0.7246156E+02  0.7816164E-02  0.1226708E+00
        -11   -1    0    0    0    0  0.00000000000E+00  0.00000000000E+00  0.45593999997E+02  0.45594000000E+02  0.51100000000E-03 0. -1.
         11   -1    0    0    0    0 -0.00000000000E+00 -0.00000000000E+00 -0.45593999997E+02  0.45594000000E+02  0.51100000000E-03 0.  1.
    9900012    2    1    2    0    0 -0.88337954600E+01  0.11758277597E+02 -0.11592520785E+02  0.72461559537E+02  0.69999985987E+02 0.  0.
        -12    1    1    2    0    0  0.88337954600E+01 -0.11758277597E+02  0.11592520785E+02  0.18726440463E+02  0.00000000000E+00 0.  1.
         11    1    3    3    0    0  0.36568958720E+01  0.78978746772E+01 -0.18419936496E+01  0.88961931579E+01  0.51100000000E-03 0. -1.
        -11    1    3    3    0    0  0.12718467462E+02  0.18497635062E+02 -0.22468874160E+02  0.31761174785E+02  0.51100000000E-03 0.  1.
         12    1    3    3    0    0 -0.25209158794E+02 -0.14637232143E+02  0.12718347025E+02  0.31804191594E+02  0.00000000000E+00 0. -1.
</event>
<event>
 7    1  0.2655561E-013  0.7246152E+02  0.7816164E-02  0.1226708E+00
        -11   -1    0    0    0    0  0.00000000000E+00  0.00000000000E+00  0.45593999997E+02  0.45594000000E+02  0.51100000000E-03 0. -1.
         11   -1    0    0    0    0 -0.00000000000E+00 -0.00000000000E+00 -0.45593999997E+02  0.45594000000E+02  0.51100000000E-03 0.  1.
    9900012    2    1    2    0    0  0.54739763068E+01 -0.11611379868E+02  0.13634242483E+02  0.72461518026E+02  0.69999931910E+02 0.  0.
        -12    1    1    2    0    0 -0.54739763068E+01  0.11611379868E+02 -0.13634242483E+02  0.18726481974E+02  0.00000000000E+00 0.  1.
         11    1    3    3    0    0  0.31300103163E+00 -0.47725167605E+01  0.12875389412E+01  0.49530437774E+01  0.51100000000E-03 0. -1.
        -11    1    3    3    0    0  0.15108531781E+02 -0.29547179979E+02 -0.94419054286E+01  0.34502944160E+02  0.51100000000E-03 0.  1.
         12    1    3    3    0    0 -0.99475565057E+01  0.22708316871E+02  0.21788608970E+02  0.33005530089E+02  0.00000000000E+00 0. -1.
</event>
<event>
 7    1  0.2655561E-013  0.7246159E+02  0.7816164E-02  0.1226708E+00
        -11   -1    0    0    0    0  0.00000000000E+00  0.00000000000E+00  0.45593999997E+02  0.45594000000E+02  0.51100000000E-03 0.  1.
         11   -1    0    0    0    0 -0.00000000000E+00 -0.00000000000E+00 -0.45593999997E+02  0.45594000000E+02  0.51100000000E-03 0. -1.
    9900012    2    1    2    0    0 -0.14934332646E+02  0.87321304243E+01 -0.71689581027E+01  0.72461592080E+02  0.70000028379E+02 0.  0.
        -12    1    1    2    0    0  0.14934332646E+02 -0.87321304243E+01  0.71689581027E+01  0.18726407920E+02  0.00000000000E+00 0.  1.
         11    1    3    3    0    0  0.28443248257E+01  0.50731167803E+01 -0.29476823352E+02  0.30045129602E+02  0.51100000000E-03 0. -1.
        -11    1    3    3    0    0 -0.14060057969E+02  0.13275680123E+02  0.17479735765E+01  0.19416084176E+02  0.51100000000E-03 0.  1.
        -12    1    3    3    0    0 -0.37185995023E+01 -0.96166664790E+01  0.20559891673E+02  0.23000378302E+02  0.00000000000E+00 0.  1.
</event>
<event>
 7    1  0.2655561E-013  0.7246160E+02  0.7816164E-02  0.1226708E+00
        -11   -1    0    0    0    0  0.00000000000E+00  0.00000000000E+00  0.45593999997E+02  0.45594000000E+02  0.51100000000E-03 0. -1.
         11   -1    0    0    0    0 -0.00000000000E+00 -0.00000000000E+00 -0.45593999997E+02  0.45594000000E+02  0.51100000000E-03 0.  1.
    9900012    2    1    2    0    0 -0.15813140324E+02 -0.10014410947E+02 -0.57802146709E+00  0.72461603060E+02  0.70000042684E+02 0.  0.
        -12    1    1    2    0    0  0.15813140324E+02  0.10014410947E+02  0.57802146709E+00  0.18726396940E+02  0.00000000000E+00 0.  1.
         11    1    3    3    0    0 -0.59326090588E+01 -0.32790997103E+01  0.28614111919E+02  0.29406049485E+02  0.51100000000E-03 0. -1.
        -11    1    3    3    0    0 -0.93099295714E+01  0.43789140201E+01  0.15101058481E+01  0.10398562235E+02  0.51100000000E-03 0.  1.
        -12    1    3    3    0    0 -0.57060169370E+00 -0.11114225257E+02 -0.30702239234E+02  0.32656991340E+02  0.00000000000E+00 0.  1.
</event>
<event>
 7    1  0.2655561E-013  0.7246159E+02  0.7816164E-02  0.1226708E+00
        -11   -1    0    0    0    0  0.00000000000E+00  0.00000000000E+00  0.45593999997E+02  0.45594000000E+02  0.51100000000E-03 0.  1.
         11   -1    0    0    0    0 -0.00000000000E+00 -0.00000000000E+00 -0.45593999997E+02  0.45594000000E+02  0.51100000000E-03 0. -1.
    9900012    2    1    2    0    0  0.86206281742E+01 -0.11501403732E+02 -0.12003365100E+02  0.72461593734E+02  0.70000030534E+02 0.  0.
        -12    1    1    2    0    0 -0.86206281742E+01  0.11501403732E+02  0.12003365100E+02  0.18726406266E+02  0.00000000000E+00 0.  1.
         11    1    3    3    0    0  0.45118294338E+01  0.18781088861E+02 -0.10824419547E+02  0.22141679304E+02  0.51100000000E-03 0. -1.
        -11    1    3    3    0    0  0.79551822622E+01  0.61129403942E+01 -0.83175849350E+01  0.13032082892E+02  0.51100000000E-03 0.  1.
        -12    1    3    3    0    0 -0.38463835218E+01 -0.36395432987E+02  0.71386393823E+01  0.37287831537E+02  0.00000000000E+00 0.  1.
</event>
<event>
 7    1  0.2655561E-013  0.7246163E+02  0.7816164E-02  0.1226708E+00
        -11   -1    0    0    0    0  0.00000000000E+00  0.00000000000E+00  0.45593999997E+02  0.45594000000E+02  0.51100000000E-03 0. -1.
         11   -1    0    0    0    0 -0.00000000000E+00 -0.00000000000E+00 -0.45593999997E+02  0.45594000000E+02  0.51100000000E-03 0.  1.
    9900012    2    1    2    0    0  0.18159157116E+02  0.41353642074E+01  0.19546812893E+01  0.72461628135E+02  0.70000075348E+02 0.  0.
        -12    1    1    2    0    0 -0.18159157116E+02 -0.41353642074E+01 -0.19546812893E+01  0.18726371865E+02  0.00000000000E+00 0.  1.
         11    1    3    3    0    0  0.13788926538E+02 -0.25950827311E+02  0.94363886655E+01  0.30864629668E+02  0.51100000000E-03 0. -1.
        -11    1    3    3    0    0 -0.49694548928E+01 -0.11947525753E+01  0.45123321964E+01  0.68179218065E+01  0.51100000000E-03 0.  1.
        -12    1    3    3    0    0  0.93396854704E+01  0.31280944094E+02 -0.11994039573E+02  0.34779076661E+02  0.00000000000E+00 0.  1.
</event>
<event>
 7    1  0.2655561E-013  0.7246158E+02  0.7816164E-02  0.1226708E+00
        -11   -1    0    0    0    0  0.00000000000E+00  0.00000000000E+00  0.45593999997E+02  0.45594000000E+02  0.51100000000E-03 0.  1.
         11   -1    0    0    0    0 -0.00000000000E+00 -0.00000000000E+00 -0.45593999997E+02  0.45594000000E+02  0.51100000000E-03 0. -1.
    9900012    2    1    2    0    0 -0.44346395574E+01 -0.15163377200E+02 -0.10054100677E+02  0.72461575447E+02  0.70000006713E+02 0.  0.
        -12    1    1    2    0    0  0.44346395574E+01  0.15163377200E+02  0.10054100677E+02  0.18726424553E+02  0.00000000000E+00 0.  1.
         11    1    3    3    0    0 -0.28174267854E+02 -0.14058693874E+02 -0.96243966072E+00  0.31501786186E+02  0.51100000000E-03 0. -1.
        -11    1    3    3    0    0  0.38784199584E+01  0.46154405231E+01  0.10739614522E+02  0.12315995816E+02  0.51100000000E-03 0.  1.
        -12    1    3    3    0    0  0.19861208338E+02 -0.57201238489E+01 -0.19831275538E+02  0.28643793446E+02  0.00000000000E+00 0.  1.
</event>
<event>
 7    1  0.2655561E-013  0.7246153E+02  0.7816164E-02  0.1226708E+00
        -11   -1    0    0    0    0  0.00000000000E+00  0.00000000000E+00  0.45593999997E+02  0.45594000000E+02  0.51100000000E-03 0. -1.
         11   -1    0    0    0    0 -0.00000000000E+00 -0.00000000000E+00 -0.45593999997E+02  0.45594000000E+02  0.51100000000E-03 0.  1.
    9900012    2    1    2    0    0  0.99555380380E+01  0.15857716420E+02 -0.31723056505E+00  0.72461533625E+02  0.69999952231E+02 0.  0.
        -12    1    1    2    0    0 -0.99555380380E+01 -0.15857716420E+02  0.31723056505E+00  0.18726466375E+02  0.00000000000E+00 0.  1.
         11    1    3    3    0    0 -0.18138994321E+01  0.34719948771E+01 -0.13345974134E+02  0.13908990094E+02  0.51100000000E-03 0. -1.
        -11    1    3    3    0    0  0.10523235462E+02 -0.16242109231E+02  0.21249488325E+02  0.28741700562E+02  0.51100000000E-03 0.  1.
         12    1    3    3    0    0  0.12462020081E+01  0.28627830773E+02 -0.82207447560E+01  0.29810842970E+02  0.00000000000E+00 0. -1.
</event>
<event>
 7    1  0.2655561E-013  0.7246152E+02  0.7816164E-02  0.1226708E+00
        -11   -1    0    0    0    0  0.00000000000E+00  0.00000000000E+00  0.45593999997E+02  0.45594000000E+02  0.51100000000E-03 0.  1.
         11   -1    0    0    0    0 -0.00000000000E+00 -0.00000000000E+00 -0.45593999997E+02  0.45594000000E+02  0.51100000000E-03 0. -1.
    9900012    2    1    2    0    0  0.13851096197E+02  0.12132114488E+02 -0.34117636010E+01  0.72461516115E+02  0.69999929422E+02 0.  0.
        -12    1    1    2    0    0 -0.13851096197E+02 -0.12132114488E+02  0.34117636010E+01  0.18726483885E+02  0.00000000000E+00 0.  1.
         11    1    3    3    0    0 -0.89207712380E+01  0.14880228331E+02 -0.15873661112E+02  0.23515409246E+02  0.51100000000E-03 0. -1.
        -11    1    3    3    0    0 -0.77911896549E+00  0.16333927026E+02  0.50068559652E+00  0.16360161514E+02  0.51100000000E-03 0.  1.
        -12    1    3    3    0    0  0.23550986401E+02 -0.19082040870E+02  0.11961211914E+02  0.32585945355E+02  0.00000000000E+00 0.  1.
</event>
<event>
 7    1  0.2655561E-013  0.7246155E+02  0.7816164E-02  0.1226708E+00
        -11   -1    0    0    0    0  0.00000000000E+00  0.00000000000E+00  0.45593999997E+02  0.45594000000E+02  0.51100000000E-03 0. -1.
         11   -1    0    0    0    0 -0.00000000000E+00 -0.00000000000E+00 -0.45593999997E+02  0.45594000000E+02  0.51100000000E-03 0.  1.
    9900012    2    1    2    0    0  0.64804770035E+01  0.47098275703E+01  0.16926336977E+02  0.72461549685E+02  0.69999973153E+02 0.  0.
        -12    1    1    2    0    0 -0.64804770035E+01 -0.47098275703E+01 -0.16926336977E+02  0.18726450315E+02  0.00000000000E+00 0.  1.
         11    1    3    3    0    0 -0.40401895817E+00  0.88545538870E+01 -0.19648816981E+02  0.21555564592E+02  0.51100000000E-03 0. -1.
        -11    1    3    3    0    0  0.75933843214E+01  0.11649256513E+02  0.36420462779E+01  0.14374601355E+02  0.51100000000E-03 0.  1.
         12    1    3    3    0    0 -0.70888835969E+00 -0.15793982830E+02  0.32933107680E+02  0.36531383738E+02  0.00000000000E+00 0. -1.
</event>
<event>
 7    1  0.2655561E-013  0.7246134E+02  0.7816164E-02  0.1226709E+00
        -11   -1    0    0    0    0  0.00000000000E+00  0.00000000000E+00  0.45593999997E+02  0.45594000000E+02  0.51100000000E-03 0.  1.
         11   -1    0    0    0    0 -0.00000000000E+00 -0.00000000000E+00 -0.45593999997E+02  0.45594000000E+02  0.51100000000E-03 0. -1.
    9900012    2    1    2    0    0 -0.25280292949E+01  0.18117649010E+02 -0.40059408216E+01  0.72461342540E+02  0.69999703307E+02 0.  0.
        -12    1    1    2    0    0  0.25280292949E+01 -0.18117649010E+02  0.40059408216E+01  0.18726657460E+02  0.00000000000E+00 0.  1.
         11    1    3    3    0    0 -0.97864863564E+01  0.23223661613E+02 -0.26948358860E+02  0.36896176217E+02  0.51100000000E-03 0. -1.
        -11    1    3    3    0    0 -0.83169511062E+01 -0.23814233009E+00  0.12401046913E+01  0.84122676716E+01  0.51100000000E-03 0.  1.
        -12    1    3    3    0    0  0.15575408168E+02 -0.48678702730E+01  0.21702313347E+02  0.27152898652E+02  0.00000000000E+00 0.  1.
</event>
<event>
 7    1  0.2655561E-013  0.7246155E+02  0.7816164E-02  0.1226708E+00
        -11   -1    0    0    0    0  0.00000000000E+00  0.00000000000E+00  0.45593999997E+02  0.45594000000E+02  0.51100000000E-03 0. -1.
         11   -1    0    0    0    0 -0.00000000000E+00 -0.00000000000E+00 -0.45593999997E+02  0.45594000000E+02  0.51100000000E-03 0.  1.
    9900012    2    1    2    0    0  0.17758538822E+02 -0.57619030935E+01  0.14541564901E+01  0.72461553475E+02  0.69999978090E+02 0.  0.
        -12    1    1    2    0    0 -0.17758538822E+02  0.57619030935E+01 -0.14541564901E+01  0.18726446525E+02  0.00000000000E+00 0.  1.
         11    1    3    3    0    0  0.90137275117E+01  0.56922353849E+01  0.14396608565E+02  0.17913993574E+02  0.51100000000E-03 0. -1.
        -11    1    3    3    0    0  0.11238139484E+02  0.14194587700E+02  0.94370809810E+01  0.20416674478E+02  0.51100000000E-03 0.  1.
        -12    1    3    3    0    0 -0.24933281738E+01 -0.25648726179E+02 -0.22379533056E+02  0.34130885423E+02  0.00000000000E+00 0.  1.
</event>
<event>
 7    1  0.2655561E-013  0.7246157E+02  0.7816164E-02  0.1226708E+00
        -11   -1    0    0    0    0  0.00000000000E+00  0.00000000000E+00  0.45593999997E+02  0.45594000000E+02  0.51100000000E-03 0.  1.
         11   -1    0    0    0    0 -0.00000000000E+00 -0.00000000000E+00 -0.45593999997E+02  0.45594000000E+02  0.51100000000E-03 0. -1.
    9900012    2    1    2    0    0 -0.43609795876E+01  0.16528166544E+02  0.76472774761E+01  0.72461567209E+02  0.69999995981E+02 0.  0.
        -12    1    1    2    0    0  0.43609795876E+01 -0.16528166544E+02 -0.76472774761E+01  0.18726432791E+02  0.00000000000E+00 0.  1.
         11    1    3    3    0    0 -0.21692517410E+01  0.10140875522E+02 -0.21189095285E+02  0.23590692418E+02  0.51100000000E-03 0. -1.
        -11    1    3    3    0    0 -0.71557309068E+00  0.14653165427E+01 -0.97795431413E+01  0.99145681566E+01  0.51100000000E-03 0.  1.
        -12    1    3    3    0    0 -0.14761547559E+01  0.49219744791E+01  0.38615915903E+02  0.38956306635E+02  0.00000000000E+00 0.  1.
</event>
<event>
 7    1  0.2655561E-013  0.7246170E+02  0.7816164E-02  0.1226708E+00
        -11   -1    0    0    0    0  0.00000000000E+00  0.00000000000E+00  0.45593999997E+02  0.45594000000E+02  0.51100000000E-03 0.  1.
         11   -1    0    0    0    0 -0.00000000000E+00 -0.00000000000E+00 -0.45593999997E+02  0.45594000000E+02  0.51100000000E-03 0. -1.
    9900012    2    1    2    0    0 -0.13761884592E+02  0.12692803349E+02 -0.42134609764E+00  0.72461701463E+02  0.70000170871E+02 0.  0.
        -12    1    1    2    0    0  0.13761884592E+02 -0.12692803349E+02  0.42134609764E+00  0.18726298537E+02  0.00000000000E+00 0.  1.
         11    1    3    3    0    0 -0.19583212954E+02  0.15942458366E+02 -0.56484810219E+01  0.25876041940E+02  0.51100000000E-03 0. -1.
        -11    1    3    3    0    0  0.55498801245E+00  0.21133781637E+02  0.45806172716E+01  0.21631615585E+02  0.51100000000E-03 0.  1.
        -12    1    3    3    0    0  0.52663403500E+01 -0.24383436654E+02  0.64651765270E+00  0.24954043938E+02  0.00000000000E+00 0.  1.
</event>
<event>
 7    1  0.2655561E-013  0.7246159E+02  0.7816164E-02  0.1226708E+00
        -11   -1    0    0    0    0  0.00000000000E+00  0.00000000000E+00  0.45593999997E+02  0.45594000000E+02  0.51100000000E-03 0.  1.
         11   -1    0    0    0    0 -0.00000000000E+00 -0.00000000000E+00 -0.45593999997E+02  0.45594000000E+02  0.51100000000E-03 0. -1.
    9900012    2    1    2    0    0  0.11871387481E+02  0.14481341143E+02 -0.19803789538E+00  0.72461593483E+02  0.70000030208E+02 0.  0.
        -12    1    1    2    0    0 -0.11871387481E+02 -0.14481341143E+02  0.19803789538E+00  0.18726406517E+02  0.00000000000E+00 0.  1.
         11    1    3    3    0    0 -0.82444401829E+01  0.35190631189E+02  0.17370643649E+01  0.36185200156E+02  0.51100000000E-03 0. -1.
        -11    1    3    3    0    0  0.38122040175E+00  0.43143560750E+01  0.20089418630E+00  0.43358224216E+01  0.51100000000E-03 0.  1.
        -12    1    3    3    0    0  0.19734607262E+02 -0.25023646121E+02 -0.21359964466E+01  0.31940570906E+02  0.00000000000E+00 0.  1.
</event>
<event>
 7    1  0.2655561E-013  0.7246146E+02  0.7816164E-02  0.1226708E+00
        -11   -1    0    0    0    0  0.00000000000E+00  0.00000000000E+00  0.45593999997E+02  0.45594000000E+02  0.51100000000E-03 0. -1.
         11   -1    0    0    0    0 -0.00000000000E+00 -0.00000000000E+00 -0.45593999997E+02  0.45594000000E+02  0.51100000000E-03 0.  1.
    9900012    2    1    2    0    0  0.37369923771E+01  0.90379308412E+01  0.15969789558E+02  0.72461455085E+02  0.69999849919E+02 0.  0.
        -12    1    1    2    0    0 -0.37369923771E+01 -0.90379308412E+01 -0.15969789558E+02  0.18726544915E+02  0.00000000000E+00 0.  1.
         11    1    3    3    0    0  0.37760254938E+01 -0.96135320902E+01 -0.85036530629E+01  0.13378732506E+02  0.51100000000E-03 0. -1.
        -11    1    3    3    0    0  0.13155280544E+01  0.19622803401E+02 -0.11691358294E+02  0.22879529855E+02  0.51100000000E-03 0.  1.
         12    1    3    3    0    0 -0.13545611710E+01 -0.97134046990E+00  0.36164800914E+02  0.36203192725E+02  0.00000000000E+00 0. -1.
</event>
<event>
 7    1  0.2655561E-013  0.7246156E+02  0.7816164E-02  0.1226708E+00
        -11   -1    0    0    0    0  0.00000000000E+00  0.00000000000E+00  0.45593999997E+02  0.45594000000E+02  0.51100000000E-03 0.  1.
         11   -1    0    0    0    0 -0.00000000000E+00 -0.00000000000E+00 -0.45593999997E+02  0.45594000000E+02  0.51100000000E-03 0. -1.
    9900012    2    1    2    0    0  0.79162203660E+00 -0.10201348688E+02 -0.15683924364E+02  0.72461557093E+02  0.69999982803E+02 0.  0.
        -12    1    1    2    0    0 -0.79162203660E+00  0.10201348688E+02  0.15683924364E+02  0.18726442907E+02  0.00000000000E+00 0.  1.
         11    1    3    3    0    0  0.46859019812E+01  0.12089146596E+01 -0.12055841570E+02  0.12990860951E+02  0.51100000000E-03 0. -1.
        -11    1    3    3    0    0  0.20530592803E+02  0.13268146474E+02 -0.38630523892E+01  0.24748174189E+02  0.51100000000E-03 0.  1.
         12    1    3    3    0    0 -0.24424872747E+02 -0.24678409821E+02  0.23496959502E+00  0.34722521952E+02  0.00000000000E+00 0. -1.
</event>
<event>
 7    1  0.2655561E-013  0.7246159E+02  0.7816164E-02  0.1226708E+00
        -11   -1    0    0    0    0  0.00000000000E+00  0.00000000000E+00  0.45593999997E+02  0.45594000000E+02  0.51100000000E-03 0. -1.
         11   -1    0    0    0    0 -0.00000000000E+00 -0.00000000000E+00 -0.45593999997E+02  0.45594000000E+02  0.51100000000E-03 0.  1.
    9900012    2    1    2    0    0  0.20337914470E+01 -0.59727517797E+01  0.17631463905E+02  0.72461585744E+02  0.70000020125E+02 0.  0.
        -12    1    1    2    0    0 -0.20337914470E+01  0.59727517797E+01 -0.17631463905E+02  0.18726414256E+02  0.00000000000E+00 0.  1.
         11    1    3    3    0    0  0.57256445806E+01 -0.31226363666E+02  0.19335932343E+02  0.37171858623E+02  0.51100000000E-03 0. -1.
        -11    1    3    3    0    0 -0.19301651679E+01 -0.43840645328E+01  0.23301914250E+01  0.53268519542E+01  0.51100000000E-03 0.  1.
         12    1    3    3    0    0 -0.17616879657E+01  0.29637676419E+02 -0.40346598634E+01  0.29962875166E+02  0.00000000000E+00 0. -1.
</event>
<event>
 7    1  0.2655561E-013  0.7246164E+02  0.7816164E-02  0.1226708E+00
        -11   -1    0    0    0    0  0.00000000000E+00  0.00000000000E+00  0.45593999997E+02  0.45594000000E+02  0.51100000000E-03 0. -1.
         11   -1    0    0    0    0 -0.00000000000E+00 -0.00000000000E+00 -0.45593999997E+02  0.45594000000E+02  0.51100000000E-03 0.  1.
    9900012    2    1    2    0    0  0.37982330219E+01  0.78982907371E+01  0.16548929872E+02  0.72461637551E+02  0.70000087614E+02 0.  0.
        -12    1    1    2    0    0 -0.37982330219E+01 -0.78982907371E+01 -0.16548929872E+02  0.18726362449E+02  0.00000000000E+00 0.  1.
         11    1    3    3    0    0  0.31378142614E+02  0.84749063978E+01  0.11879534645E+02  0.34605421772E+02  0.51100000000E-03 0. -1.
        -11    1    3    3    0    0 -0.78211223736E+01  0.86326882539E+01  0.10069609864E+02  0.15397737001E+02  0.51100000000E-03 0.  1.
        -12    1    3    3    0    0 -0.19758787219E+02 -0.92093039146E+01 -0.54002146362E+01  0.22458478779E+02  0.00000000000E+00 0.  1.
</event>
<event>
 7    1  0.2655561E-013  0.7246162E+02  0.7816164E-02  0.1226708E+00
        -11   -1    0    0    0    0  0.00000000000E+00  0.00000000000E+00  0.45593999997E+02  0.45594000000E+02  0.51100000000E-03 0. -1.
         11   -1    0    0    0    0 -0.00000000000E+00 -0.00000000000E+00 -0.45593999997E+02  0.45594000000E+02  0.51100000000E-03 0.  1.
    9900012    2    1    2    0    0  0.15788929196E+02 -0.76673520486E+01  0.65267825663E+01  0.72461615852E+02  0.70000059347E+02 0.  0.
        -12    1    1    2    0    0 -0.15788929196E+02  0.76673520486E+01 -0.65267825663E+01  0.18726384148E+02  0.00000000000E+00 0.  1.
         11    1    3    3    0    0 -0.92268619182E+01  0.15989044267E+02  0.20589730560E+02  0.27653598722E+02  0.51100000000E-03 0. -1.
        -11    1    3    3    0    0 -0.14243765945E+00  0.35552372224E+01 -0.58535251513E+01  0.68500917623E+01  0.51100000000E-03 0.  1.
        -12    1    3    3    0    0  0.25158228773E+02 -0.27211633538E+02 -0.82094228429E+01  0.37957925368E+02  0.00000000000E+00 0.  1.
</event>
<event>
 7    1  0.2655561E-013  0.7246155E+02  0.7816164E-02  0.1226708E+00
        -11   -1    0    0    0    0  0.00000000000E+00  0.00000000000E+00  0.45593999997E+02  0.45594000000E+02  0.51100000000E-03 0.  1.
         11   -1    0    0    0    0 -0.00000000000E+00 -0.00000000000E+00 -0.45593999997E+02  0.45594000000E+02  0.51100000000E-03 0. -1.
    9900012    2    1    2    0    0  0.35234142008E+01 -0.78429258115E+01 -0.16635927505E+02  0.72461547670E+02  0.69999970527E+02 0.  0.
        -12    1    1    2    0    0 -0.35234142008E+01  0.78429258115E+01  0.16635927505E+02  0.18726452330E+02  0.00000000000E+00 0.  1.
         11    1    3    3    0    0  0.18497277056E+02  0.11369188348E+02 -0.10178024417E+02  0.23979155187E+02  0.51100000000E-03 0. -1.
        -11    1    3    3    0    0  0.93653493631E+01 -0.27612874895E+01 -0.14991475323E+02  0.17890746489E+02  0.51100000000E-03 0.  1.
        -12    1    3    3    0    0 -0.24339212218E+02 -0.16450826670E+02  0.85335722357E+01  0.30591645994E+02  0.00000000000E+00 0.  1.
</event>
<event>
 7    1  0.2655561E-013  0.7246174E+02  0.7816164E-02  0.1226708E+00
        -11   -1    0    0    0    0  0.00000000000E+00  0.00000000000E+00  0.45593999997E+02  0.45594000000E+02  0.51100000000E-03 0.  1.
         11   -1    0    0    0    0 -0.00000000000E+00 -0.00000000000E+00 -0.45593999997E+02  0.45594000000E+02  0.51100000000E-03 0. -1.
    9900012    2    1    2    0    0 -0.11734123138E+02 -0.56981211607E+01 -0.13435569520E+02  0.72461741460E+02  0.70000222975E+02 0.  0.
        -12    1    1    2    0    0  0.11734123138E+02  0.56981211607E+01  0.13435569520E+02  0.18726258540E+02  0.00000000000E+00 0.  1.
         11    1    3    3    0    0  0.26887682241E+01  0.14370816344E+02 -0.60625943186E+01  0.15827346180E+02  0.51100000000E-03 0. -1.
        -11    1    3    3    0    0  0.30338193471E+00  0.16601652689E+02 -0.13246016117E+01  0.16657175099E+02  0.51100000000E-03 0.  1.
         12    1    3    3    0    0 -0.14726273297E+02 -0.36670590193E+02 -0.60483735893E+01  0.39977220181E+02  0.00000000000E+00 0. -1.
</event>
<event>
 7    1  0.2655561E-013  0.7246171E+02  0.7816164E-02  0.1226708E+00
        -11   -1    0    0    0    0  0.00000000000E+00  0.00000000000E+00  0.45593999997E+02  0.45594000000E+02  0.51100000000E-03 0. -1.
         11   -1    0    0    0    0 -0.00000000000E+00 -0.00000000000E+00 -0.45593999997E+02  0.45594000000E+02  0.51100000000E-03 0.  1.
    9900012    2    1    2    0    0 -0.55334367205E+01 -0.16674586267E+02 -0.64817453380E+01  0.72461714417E+02  0.70000187746E+02 0.  0.
        -12    1    1    2    0    0  0.55334367205E+01  0.16674586267E+02  0.64817453380E+01  0.18726285583E+02  0.00000000000E+00 0.  1.
         11    1    3    3    0    0 -0.26856992252E+02  0.44525116868E+01 -0.32304026452E+00  0.27225488947E+02  0.51100000000E-03 0. -1.
        -11    1    3    3    0    0  0.10856588712E+00 -0.89338833926E+01  0.11859693629E+02  0.14848514816E+02  0.51100000000E-03 0.  1.
        -12    1    3    3    0    0  0.21214989644E+02 -0.12193214561E+02 -0.18018398702E+02  0.30387710653E+02  0.00000000000E+00 0.  1.
</event>
<event>
 7    1  0.2655561E-013  0.7246159E+02  0.7816164E-02  0.1226708E+00
        -11   -1    0    0    0    0  0.00000000000E+00  0.00000000000E+00  0.45593999997E+02  0.45594000000E+02  0.51100000000E-03 0. -1.
         11   -1    0    0    0    0 -0.00000000000E+00 -0.00000000000E+00 -0.45593999997E+02  0.45594000000E+02  0.51100000000E-03 0.  1.
    9900012    2    1    2    0    0 -0.62381481625E+01  0.12752169385E+02  0.12212546862E+02  0.72461585036E+02  0.70000019204E+02 0.  0.
        -12    1    1    2    0    0  0.62381481625E+01 -0.12752169385E+02 -0.12212546862E+02  0.18726414964E+02  0.00000000000E+00 0.  1.
         11    1    3    3    0    0 -0.13337640463E+02  0.36765535619E+02  0.62230412097E+01  0.39602064399E+02  0.51100000000E-03 0. -1.
        -11    1    3    3    0    0 -0.30463252835E+01  0.23685631916E+01  0.18947519707E+01  0.42988689928E+01  0.51100000000E-03 0.  1.
        -12    1    3    3    0    0  0.10145817584E+02 -0.26381929426E+02  0.40947536814E+01  0.28560651645E+02  0.00000000000E+00 0.  1.
</event>
<event>
 7    1  0.2709410E-013  0.7246155E+02  0.7816164E-02  0.1226708E+00
        -11   -1    0    0    0    0  0.00000000000E+00  0.00000000000E+00  0.45593999997E+02  0.45594000000E+02  0.51100000000E-03 0.  1.
         11   -1    0    0    0    0 -0.00000000000E+00 -0.00000000000E+00 -0.45593999997E+02  0.45594000000E+02  0.51100000000E-03 0. -1.
    9900012    2    1    2    0    0 -0.92251736371E+01  0.16290343493E+02 -0.44827376069E+00  0.72461546275E+02  0.69999968710E+02 0.  0.
        -12    1    1    2    0    0  0.92251736371E+01 -0.16290343493E+02  0.44827376069E+00  0.18726453725E+02  0.00000000000E+00 0.  1.
         11    1    3    3    0    0 -0.59885502010E+01  0.26783705191E+02 -0.15874733029E+02  0.31705468712E+02  0.51100000000E-03 0. -1.
        -11    1    3    3    0    0  0.36863630896E+01  0.12410342951E+02  0.14025304532E+01  0.13022018926E+02  0.51100000000E-03 0.  1.
        -12    1    3    3    0    0 -0.69229865257E+01 -0.22903704649E+02  0.14023928815E+02  0.27734058637E+02  0.00000000000E+00 0.  1.
</event>
<event>
 7    1  0.2655561E-013  0.7246156E+02  0.7816164E-02  0.1226708E+00
        -11   -1    0    0    0    0  0.00000000000E+00  0.00000000000E+00  0.45593999997E+02  0.45594000000E+02  0.51100000000E-03 0.  1.
         11   -1    0    0    0    0 -0.00000000000E+00 -0.00000000000E+00 -0.45593999997E+02  0.45594000000E+02  0.51100000000E-03 0. -1.
    9900012    2    1    2    0    0  0.28450022194E+00  0.18320055555E+02 -0.38696307540E+01  0.72461563658E+02  0.69999991355E+02 0.  0.
        -12    1    1    2    0    0 -0.28450022194E+00 -0.18320055555E+02  0.38696307540E+01  0.18726436342E+02  0.00000000000E+00 0.  1.
         11    1    3    3    0    0  0.14957673347E+02  0.32833887202E+02 -0.29531083466E+01  0.36201063381E+02  0.51100000000E-03 0. -1.
        -11    1    3    3    0    0  0.60630555057E+01  0.49163074313E+01 -0.76460568666E+00  0.78431717399E+01  0.51100000000E-03 0.  1.
        -12    1    3    3    0    0 -0.20736228631E+02 -0.19430139079E+02 -0.15191672068E+00  0.28417328537E+02  0.00000000000E+00 0.  1.
</event>
<event>
 7    1  0.2655561E-013  0.7246143E+02  0.7816164E-02  0.1226708E+00
        -11   -1    0    0    0    0  0.00000000000E+00  0.00000000000E+00  0.45593999997E+02  0.45594000000E+02  0.51100000000E-03 0.  1.
         11   -1    0    0    0    0 -0.00000000000E+00 -0.00000000000E+00 -0.45593999997E+02  0.45594000000E+02  0.51100000000E-03 0. -1.
    9900012    2    1    2    0    0 -0.16421787441E+01  0.17845898422E+02 -0.54324670364E+01  0.72461426912E+02  0.69999813217E+02 0.  0.
        -12    1    1    2    0    0  0.16421787441E+01 -0.17845898422E+02  0.54324670364E+01  0.18726573088E+02  0.00000000000E+00 0.  1.
         11    1    3    3    0    0 -0.27712744681E+01  0.22659258498E+01  0.30433722915E+00  0.35926318409E+01  0.51100000000E-03 0. -1.
        -11    1    3    3    0    0 -0.30431737572E+02  0.18631913855E+02  0.34708988274E+01  0.35850885686E+02  0.51100000000E-03 0.  1.
         12    1    3    3    0    0  0.31560833296E+02 -0.30519412826E+01 -0.92077030930E+01  0.33017909385E+02  0.00000000000E+00 0. -1.
</event>
<event>
 7    1  0.2655561E-013  0.7246156E+02  0.7816164E-02  0.1226708E+00
        -11   -1    0    0    0    0  0.00000000000E+00  0.00000000000E+00  0.45593999997E+02  0.45594000000E+02  0.51100000000E-03 0. -1.
         11   -1    0    0    0    0 -0.00000000000E+00 -0.00000000000E+00 -0.45593999997E+02  0.45594000000E+02  0.51100000000E-03 0.  1.
    9900012    2    1    2    0    0  0.88850853545E+01  0.18490514353E+01  0.16380343175E+02  0.72461564795E+02  0.69999992836E+02 0.  0.
        -12    1    1    2    0    0 -0.88850853545E+01 -0.18490514353E+01 -0.16380343175E+02  0.18726435205E+02  0.00000000000E+00 0.  1.
         11    1    3    3    0    0  0.16023591716E+02 -0.97062080217E+01  0.48034497230E+00  0.18740242720E+02  0.51100000000E-03 0. -1.
        -11    1    3    3    0    0  0.11475294821E+02 -0.78219930076E+01  0.22141828568E+02  0.26136689508E+02  0.51100000000E-03 0.  1.
        -12    1    3    3    0    0 -0.18613801183E+02  0.19377252465E+02 -0.62418303651E+01  0.27584632567E+02  0.00000000000E+00 0.  1.
</event>
<event>
 7    1  0.2655561E-013  0.7246150E+02  0.7816164E-02  0.1226708E+00
        -11   -1    0    0    0    0  0.00000000000E+00  0.00000000000E+00  0.45593999997E+02  0.45594000000E+02  0.51100000000E-03 0.  1.
         11   -1    0    0    0    0 -0.00000000000E+00 -0.00000000000E+00 -0.45593999997E+02  0.45594000000E+02  0.51100000000E-03 0. -1.
    9900012    2    1    2    0    0  0.20458851080E+01  0.15627734076E+02 -0.10112859297E+02  0.72461504295E+02  0.69999914023E+02 0.  0.
        -12    1    1    2    0    0 -0.20458851080E+01 -0.15627734076E+02  0.10112859297E+02  0.18726495705E+02  0.00000000000E+00 0.  1.
         11    1    3    3    0    0 -0.10695865033E+02  0.63526580905E+01  0.93954179400E+01  0.15589473119E+02  0.51100000000E-03 0. -1.
        -11    1    3    3    0    0  0.63271208975E+01 -0.67418481006E+01  0.15383067804E+02  0.17947806272E+02  0.51100000000E-03 0.  1.
         12    1    3    3    0    0  0.64146292432E+01  0.16016924086E+02 -0.34891345041E+02  0.38924224903E+02  0.00000000000E+00 0. -1.
</event>
<event>
 7    1  0.2655561E-013  0.7246155E+02  0.7816164E-02  0.1226708E+00
        -11   -1    0    0    0    0  0.00000000000E+00  0.00000000000E+00  0.45593999997E+02  0.45594000000E+02  0.51100000000E-03 0.  1.
         11   -1    0    0    0    0 -0.00000000000E+00 -0.00000000000E+00 -0.45593999997E+02  0.45594000000E+02  0.51100000000E-03 0. -1.
    9900012    2    1    2    0    0  0.18147942326E+02  0.45883053413E+01 -0.52859264444E+00  0.72461554348E+02  0.69999979227E+02 0.  0.
        -12    1    1    2    0    0 -0.18147942326E+02 -0.45883053413E+01  0.52859264444E+00  0.18726445652E+02  0.00000000000E+00 0.  1.
         11    1    3    3    0    0 -0.10173948441E+01 -0.21813005080E+02 -0.18502882792E+02  0.28621651852E+02  0.51100000000E-03 0. -1.
        -11    1    3    3    0    0  0.35385764250E+01  0.14201639099E+01 -0.51328004424E+01  0.63940620336E+01  0.51100000000E-03 0.  1.
        -12    1    3    3    0    0  0.15626760745E+02  0.24981146511E+02  0.23107090590E+02  0.37445840462E+02  0.00000000000E+00 0.  1.
</event>
<event>
 7    1  0.2655561E-013  0.7246159E+02  0.7816164E-02  0.1226708E+00
        -11   -1    0    0    0    0  0.00000000000E+00  0.00000000000E+00  0.45593999997E+02  0.45594000000E+02  0.51100000000E-03 0.  1.
         11   -1    0    0    0    0 -0.00000000000E+00 -0.00000000000E+00 -0.45593999997E+02  0.45594000000E+02  0.51100000000E-03 0. -1.
    9900012    2    1    2    0    0 -0.11473884623E+02  0.71967080073E+01 -0.12931962787E+02  0.72461593617E+02  0.70000030383E+02 0.  0.
        -12    1    1    2    0    0  0.11473884623E+02 -0.71967080073E+01  0.12931962787E+02  0.18726406383E+02  0.00000000000E+00 0.  1.
         11    1    3    3    0    0 -0.32553312685E+02  0.19633549263E+01 -0.15402977229E+02  0.36066946601E+02  0.51100000000E-03 0. -1.
        -11    1    3    3    0    0 -0.43550489714E+01  0.83935402381E+01  0.48990980041E+01  0.10649841820E+02  0.51100000000E-03 0.  1.
         12    1    3    3    0    0  0.25434477033E+02 -0.31601871570E+01 -0.24280835622E+01  0.25744805197E+02  0.00000000000E+00 0. -1.
</event>
<event>
 7    1  0.2655561E-013  0.7246137E+02  0.7816164E-02  0.1226709E+00
        -11   -1    0    0    0    0  0.00000000000E+00  0.00000000000E+00  0.45593999997E+02  0.45594000000E+02  0.51100000000E-03 0. -1.
         11   -1    0    0    0    0 -0.00000000000E+00 -0.00000000000E+00 -0.45593999997E+02  0.45594000000E+02  0.51100000000E-03 0.  1.
    9900012    2    1    2    0    0 -0.13305271739E+02  0.10913207008E+02 -0.73863721827E+01  0.72461365565E+02  0.69999733301E+02 0.  0.
        -12    1    1    2    0    0  0.13305271739E+02 -0.10913207008E+02  0.73863721827E+01  0.18726634435E+02  0.00000000000E+00 0.  1.
         11    1    3    3    0    0 -0.14579406441E+02 -0.11512750163E+02 -0.13430119750E+00  0.18577420315E+02  0.51100000000E-03 0. -1.
        -11    1    3    3    0    0 -0.12436704353E+02 -0.85200180096E+01  0.76455343848E+01  0.16903151136E+02  0.51100000000E-03 0.  1.
         12    1    3    3    0    0  0.13710839055E+02  0.30945975181E+02 -0.14897605370E+02  0.36980794113E+02  0.00000000000E+00 0. -1.
</event>
<event>
 7    1  0.2655561E-013  0.7246156E+02  0.7816164E-02  0.1226708E+00
        -11   -1    0    0    0    0  0.00000000000E+00  0.00000000000E+00  0.45593999997E+02  0.45594000000E+02  0.51100000000E-03 0.  1.
         11   -1    0    0    0    0 -0.00000000000E+00 -0.00000000000E+00 -0.45593999997E+02  0.45594000000E+02  0.51100000000E-03 0. -1.
    9900012    2    1    2    0    0 -0.16047727699E+02 -0.15376155001E+01 -0.95281591932E+01  0.72461557644E+02  0.69999983520E+02 0.  0.
        -12    1    1    2    0    0  0.16047727699E+02  0.15376155001E+01  0.95281591932E+01  0.18726442356E+02  0.00000000000E+00 0.  1.
         11    1    3    3    0    0 -0.21186701993E+02  0.39677585297E+01 -0.20755891032E+02  0.29923677279E+02  0.51100000000E-03 0. -1.
        -11    1    3    3    0    0  0.16948913076E+01  0.14309293478E+02  0.16340674358E+02  0.21786375906E+02  0.51100000000E-03 0.  1.
         12    1    3    3    0    0  0.34440829867E+01 -0.19814667508E+02 -0.51129425191E+01  0.20751504458E+02  0.00000000000E+00 0. -1.
</event>
<event>
 7    1  0.3034647E-013  0.7246233E+02  0.7816164E-02  0.1226706E+00
        -11   -1    0    0    0    0  0.00000000000E+00  0.00000000000E+00  0.45593999997E+02  0.45594000000E+02  0.51100000000E-03 0.  1.
         11   -1    0    0    0    0 -0.00000000000E+00 -0.00000000000E+00 -0.45593999997E+02  0.45594000000E+02  0.51100000000E-03 0. -1.
    9900012    2    1    2    0    0 -0.16996290424E+02 -0.36846013390E+01 -0.69426552208E+01  0.72462332143E+02  0.70000992442E+02 0.  0.
        -12    1    1    2    0    0  0.16996290424E+02  0.36846013390E+01  0.69426552208E+01  0.18725667857E+02  0.00000000000E+00 0.  1.
         11    1    3    3    0    0 -0.23220974419E+02  0.16025467047E+02 -0.82600904537E+01  0.29398271065E+02  0.51100000000E-03 0. -1.
        -11    1    3    3    0    0 -0.47422492871E+01  0.26656996500E+01  0.14060302794E+02  0.15076040523E+02  0.51100000000E-03 0.  1.
        -12    1    3    3    0    0  0.10966933283E+02 -0.22375768036E+02 -0.12742867561E+02  0.27988020554E+02  0.00000000000E+00 0.  1.
</event>
<event>
 7    1  0.2655561E-013  0.7246159E+02  0.7816164E-02  0.1226708E+00
        -11   -1    0    0    0    0  0.00000000000E+00  0.00000000000E+00  0.45593999997E+02  0.45594000000E+02  0.51100000000E-03 0.  1.
         11   -1    0    0    0    0 -0.00000000000E+00 -0.00000000000E+00 -0.45593999997E+02  0.45594000000E+02  0.51100000000E-03 0. -1.
    9900012    2    1    2    0    0 -0.10662887338E+02  0.88592812747E+01 -0.12589453768E+02  0.72461591448E+02  0.70000027556E+02 0.  0.
        -12    1    1    2    0    0  0.10662887338E+02 -0.88592812747E+01  0.12589453768E+02  0.18726408552E+02  0.00000000000E+00 0.  1.
         11    1    3    3    0    0 -0.11339350652E+02  0.25330405003E+01  0.93669489961E+01  0.14924372722E+02  0.51100000000E-03 0. -1.
        -11    1    3    3    0    0 -0.20415009668E+02 -0.39300933930E+01  0.54237032779E+01  0.21485688523E+02  0.51100000000E-03 0.  1.
         12    1    3    3    0    0  0.21091472981E+02  0.10256334167E+02 -0.27380106042E+02  0.36051530203E+02  0.00000000000E+00 0. -1.
</event>
<event>
 7    1  0.2655561E-013  0.7246149E+02  0.7816164E-02  0.1226708E+00
        -11   -1    0    0    0    0  0.00000000000E+00  0.00000000000E+00  0.45593999997E+02  0.45594000000E+02  0.51100000000E-03 0.  1.
         11   -1    0    0    0    0 -0.00000000000E+00 -0.00000000000E+00 -0.45593999997E+02  0.45594000000E+02  0.51100000000E-03 0. -1.
    9900012    2    1    2    0    0  0.86827266020E+01 -0.16530196220E+02  0.14300106286E+01  0.72461493152E+02  0.69999899508E+02 0.  0.
        -12    1    1    2    0    0 -0.86827266020E+01  0.16530196220E+02 -0.14300106286E+01  0.18726506848E+02  0.00000000000E+00 0.  1.
         11    1    3    3    0    0 -0.82855845385E+01 -0.40065849029E+01 -0.11298616476E+01  0.92725520399E+01  0.51100000000E-03 0. -1.
        -11    1    3    3    0    0 -0.55640514523E+01  0.10074700618E+02 -0.20710384881E+02  0.23693423208E+02  0.51100000000E-03 0.  1.
         12    1    3    3    0    0  0.22532362593E+02 -0.22598311936E+02  0.23270257158E+02  0.39495517904E+02  0.00000000000E+00 0. -1.
</event>
<event>
 7    1  0.2655561E-013  0.7246158E+02  0.7816164E-02  0.1226708E+00
        -11   -1    0    0    0    0  0.00000000000E+00  0.00000000000E+00  0.45593999997E+02  0.45594000000E+02  0.51100000000E-03 0. -1.
         11   -1    0    0    0    0 -0.00000000000E+00 -0.00000000000E+00 -0.45593999997E+02  0.45594000000E+02  0.51100000000E-03 0.  1.
    9900012    2    1    2    0    0  0.12838735542E+02  0.69393938602E+01  0.11734163143E+02  0.72461577434E+02  0.70000009300E+02 0.  0.
        -12    1    1    2    0    0 -0.12838735542E+02 -0.69393938602E+01 -0.11734163143E+02  0.18726422566E+02  0.00000000000E+00 0.  1.
         11    1    3    3    0    0  0.20606312530E+02 -0.65534750317E+01 -0.74886459148E+01  0.22883355720E+02  0.51100000000E-03 0. -1.
        -11    1    3    3    0    0  0.11556127233E+02 -0.82614601330E+01  0.14134222990E+02  0.20039262959E+02  0.51100000000E-03 0.  1.
        -12    1    3    3    0    0 -0.19323704221E+02  0.21754329025E+02  0.50885860679E+01  0.29538958755E+02  0.00000000000E+00 0.  1.
</event>
<event>
 7    1  0.2655561E-013  0.7246155E+02  0.7816164E-02  0.1226708E+00
        -11   -1    0    0    0    0  0.00000000000E+00  0.00000000000E+00  0.45593999997E+02  0.45594000000E+02  0.51100000000E-03 0.  1.
         11   -1    0    0    0    0 -0.00000000000E+00 -0.00000000000E+00 -0.45593999997E+02  0.45594000000E+02  0.51100000000E-03 0. -1.
    9900012    2    1    2    0    0 -0.15088773942E+01 -0.18654575842E+02 -0.64022246126E+00  0.72461553577E+02  0.69999978222E+02 0.  0.
        -12    1    1    2    0    0  0.15088773942E+01  0.18654575842E+02  0.64022246126E+00  0.18726446423E+02  0.00000000000E+00 0.  1.
         11    1    3    3    0    0  0.63595938631E+00 -0.41198309101E+02  0.13705783585E+01  0.41226006384E+02  0.51100000000E-03 0. -1.
        -11    1    3    3    0    0  0.13955988315E+01  0.20816807249E+01  0.78549232831E+01  0.82450537162E+01  0.51100000000E-03 0.  1.
        -12    1    3    3    0    0 -0.35404356121E+01  0.20462052534E+02 -0.98657241028E+01  0.22990493476E+02  0.00000000000E+00 0.  1.
</event>
<event>
 7    1  0.2655561E-013  0.7246159E+02  0.7816164E-02  0.1226708E+00
        -11   -1    0    0    0    0  0.00000000000E+00  0.00000000000E+00  0.45593999997E+02  0.45594000000E+02  0.51100000000E-03 0. -1.
         11   -1    0    0    0    0 -0.00000000000E+00 -0.00000000000E+00 -0.45593999997E+02  0.45594000000E+02  0.51100000000E-03 0.  1.
    9900012    2    1    2    0    0 -0.10767426054E+01 -0.14014717216E+02  0.12373632274E+02  0.72461589534E+02  0.70000025064E+02 0.  0.
        -12    1    1    2    0    0  0.10767426054E+01  0.14014717216E+02 -0.12373632274E+02  0.18726410466E+02  0.00000000000E+00 0.  1.
         11    1    3    3    0    0 -0.65887994978E+01 -0.91053577270E+01  0.81362507658E+01  0.13875099817E+02  0.51100000000E-03 0. -1.
        -11    1    3    3    0    0  0.31406901044E+02 -0.75661556103E+01  0.40219436088E+01  0.32554817993E+02  0.51100000000E-03 0.  1.
         12    1    3    3    0    0 -0.25894844151E+02  0.26567961218E+01  0.21543789989E+00  0.26031671724E+02  0.00000000000E+00 0. -1.
</event>
<event>
 7    1  0.2655561E-013  0.7246160E+02  0.7816164E-02  0.1226708E+00
        -11   -1    0    0    0    0  0.00000000000E+00  0.00000000000E+00  0.45593999997E+02  0.45594000000E+02  0.51100000000E-03 0.  1.
         11   -1    0    0    0    0 -0.00000000000E+00 -0.00000000000E+00 -0.45593999997E+02  0.45594000000E+02  0.51100000000E-03 0. -1.
    9900012    2    1    2    0    0  0.40262285439E+01 -0.18282426727E+02 -0.46928952288E+00  0.72461604832E+02  0.70000044992E+02 0.  0.
        -12    1    1    2    0    0 -0.40262285439E+01  0.18282426727E+02  0.46928952288E+00  0.18726395168E+02  0.00000000000E+00 0.  1.
         11    1    3    3    0    0  0.11629094168E+02 -0.38767600423E+02 -0.82316218317E+01  0.41302811913E+02  0.51100000000E-03 0. -1.
        -11    1    3    3    0    0 -0.71578015628E+01 -0.21772952148E+01  0.13505089124E+01  0.76025398551E+01  0.51100000000E-03 0.  1.
        -12    1    3    3    0    0 -0.44506406108E+00  0.22662468910E+02  0.64118233964E+01  0.23556253064E+02  0.00000000000E+00 0.  1.
</event>
<event>
 7    1  0.2655561E-013  0.7246156E+02  0.7816164E-02  0.1226708E+00
        -11   -1    0    0    0    0  0.00000000000E+00  0.00000000000E+00  0.45593999997E+02  0.45594000000E+02  0.51100000000E-03 0.  1.
         11   -1    0    0    0    0 -0.00000000000E+00 -0.00000000000E+00 -0.45593999997E+02  0.45594000000E+02  0.51100000000E-03 0. -1.
    9900012    2    1    2    0    0 -0.13997890517E+02 -0.51907637861E+01 -0.11304625216E+02  0.72461560966E+02  0.69999987849E+02 0.  0.
        -12    1    1    2    0    0  0.13997890517E+02  0.51907637861E+01  0.11304625216E+02  0.18726439034E+02  0.00000000000E+00 0.  1.
         11    1    3    3    0    0 -0.19587002356E+02 -0.18178479181E+01  0.52870804015E+01  0.20369301701E+02  0.51100000000E-03 0. -1.
        -11    1    3    3    0    0 -0.15885072189E+01 -0.25655671628E+02 -0.59909910061E+01  0.26393726819E+02  0.51100000000E-03 0.  1.
         12    1    3    3    0    0  0.71776190587E+01  0.22282755760E+02 -0.10600714612E+02  0.25698532446E+02  0.00000000000E+00 0. -1.
</event>
<event>
 7    1  0.2655561E-013  0.7246157E+02  0.7816164E-02  0.1226708E+00
        -11   -1    0    0    0    0  0.00000000000E+00  0.00000000000E+00  0.45593999997E+02  0.45594000000E+02  0.51100000000E-03 0. -1.
         11   -1    0    0    0    0 -0.00000000000E+00 -0.00000000000E+00 -0.45593999997E+02  0.45594000000E+02  0.51100000000E-03 0.  1.
    9900012    2    1    2    0    0  0.82168464468E+01 -0.22351336358E+01 -0.16678333281E+02  0.72461569776E+02  0.69999999325E+02 0.  0.
        -12    1    1    2    0    0 -0.82168464468E+01  0.22351336358E+01  0.16678333281E+02  0.18726430224E+02  0.00000000000E+00 0.  1.
         11    1    3    3    0    0  0.40159223272E+01  0.69045090609E+01  0.18762273370E+02  0.20391733124E+02  0.51100000000E-03 0. -1.
        -11    1    3    3    0    0  0.12906250118E+02  0.89549995747E+01 -0.68615282215E+01  0.17141875023E+02  0.51100000000E-03 0.  1.
        -12    1    3    3    0    0 -0.87053259984E+01 -0.18094642271E+02 -0.28579078430E+02  0.34927961629E+02  0.00000000000E+00 0.  1.
</event>
<event>
 7    1  0.2655561E-013  0.7246157E+02  0.7816164E-02  0.1226708E+00
        -11   -1    0    0    0    0  0.00000000000E+00  0.00000000000E+00  0.45593999997E+02  0.45594000000E+02  0.51100000000E-03 0.  1.
         11   -1    0    0    0    0 -0.00000000000E+00 -0.00000000000E+00 -0.45593999997E+02  0.45594000000E+02  0.51100000000E-03 0. -1.
    9900012    2    1    2    0    0  0.18714311251E+02 -0.61777747560E+00 -0.26858751505E+00  0.72461568576E+02  0.69999997762E+02 0.  0.
        -12    1    1    2    0    0 -0.18714311251E+02  0.61777747560E+00  0.26858751505E+00  0.18726431424E+02  0.00000000000E+00 0.  1.
         11    1    3    3    0    0 -0.47688204355E+01 -0.19985622870E+01  0.82184212611E+01  0.97097037981E+01  0.51100000000E-03 0. -1.
        -11    1    3    3    0    0 -0.41882188874E+01 -0.80099695079E+01  0.19996814892E+02  0.21944780588E+02  0.51100000000E-03 0.  1.
         12    1    3    3    0    0  0.27671350574E+02  0.93907543193E+01 -0.28483823669E+02  0.40807084190E+02  0.00000000000E+00 0. -1.
</event>
<event>
 7    1  0.2655561E-013  0.7246163E+02  0.7816164E-02  0.1226708E+00
        -11   -1    0    0    0    0  0.00000000000E+00  0.00000000000E+00  0.45593999997E+02  0.45594000000E+02  0.51100000000E-03 0. -1.
         11   -1    0    0    0    0 -0.00000000000E+00 -0.00000000000E+00 -0.45593999997E+02  0.45594000000E+02  0.51100000000E-03 0.  1.
    9900012    2    1    2    0    0 -0.43120475471E+01 -0.15466826607E+02  0.96364067641E+01  0.72461633170E+02  0.70000081907E+02 0.  0.
        -12    1    1    2    0    0  0.43120475471E+01  0.15466826607E+02 -0.96364067641E+01  0.18726366830E+02  0.00000000000E+00 0.  1.
         11    1    3    3    0    0 -0.34966691785E+01 -0.84633164823E+00  0.21425991532E+00  0.36040089033E+01  0.51100000000E-03 0. -1.
        -11    1    3    3    0    0 -0.18832782438E+02 -0.15945435045E+02 -0.21707411114E+02  0.32865518262E+02  0.51100000000E-03 0.  1.
         12    1    3    3    0    0  0.18017404069E+02  0.13249400860E+01  0.31129557963E+02  0.35992106004E+02  0.00000000000E+00 0. -1.
</event>
<event>
 7    1  0.2655561E-013  0.7246203E+02  0.7816164E-02  0.1226707E+00
        -11   -1    0    0    0    0  0.00000000000E+00  0.00000000000E+00  0.45593999997E+02  0.45594000000E+02  0.51100000000E-03 0.  1.
         11   -1    0    0    0    0 -0.00000000000E+00 -0.00000000000E+00 -0.45593999997E+02  0.45594000000E+02  0.51100000000E-03 0. -1.
    9900012    2    1    2    0    0 -0.33676211054E+01  0.12817671439E+02 -0.13229832814E+02  0.72462027414E+02  0.70000595480E+02 0.  0.
        -12    1    1    2    0    0  0.33676211054E+01 -0.12817671439E+02  0.13229832814E+02  0.18725972586E+02  0.00000000000E+00 0.  1.
         11    1    3    3    0    0 -0.10973307665E+02  0.25827141642E+02 -0.18854050102E+00  0.28062257113E+02  0.51100000000E-03 0. -1.
        -11    1    3    3    0    0  0.85547063960E+01  0.11498583589E+02 -0.13752802116E+02  0.19863030795E+02  0.51100000000E-03 0.  1.
        -12    1    3    3    0    0 -0.94901983607E+00 -0.24508053792E+02  0.71150980283E+00  0.24536739505E+02  0.00000000000E+00 0.  1.
</event>
<event>
 7    1  0.2655561E-013  0.7246152E+02  0.7816164E-02  0.1226708E+00
        -11   -1    0    0    0    0  0.00000000000E+00  0.00000000000E+00  0.45593999997E+02  0.45594000000E+02  0.51100000000E-03 0.  1.
         11   -1    0    0    0    0 -0.00000000000E+00 -0.00000000000E+00 -0.45593999997E+02  0.45594000000E+02  0.51100000000E-03 0. -1.
    9900012    2    1    2    0    0  0.49844841854E+01  0.14721521818E+02 -0.10445700050E+02  0.72461523108E+02  0.69999938532E+02 0.  0.
        -12    1    1    2    0    0 -0.49844841854E+01 -0.14721521818E+02  0.10445700050E+02  0.18726476892E+02  0.00000000000E+00 0.  1.
         11    1    3    3    0    0  0.22702156704E+02  0.12010678984E+02 -0.26173436629E+02  0.36670057457E+02  0.51100000000E-03 0. -1.
        -11    1    3    3    0    0 -0.42802048751E+01 -0.48919925972E+01 -0.61939040632E+01  0.89786520786E+01  0.51100000000E-03 0.  1.
        -12    1    3    3    0    0 -0.13437467643E+02  0.76028354309E+01  0.21921640642E+02  0.26812813573E+02  0.00000000000E+00 0.  1.
</event>
<event>
 7    1  0.2655561E-013  0.7246157E+02  0.7816164E-02  0.1226708E+00
        -11   -1    0    0    0    0  0.00000000000E+00  0.00000000000E+00  0.45593999997E+02  0.45594000000E+02  0.51100000000E-03 0.  1.
         11   -1    0    0    0    0 -0.00000000000E+00 -0.00000000000E+00 -0.45593999997E+02  0.45594000000E+02  0.51100000000E-03 0. -1.
    9900012    2    1    2    0    0  0.79841404770E+01  0.32815506236E+01 -0.16618190147E+02  0.72461566346E+02  0.69999994856E+02 0.  0.
        -12    1    1    2    0    0 -0.79841404770E+01 -0.32815506236E+01  0.16618190147E+02  0.18726433654E+02  0.00000000000E+00 0.  1.
         11    1    3    3    0    0 -0.19683846659E+01  0.13203219936E+02  0.21345969179E+01  0.13518729938E+02  0.51100000000E-03 0. -1.
        -11    1    3    3    0    0  0.19635210762E+01  0.18996368612E+02  0.60325112076E+01  0.20027696503E+02  0.51100000000E-03 0.  1.
         12    1    3    3    0    0  0.79890040667E+01 -0.28918037925E+02 -0.24785298272E+02  0.38915139905E+02  0.00000000000E+00 0. -1.
</event>
<event>
 7    1  0.2655561E-013  0.7246155E+02  0.7816164E-02  0.1226708E+00
        -11   -1    0    0    0    0  0.00000000000E+00  0.00000000000E+00  0.45593999997E+02  0.45594000000E+02  0.51100000000E-03 0. -1.
         11   -1    0    0    0    0 -0.00000000000E+00 -0.00000000000E+00 -0.45593999997E+02  0.45594000000E+02  0.51100000000E-03 0.  1.
    9900012    2    1    2    0    0 -0.51268431620E+01  0.41909680826E+01  0.17516594286E+02  0.72461553203E+02  0.69999977735E+02 0.  0.
        -12    1    1    2    0    0  0.51268431620E+01 -0.41909680826E+01 -0.17516594286E+02  0.18726446797E+02  0.00000000000E+00 0.  1.
         11    1    3    3    0    0  0.54855692816E+01  0.59482722422E+01  0.15866120474E+02  0.17810311400E+02  0.51100000000E-03 0. -1.
        -11    1    3    3    0    0 -0.24871812559E+02 -0.11047335821E+02 -0.14802299724E+02  0.30979973629E+02  0.51100000000E-03 0.  1.
         12    1    3    3    0    0  0.14259400115E+02  0.92900316610E+01  0.16452773536E+02  0.23671268173E+02  0.00000000000E+00 0. -1.
</event>
<event>
 7    1  0.2655561E-013  0.7246155E+02  0.7816164E-02  0.1226708E+00
        -11   -1    0    0    0    0  0.00000000000E+00  0.00000000000E+00  0.45593999997E+02  0.45594000000E+02  0.51100000000E-03 0.  1.
         11   -1    0    0    0    0 -0.00000000000E+00 -0.00000000000E+00 -0.45593999997E+02  0.45594000000E+02  0.51100000000E-03 0. -1.
    9900012    2    1    2    0    0  0.57207157553E+01 -0.15842390641E+02  0.81836333176E+01  0.72461553881E+02  0.69999978619E+02 0.  0.
        -12    1    1    2    0    0 -0.57207157553E+01  0.15842390641E+02 -0.81836333176E+01  0.18726446119E+02  0.00000000000E+00 0.  1.
         11    1    3    3    0    0  0.98614746084E+01 -0.11174714372E+00  0.19571127446E+01  0.10054424868E+02  0.51100000000E-03 0. -1.
        -11    1    3    3    0    0  0.22117387042E+02  0.10930490391E+02  0.28269163478E+01  0.24832355628E+02  0.51100000000E-03 0.  1.
         12    1    3    3    0    0 -0.26258145895E+02 -0.26661133888E+02  0.33996042252E+01  0.37574773385E+02  0.00000000000E+00 0. -1.
</event>
<event>
 7    1  0.2655561E-013  0.7246161E+02  0.7816164E-02  0.1226708E+00
        -11   -1    0    0    0    0  0.00000000000E+00  0.00000000000E+00  0.45593999997E+02  0.45594000000E+02  0.51100000000E-03 0.  1.
         11   -1    0    0    0    0 -0.00000000000E+00 -0.00000000000E+00 -0.45593999997E+02  0.45594000000E+02  0.51100000000E-03 0. -1.
    9900012    2    1    2    0    0 -0.63538374929E+01 -0.12863784949E+01 -0.17568481579E+02  0.72461613122E+02  0.70000055791E+02 0.  0.
        -12    1    1    2    0    0  0.63538374929E+01  0.12863784949E+01  0.17568481579E+02  0.18726386878E+02  0.00000000000E+00 0.  1.
         11    1    3    3    0    0  0.85548666806E+01 -0.57112568094E+01 -0.12943135504E+02  0.16532663283E+02  0.51100000000E-03 0. -1.
        -11    1    3    3    0    0 -0.60643180325E+01  0.28555641372E+02 -0.72949551682E+01  0.30090147533E+02  0.51100000000E-03 0.  1.
         12    1    3    3    0    0 -0.88443861410E+01 -0.24130763057E+02  0.26696090937E+01  0.25838802307E+02  0.00000000000E+00 0. -1.
</event>
<event>
 7    1  0.2655561E-013  0.7246176E+02  0.7816164E-02  0.1226708E+00
        -11   -1    0    0    0    0  0.00000000000E+00  0.00000000000E+00  0.45593999997E+02  0.45594000000E+02  0.51100000000E-03 0. -1.
         11   -1    0    0    0    0 -0.00000000000E+00 -0.00000000000E+00 -0.45593999997E+02  0.45594000000E+02  0.51100000000E-03 0.  1.
    9900012    2    1    2    0    0 -0.12812605186E+02  0.13286900273E+02  0.31571587997E+01  0.72461755791E+02  0.70000241643E+02 0.  0.
        -12    1    1    2    0    0  0.12812605186E+02 -0.13286900273E+02 -0.31571587997E+01  0.18726244209E+02  0.00000000000E+00 0.  1.
         11    1    3    3    0    0 -0.87447307719E+01  0.12686814174E+02 -0.56179662260E+01  0.16400826654E+02  0.51100000000E-03 0. -1.
        -11    1    3    3    0    0 -0.10989783118E+02  0.13033608952E+02 -0.18585759860E+02  0.25220641648E+02  0.51100000000E-03 0.  1.
         12    1    3    3    0    0  0.69219087047E+01 -0.12433522853E+02  0.27360884886E+02  0.30840287489E+02  0.00000000000E+00 0. -1.
</event>
<event>
 7    1  0.2655561E-013  0.7246150E+02  0.7816164E-02  0.1226708E+00
        -11   -1    0    0    0    0  0.00000000000E+00  0.00000000000E+00  0.45593999997E+02  0.45594000000E+02  0.51100000000E-03 0. -1.
         11   -1    0    0    0    0 -0.00000000000E+00 -0.00000000000E+00 -0.45593999997E+02  0.45594000000E+02  0.51100000000E-03 0.  1.
    9900012    2    1    2    0    0  0.58390433020E+01 -0.14550779727E+02  0.10240220026E+02  0.72461502102E+02  0.69999911167E+02 0.  0.
        -12    1    1    2    0    0 -0.58390433020E+01  0.14550779727E+02 -0.10240220026E+02  0.18726497898E+02  0.00000000000E+00 0.  1.
         11    1    3    3    0    0  0.50109098778E+01  0.81782177105E+01  0.21656110436E+02  0.23685007541E+02  0.51100000000E-03 0. -1.
        -11    1    3    3    0    0  0.18449042892E+02 -0.10664221959E+00 -0.18227648470E+01  0.18539175498E+02  0.51100000000E-03 0.  1.
        -12    1    3    3    0    0 -0.17620909468E+02 -0.22622355218E+02 -0.95931255633E+01  0.30237319063E+02  0.00000000000E+00 0.  1.
</event>
<event>
 7    1  0.2655561E-013  0.7246165E+02  0.7816164E-02  0.1226708E+00
        -11   -1    0    0    0    0  0.00000000000E+00  0.00000000000E+00  0.45593999997E+02  0.45594000000E+02  0.51100000000E-03 0. -1.
         11   -1    0    0    0    0 -0.00000000000E+00 -0.00000000000E+00 -0.45593999997E+02  0.45594000000E+02  0.51100000000E-03 0.  1.
    9900012    2    1    2    0    0 -0.77852253253E+01 -0.15078984425E+02 -0.79177526178E+01  0.72461646613E+02  0.70000099419E+02 0.  0.
        -12    1    1    2    0    0  0.77852253253E+01  0.15078984425E+02  0.79177526178E+01  0.18726353387E+02  0.00000000000E+00 0.  1.
         11    1    3    3    0    0 -0.13976533447E+02 -0.10779952102E+02 -0.17214815970E+02  0.24655643242E+02  0.51100000000E-03 0. -1.
        -11    1    3    3    0    0 -0.10929178262E+02 -0.19148383929E+02 -0.26161344785E+01  0.22202515724E+02  0.51100000000E-03 0.  1.
         12    1    3    3    0    0  0.17120486384E+02  0.14849351606E+02  0.11913197831E+02  0.25603487647E+02  0.00000000000E+00 0. -1.
</event>
<event>
 7    1  0.2655561E-013  0.7246153E+02  0.7816164E-02  0.1226708E+00
        -11   -1    0    0    0    0  0.00000000000E+00  0.00000000000E+00  0.45593999997E+02  0.45594000000E+02  0.51100000000E-03 0.  1.
         11   -1    0    0    0    0 -0.00000000000E+00 -0.00000000000E+00 -0.45593999997E+02  0.45594000000E+02  0.51100000000E-03 0. -1.
    9900012    2    1    2    0    0 -0.84654500063E+01 -0.13329914233E+02 -0.10066282610E+02  0.72461534694E+02  0.69999953624E+02 0.  0.
        -12    1    1    2    0    0  0.84654500063E+01  0.13329914233E+02  0.10066282610E+02  0.18726465306E+02  0.00000000000E+00 0.  1.
         11    1    3    3    0    0 -0.73993159847E+01  0.75675544910E+01 -0.21949438347E+01  0.10809048835E+02  0.51100000000E-03 0. -1.
        -11    1    3    3    0    0 -0.13633326708E+02  0.16306572556E+02  0.14088380806E+01  0.21301566390E+02  0.51100000000E-03 0.  1.
         12    1    3    3    0    0  0.12567192687E+02 -0.37204041280E+02 -0.92801768556E+01  0.40350919470E+02  0.00000000000E+00 0. -1.
</event>
<event>
 7    1  0.2655561E-013  0.7246155E+02  0.7816164E-02  0.1226708E+00
        -11   -1    0    0    0    0  0.00000000000E+00  0.00000000000E+00  0.45593999997E+02  0.45594000000E+02  0.51100000000E-03 0.  1.
         11   -1    0    0    0    0 -0.00000000000E+00 -0.00000000000E+00 -0.45593999997E+02  0.45594000000E+02  0.51100000000E-03 0. -1.
    9900012    2    1    2    0    0  0.14037728630E+02 -0.46812336339E+01 -0.11476415466E+02  0.72461551181E+02  0.69999975101E+02 0.  0.
        -12    1    1    2    0    0 -0.14037728630E+02  0.46812336339E+01  0.11476415466E+02  0.18726448819E+02  0.00000000000E+00 0.  1.
         11    1    3    3    0    0 -0.17188312868E+02  0.13921573502E+01 -0.19466980504E+01  0.17354130198E+02  0.51100000000E-03 0. -1.
        -11    1    3    3    0    0  0.20021734319E+02 -0.44402990812E+01  0.16758417575E+02  0.26484536261E+02  0.51100000000E-03 0.  1.
         12    1    3    3    0    0  0.11204307180E+02 -0.16330919029E+01 -0.26288134991E+02  0.28622884723E+02  0.00000000000E+00 0. -1.
</event>
<event>
 7    1  0.2655561E-013  0.7246157E+02  0.7816164E-02  0.1226708E+00
        -11   -1    0    0    0    0  0.00000000000E+00  0.00000000000E+00  0.45593999997E+02  0.45594000000E+02  0.51100000000E-03 0.  1.
         11   -1    0    0    0    0 -0.00000000000E+00 -0.00000000000E+00 -0.45593999997E+02  0.45594000000E+02  0.51100000000E-03 0. -1.
    9900012    2    1    2    0    0  0.23467112242E+01  0.84100335905E+00 -0.18559765199E+02  0.72461568827E+02  0.69999998089E+02 0.  0.
        -12    1    1    2    0    0 -0.23467112242E+01 -0.84100335905E+00  0.18559765199E+02  0.18726431173E+02  0.00000000000E+00 0.  1.
         11    1    3    3    0    0 -0.34195028796E+01 -0.54354565209E+01 -0.32333838740E+02  0.32965350225E+02  0.51100000000E-03 0. -1.
        -11    1    3    3    0    0  0.11665334064E+02  0.19035134553E+02  0.11948903674E+02  0.25321782432E+02  0.51100000000E-03 0.  1.
         12    1    3    3    0    0 -0.58991199599E+01 -0.12758674673E+02  0.18251698668E+01  0.14174436171E+02  0.00000000000E+00 0. -1.
</event>
<event>
 7    1  0.2655561E-013  0.7246152E+02  0.7816164E-02  0.1226708E+00
        -11   -1    0    0    0    0  0.00000000000E+00  0.00000000000E+00  0.45593999997E+02  0.45594000000E+02  0.51100000000E-03 0.  1.
         11   -1    0    0    0    0 -0.00000000000E+00 -0.00000000000E+00 -0.45593999997E+02  0.45594000000E+02  0.51100000000E-03 0. -1.
    9900012    2    1    2    0    0 -0.60094387220E+01 -0.14652465697E+02 -0.99936500910E+01  0.72461517498E+02  0.69999931223E+02 0.  0.
        -12    1    1    2    0    0  0.60094387220E+01  0.14652465697E+02  0.99936500910E+01  0.18726482502E+02  0.00000000000E+00 0.  1.
         11    1    3    3    0    0  0.20917754327E+01 -0.69212409571E+01 -0.19329338577E+01  0.74843392765E+01  0.51100000000E-03 0. -1.
        -11    1    3    3    0    0  0.26359929387E+01 -0.34214187150E+02 -0.11506516342E+02  0.36193355463E+02  0.51100000000E-03 0.  1.
        -12    1    3    3    0    0 -0.10737207093E+02  0.26482962410E+02  0.34458001085E+01  0.28783822758E+02  0.00000000000E+00 0.  1.
</event>
<event>
 7    1  0.2936537E-013  0.7246157E+02  0.7816164E-02  0.1226708E+00
        -11   -1    0    0    0    0  0.00000000000E+00  0.00000000000E+00  0.45593999997E+02  0.45594000000E+02  0.51100000000E-03 0.  1.
         11   -1    0    0    0    0 -0.00000000000E+00 -0.00000000000E+00 -0.45593999997E+02  0.45594000000E+02  0.51100000000E-03 0. -1.
    9900012    2    1    2    0    0  0.45487349417E+01  0.17399084913E+02 -0.52210972358E+01  0.72461574774E+02  0.70000005836E+02 0.  0.
        -12    1    1    2    0    0 -0.45487349417E+01 -0.17399084913E+02  0.52210972358E+01  0.18726425226E+02  0.00000000000E+00 0.  1.
         11    1    3    3    0    0  0.17622821696E+02  0.24877914795E+02 -0.18687721525E+02  0.35758990830E+02  0.51100000000E-03 0. -1.
        -11    1    3    3    0    0 -0.13623487660E+01  0.10211976517E+02 -0.19386704500E+01  0.10483267711E+02  0.51100000000E-03 0.  1.
        -12    1    3    3    0    0 -0.11711737988E+02 -0.17690806398E+02  0.15405294739E+02  0.26219316233E+02  0.00000000000E+00 0.  1.
</event>
<event>
 7    1  0.2655561E-013  0.7246159E+02  0.7816164E-02  0.1226708E+00
        -11   -1    0    0    0    0  0.00000000000E+00  0.00000000000E+00  0.45593999997E+02  0.45594000000E+02  0.51100000000E-03 0.  1.
         11   -1    0    0    0    0 -0.00000000000E+00 -0.00000000000E+00 -0.45593999997E+02  0.45594000000E+02  0.51100000000E-03 0. -1.
    9900012    2    1    2    0    0 -0.44788052715E+01  0.77668353873E+01 -0.16440645983E+02  0.72461594340E+02  0.70000031324E+02 0.  0.
        -12    1    1    2    0    0  0.44788052715E+01 -0.77668353873E+01  0.16440645983E+02  0.18726405660E+02  0.00000000000E+00 0.  1.
         11    1    3    3    0    0  0.12371860880E+02 -0.41980953333E+01  0.31719290589E+01  0.13444258264E+02  0.51100000000E-03 0. -1.
        -11    1    3    3    0    0  0.33334365885E+01 -0.10214956097E+02  0.11545411273E+02  0.15771925985E+02  0.51100000000E-03 0.  1.
         12    1    3    3    0    0 -0.20184102740E+02  0.22179886818E+02 -0.31157986315E+02  0.43245410091E+02  0.00000000000E+00 0. -1.
</event>
<event>
 7    1  0.2655561E-013  0.7246156E+02  0.7816164E-02  0.1226708E+00
        -11   -1    0    0    0    0  0.00000000000E+00  0.00000000000E+00  0.45593999997E+02  0.45594000000E+02  0.51100000000E-03 0. -1.
         11   -1    0    0    0    0 -0.00000000000E+00 -0.00000000000E+00 -0.45593999997E+02  0.45594000000E+02  0.51100000000E-03 0.  1.
    9900012    2    1    2    0    0 -0.67609090255E+01  0.17353316837E+02  0.19575597761E+01  0.72461560499E+02  0.69999987240E+02 0.  0.
        -12    1    1    2    0    0  0.67609090255E+01 -0.17353316837E+02 -0.19575597761E+01  0.18726439501E+02  0.00000000000E+00 0.  1.
         11    1    3    3    0    0  0.76990572848E+01  0.19016868239E+02  0.28620859448E+02  0.35214632704E+02  0.51100000000E-03 0. -1.
        -11    1    3    3    0    0  0.49146801557E+01  0.12083029127E+01 -0.11206172198E+02  0.12296030764E+02  0.51100000000E-03 0.  1.
        -12    1    3    3    0    0 -0.19374646466E+02 -0.28718543149E+01 -0.15457127473E+02  0.24950897030E+02  0.00000000000E+00 0.  1.
</event>
<event>
 7    1  0.2655561E-013  0.7246167E+02  0.7816164E-02  0.1226708E+00
        -11   -1    0    0    0    0  0.00000000000E+00  0.00000000000E+00  0.45593999997E+02  0.45594000000E+02  0.51100000000E-03 0. -1.
         11   -1    0    0    0    0 -0.00000000000E+00 -0.00000000000E+00 -0.45593999997E+02  0.45594000000E+02  0.51100000000E-03 0.  1.
    9900012    2    1    2    0    0  0.88180193190E+01  0.15674168890E+02 -0.52190583591E+01  0.72461665461E+02  0.70000123972E+02 0.  0.
        -12    1    1    2    0    0 -0.88180193190E+01 -0.15674168890E+02  0.52190583591E+01  0.18726334539E+02  0.00000000000E+00 0.  1.
         11    1    3    3    0    0 -0.95960498816E+01 -0.66620460715E+01  0.12267747076E+02  0.16940030985E+02  0.51100000000E-03 0. -1.
        -11    1    3    3    0    0 -0.66413950238E+01  0.25450288221E+02 -0.31597605789E+01  0.26491685216E+02  0.51100000000E-03 0.  1.
        -12    1    3    3    0    0  0.25055464224E+02 -0.31140732591E+01 -0.14327044856E+02  0.29029949260E+02  0.00000000000E+00 0.  1.
</event>
<event>
 7    1  0.2655561E-013  0.7246156E+02  0.7816164E-02  0.1226708E+00
        -11   -1    0    0    0    0  0.00000000000E+00  0.00000000000E+00  0.45593999997E+02  0.45594000000E+02  0.51100000000E-03 0.  1.
         11   -1    0    0    0    0 -0.00000000000E+00 -0.00000000000E+00 -0.45593999997E+02  0.45594000000E+02  0.51100000000E-03 0. -1.
    9900012    2    1    2    0    0  0.42119474630E+01 -0.13258827204E+02 -0.12535646285E+02  0.72461563392E+02  0.69999991009E+02 0.  0.
        -12    1    1    2    0    0 -0.42119474630E+01  0.13258827204E+02  0.12535646285E+02  0.18726436608E+02  0.00000000000E+00 0.  1.
         11    1    3    3    0    0  0.69791847304E+01 -0.13654569572E+01 -0.30588710443E+02  0.31404501254E+02  0.51100000000E-03 0. -1.
        -11    1    3    3    0    0 -0.17894598439E+01 -0.61805584102E+00 -0.10329329675E+02  0.10501390924E+02  0.51100000000E-03 0.  1.
        -12    1    3    3    0    0 -0.97777742357E+00 -0.11275314406E+02  0.28382393833E+02  0.30555671214E+02  0.00000000000E+00 0.  1.
</event>
<event>
 7    1  0.2655561E-013  0.7246165E+02  0.7816164E-02  0.1226708E+00
        -11   -1    0    0    0    0  0.00000000000E+00  0.00000000000E+00  0.45593999997E+02  0.45594000000E+02  0.51100000000E-03 0.  1.
         11   -1    0    0    0    0 -0.00000000000E+00 -0.00000000000E+00 -0.45593999997E+02  0.45594000000E+02  0.51100000000E-03 0. -1.
    9900012    2    1    2    0    0 -0.12310146568E+02 -0.81777507728E+00  0.14087858774E+02  0.72461648795E+02  0.70000102262E+02 0.  0.
        -12    1    1    2    0    0  0.12310146568E+02  0.81777507728E+00 -0.14087858774E+02  0.18726351205E+02  0.00000000000E+00 0.  1.
         11    1    3    3    0    0 -0.12090269801E+01 -0.57899471153E+01 -0.48583461796E+01  0.76543296048E+01  0.51100000000E-03 0. -1.
        -11    1    3    3    0    0  0.50800543593E+00 -0.21943344247E+02  0.26624897418E+02  0.34505848621E+02  0.51100000000E-03 0.  1.
        -12    1    3    3    0    0 -0.11609125024E+02  0.26915516285E+02 -0.76786924641E+01  0.30301470570E+02  0.00000000000E+00 0.  1.
</event>
<event>
 7    1  0.2655561E-013  0.7246167E+02  0.7816164E-02  0.1226708E+00
        -11   -1    0    0    0    0  0.00000000000E+00  0.00000000000E+00  0.45593999997E+02  0.45594000000E+02  0.51100000000E-03 0. -1.
         11   -1    0    0    0    0 -0.00000000000E+00 -0.00000000000E+00 -0.45593999997E+02  0.45594000000E+02  0.51100000000E-03 0.  1.
    9900012    2    1    2    0    0  0.34977007449E+01  0.25425097221E+01  0.18220241801E+02  0.72461668873E+02  0.70000128418E+02 0.  0.
        -12    1    1    2    0    0 -0.34977007449E+01 -0.25425097221E+01 -0.18220241801E+02  0.18726331127E+02  0.00000000000E+00 0.  1.
         11    1    3    3    0    0  0.16929917750E+02  0.27730123056E+02  0.10773959477E+02  0.34229520049E+02  0.51100000000E-03 0. -1.
        -11    1    3    3    0    0  0.40924530571E+01  0.17180204333E+01  0.39341221573E+01  0.59310271997E+01  0.51100000000E-03 0.  1.
        -12    1    3    3    0    0 -0.17524670062E+02 -0.26905633767E+02  0.35121601664E+01  0.32301121625E+02  0.00000000000E+00 0.  1.
</event>
<event>
 7    1  0.2655561E-013  0.7246156E+02  0.7816164E-02  0.1226708E+00
        -11   -1    0    0    0    0  0.00000000000E+00  0.00000000000E+00  0.45593999997E+02  0.45594000000E+02  0.51100000000E-03 0.  1.
         11   -1    0    0    0    0 -0.00000000000E+00 -0.00000000000E+00 -0.45593999997E+02  0.45594000000E+02  0.51100000000E-03 0. -1.
    9900012    2    1    2    0    0 -0.97580595271E+01  0.15556983144E+02 -0.36660720818E+01  0.72461560542E+02  0.69999987295E+02 0.  0.
        -12    1    1    2    0    0  0.97580595271E+01 -0.15556983144E+02  0.36660720818E+01  0.18726439458E+02  0.00000000000E+00 0.  1.
         11    1    3    3    0    0 -0.13825433802E+02  0.61103859987E+01 -0.18573740760E+02  0.23947093413E+02  0.51100000000E-03 0. -1.
        -11    1    3    3    0    0  0.55676055783E+01  0.26573705217E+02  0.24061929985E+01  0.27257105603E+02  0.51100000000E-03 0.  1.
         12    1    3    3    0    0 -0.15002313039E+01 -0.17127108072E+02  0.12501475680E+02  0.21257361526E+02  0.00000000000E+00 0. -1.
</event>
<event>
 7    1  0.2655561E-013  0.7246157E+02  0.7816164E-02  0.1226708E+00
        -11   -1    0    0    0    0  0.00000000000E+00  0.00000000000E+00  0.45593999997E+02  0.45594000000E+02  0.51100000000E-03 0. -1.
         11   -1    0    0    0    0 -0.00000000000E+00 -0.00000000000E+00 -0.45593999997E+02  0.45594000000E+02  0.51100000000E-03 0.  1.
    9900012    2    1    2    0    0  0.10184358480E+02 -0.15625246760E+02 -0.16761960062E+01  0.72461571430E+02  0.70000001479E+02 0.  0.
        -12    1    1    2    0    0 -0.10184358480E+02  0.15625246760E+02  0.16761960062E+01  0.18726428570E+02  0.00000000000E+00 0.  1.
         11    1    3    3    0    0 -0.53772721754E+01 -0.15419157728E+02 -0.12851763957E+02  0.20780599562E+02  0.51100000000E-03 0. -1.
        -11    1    3    3    0    0  0.22925934758E+01 -0.31533875632E+01 -0.18571117447E+02  0.18975938487E+02  0.51100000000E-03 0.  1.
         12    1    3    3    0    0  0.13269037180E+02  0.29472985318E+01  0.29746685397E+02  0.32705033381E+02  0.00000000000E+00 0. -1.
</event>
<event>
 7    1  0.2655561E-013  0.7246171E+02  0.7816164E-02  0.1226708E+00
        -11   -1    0    0    0    0  0.00000000000E+00  0.00000000000E+00  0.45593999997E+02  0.45594000000E+02  0.51100000000E-03 0.  1.
         11   -1    0    0    0    0 -0.00000000000E+00 -0.00000000000E+00 -0.45593999997E+02  0.45594000000E+02  0.51100000000E-03 0. -1.
    9900012    2    1    2    0    0  0.45326244608E+01  0.17957741697E+01 -0.18080502231E+02  0.72461706979E+02  0.70000178057E+02 0.  0.
        -12    1    1    2    0    0 -0.45326244608E+01 -0.17957741697E+01  0.18080502231E+02  0.18726293021E+02  0.00000000000E+00 0.  1.
         11    1    3    3    0    0 -0.34070799487E+01 -0.12876453547E+02 -0.15445673687E+02  0.20395589858E+02  0.51100000000E-03 0. -1.
        -11    1    3    3    0    0  0.16703427779E+02  0.28155551580E+02 -0.10206547109E+02  0.34291590638E+02  0.51100000000E-03 0.  1.
         12    1    3    3    0    0 -0.87637233697E+01 -0.13483323863E+02  0.75717185649E+01  0.17774526483E+02  0.00000000000E+00 0. -1.
</event>
<event>
 7    1  0.2655561E-013  0.7246158E+02  0.7816164E-02  0.1226708E+00
        -11   -1    0    0    0    0  0.00000000000E+00  0.00000000000E+00  0.45593999997E+02  0.45594000000E+02  0.51100000000E-03 0. -1.
         11   -1    0    0    0    0 -0.00000000000E+00 -0.00000000000E+00 -0.45593999997E+02  0.45594000000E+02  0.51100000000E-03 0.  1.
    9900012    2    1    2    0    0  0.14788619469E+02 -0.10775931240E+02  0.39818004513E+01  0.72461582971E+02  0.70000016514E+02 0.  0.
        -12    1    1    2    0    0 -0.14788619469E+02  0.10775931240E+02 -0.39818004513E+01  0.18726417029E+02  0.00000000000E+00 0.  1.
         11    1    3    3    0    0  0.30001939775E+02 -0.27023205917E+02 -0.99044185972E+01  0.41574842829E+02  0.51100000000E-03 0. -1.
        -11    1    3    3    0    0  0.29530497648E+01 -0.63220921250E-01  0.35878057767E+00  0.29754367011E+01  0.51100000000E-03 0.  1.
        -12    1    3    3    0    0 -0.18166370070E+02  0.16310495598E+02  0.13527438471E+02  0.27911303441E+02  0.00000000000E+00 0.  1.
</event>
<event>
 7    1  0.2655561E-013  0.7246156E+02  0.7816164E-02  0.1226708E+00
        -11   -1    0    0    0    0  0.00000000000E+00  0.00000000000E+00  0.45593999997E+02  0.45594000000E+02  0.51100000000E-03 0.  1.
         11   -1    0    0    0    0 -0.00000000000E+00 -0.00000000000E+00 -0.45593999997E+02  0.45594000000E+02  0.51100000000E-03 0. -1.
    9900012    2    1    2    0    0 -0.14085448416E+02 -0.12035329456E+02 -0.27258721903E+01  0.72461564370E+02  0.69999992282E+02 0.  0.
        -12    1    1    2    0    0  0.14085448416E+02  0.12035329456E+02  0.27258721903E+01  0.18726435630E+02  0.00000000000E+00 0.  1.
         11    1    3    3    0    0 -0.50980796371E+01 -0.12406423954E+02  0.20027691817E+01  0.13561742365E+02  0.51100000000E-03 0. -1.
        -11    1    3    3    0    0 -0.18871868278E+01 -0.26861137043E+02 -0.12524238734E+02  0.29697452980E+02  0.51100000000E-03 0.  1.
         12    1    3    3    0    0 -0.71001819513E+01  0.27232231541E+02  0.77955973619E+01  0.29202369025E+02  0.00000000000E+00 0. -1.
</event>
<event>
 7    1  0.2655561E-013  0.7246150E+02  0.7816164E-02  0.1226708E+00
        -11   -1    0    0    0    0  0.00000000000E+00  0.00000000000E+00  0.45593999997E+02  0.45594000000E+02  0.51100000000E-03 0. -1.
         11   -1    0    0    0    0 -0.00000000000E+00 -0.00000000000E+00 -0.45593999997E+02  0.45594000000E+02  0.51100000000E-03 0.  1.
    9900012    2    1    2    0    0 -0.69263770491E+01  0.15108220420E+02  0.86283732828E+01  0.72461498757E+02  0.69999906810E+02 0.  0.
        -12    1    1    2    0    0  0.69263770491E+01 -0.15108220420E+02 -0.86283732828E+01  0.18726501243E+02  0.00000000000E+00 0.  1.
         11    1    3    3    0    0 -0.94267455887E+01 -0.10260914961E+02 -0.99104598212E+01  0.17098746222E+02  0.51100000000E-03 0. -1.
        -11    1    3    3    0    0 -0.19298838665E+02  0.21895855834E+02  0.15598509376E+02  0.33093612247E+02  0.51100000000E-03 0.  1.
         12    1    3    3    0    0  0.21799207205E+02  0.34732795466E+01  0.29403237285E+01  0.22269140289E+02  0.00000000000E+00 0. -1.
</event>
<event>
 7    1  0.2655561E-013  0.7246157E+02  0.7816164E-02  0.1226708E+00
        -11   -1    0    0    0    0  0.00000000000E+00  0.00000000000E+00  0.45593999997E+02  0.45594000000E+02  0.51100000000E-03 0. -1.
         11   -1    0    0    0    0 -0.00000000000E+00 -0.00000000000E+00 -0.45593999997E+02  0.45594000000E+02  0.51100000000E-03 0.  1.
    9900012    2    1    2    0    0  0.12933726674E+02 -0.20696087216E+01  0.13383376213E+02  0.72461566148E+02  0.69999994599E+02 0.  0.
        -12    1    1    2    0    0 -0.12933726674E+02  0.20696087216E+01 -0.13383376213E+02  0.18726433852E+02  0.00000000000E+00 0.  1.
         11    1    3    3    0    0  0.15717751056E+02 -0.73488797861E+01  0.25184994910E+01  0.17532728604E+02  0.51100000000E-03 0. -1.
        -11    1    3    3    0    0 -0.14489539439E+02  0.56501774358E+01 -0.17994382256E+02  0.23783798083E+02  0.51100000000E-03 0.  1.
         12    1    3    3    0    0  0.11705515057E+02 -0.37090637126E+00  0.28859258978E+02  0.31145039461E+02  0.00000000000E+00 0. -1.
</event>
<event>
 7    1  0.2655561E-013  0.7246154E+02  0.7816164E-02  0.1226708E+00
        -11   -1    0    0    0    0  0.00000000000E+00  0.00000000000E+00  0.45593999997E+02  0.45594000000E+02  0.51100000000E-03 0. -1.
         11   -1    0    0    0    0 -0.00000000000E+00 -0.00000000000E+00 -0.45593999997E+02  0.45594000000E+02  0.51100000000E-03 0.  1.
    9900012    2    1    2    0    0  0.81914362555E+01 -0.16839105140E+02 -0.15855637626E+00  0.72461541980E+02  0.69999963116E+02 0.  0.
        -12    1    1    2    0    0 -0.81914362555E+01  0.16839105140E+02  0.15855637626E+00  0.18726458020E+02  0.00000000000E+00 0.  1.
         11    1    3    3    0    0  0.18628790254E+02 -0.25026471389E+02  0.25050305505E+02  0.40010922292E+02  0.51100000000E-03 0. -1.
        -11    1    3    3    0    0  0.22589429312E+00 -0.59775597522E+00  0.19106092321E+01  0.20146385126E+01  0.51100000000E-03 0.  1.
        -12    1    3    3    0    0 -0.10663248292E+02  0.87851222247E+01 -0.27119471114E+02  0.30435981175E+02  0.00000000000E+00 0.  1.
</event>
<event>
 7    1  0.2655561E-013  0.7246155E+02  0.7816164E-02  0.1226708E+00
        -11   -1    0    0    0    0  0.00000000000E+00  0.00000000000E+00  0.45593999997E+02  0.45594000000E+02  0.51100000000E-03 0.  1.
         11   -1    0    0    0    0 -0.00000000000E+00 -0.00000000000E+00 -0.45593999997E+02  0.45594000000E+02  0.51100000000E-03 0. -1.
    9900012    2    1    2    0    0  0.54166451151E+01  0.17687610949E+02 -0.29134600501E+01  0.72461551462E+02  0.69999975467E+02 0.  0.
        -12    1    1    2    0    0 -0.54166451151E+01 -0.17687610949E+02  0.29134600501E+01  0.18726448538E+02  0.00000000000E+00 0.  1.
         11    1    3    3    0    0  0.42004596424E+01 -0.64114910136E+01  0.10306559125E+00  0.76656181096E+01  0.51100000000E-03 0. -1.
        -11    1    3    3    0    0  0.12340386836E+02 -0.54531359489E+01  0.21112838625E+02  0.25055414465E+02  0.51100000000E-03 0.  1.
        -12    1    3    3    0    0 -0.11124201363E+02  0.29552237911E+02 -0.24129364267E+02  0.39740518887E+02  0.00000000000E+00 0.  1.
</event>
<event>
 7    1  0.2655561E-013  0.7246147E+02  0.7816164E-02  0.1226708E+00
        -11   -1    0    0    0    0  0.00000000000E+00  0.00000000000E+00  0.45593999997E+02  0.45594000000E+02  0.51100000000E-03 0. -1.
         11   -1    0    0    0    0 -0.00000000000E+00 -0.00000000000E+00 -0.45593999997E+02  0.45594000000E+02  0.51100000000E-03 0.  1.
    9900012    2    1    2    0    0  0.80907629650E+01  0.54260312579E+01  0.15993145468E+02  0.72461469020E+02  0.69999868071E+02 0.  0.
        -12    1    1    2    0    0 -0.80907629650E+01 -0.54260312579E+01 -0.15993145468E+02  0.18726530980E+02  0.00000000000E+00 0.  1.
         11    1    3    3    0    0  0.66616388990E+01 -0.37886358661E+01 -0.14490265435E+01  0.77994148967E+01  0.51100000000E-03 0. -1.
        -11    1    3    3    0    0  0.77896790574E+01 -0.15934987582E+02 -0.14925699154E+02  0.23181445696E+02  0.51100000000E-03 0.  1.
         12    1    3    3    0    0 -0.63605549913E+01  0.25149654706E+02  0.32367871166E+02  0.41480608427E+02  0.00000000000E+00 0. -1.
</event>
<event>
 7    1  0.2655561E-013  0.7246158E+02  0.7816164E-02  0.1226708E+00
        -11   -1    0    0    0    0  0.00000000000E+00  0.00000000000E+00  0.45593999997E+02  0.45594000000E+02  0.51100000000E-03 0.  1.
         11   -1    0    0    0    0 -0.00000000000E+00 -0.00000000000E+00 -0.45593999997E+02  0.45594000000E+02  0.51100000000E-03 0. -1.
    9900012    2    1    2    0    0  0.85435981978E+01  0.16663842983E+02 -0.43731571398E-01  0.72461584284E+02  0.70000018224E+02 0.  0.
        -12    1    1    2    0    0 -0.85435981978E+01 -0.16663842983E+02  0.43731571398E-01  0.18726415716E+02  0.00000000000E+00 0.  1.
         11    1    3    3    0    0 -0.93408127355E+01  0.21185863005E+02 -0.51055444332E+01  0.23709874695E+02  0.51100000000E-03 0. -1.
        -11    1    3    3    0    0 -0.11102345066E+02  0.53898542549E+01  0.12138304028E+02  0.17310430953E+02  0.51100000000E-03 0.  1.
         12    1    3    3    0    0  0.28986755999E+02 -0.99118742770E+01 -0.70764911661E+01  0.31441278636E+02  0.00000000000E+00 0. -1.
</event>
<event>
 7    1  0.2655561E-013  0.7246157E+02  0.7816164E-02  0.1226708E+00
        -11   -1    0    0    0    0  0.00000000000E+00  0.00000000000E+00  0.45593999997E+02  0.45594000000E+02  0.51100000000E-03 0.  1.
         11   -1    0    0    0    0 -0.00000000000E+00 -0.00000000000E+00 -0.45593999997E+02  0.45594000000E+02  0.51100000000E-03 0. -1.
    9900012    2    1    2    0    0  0.11759396443E+02  0.14542670789E+02 -0.95215385688E+00  0.72461567469E+02  0.69999996320E+02 0.  0.
        -12    1    1    2    0    0 -0.11759396443E+02 -0.14542670789E+02  0.95215385688E+00  0.18726432531E+02  0.00000000000E+00 0.  1.
         11    1    3    3    0    0  0.11525444122E+01  0.22278457148E+02 -0.97083952285E+01  0.24329220080E+02  0.51100000000E-03 0. -1.
        -11    1    3    3    0    0  0.11646092032E+02  0.17757551583E+02  0.25030550020E+00  0.21237343312E+02  0.51100000000E-03 0.  1.
        -12    1    3    3    0    0 -0.10392400018E+01 -0.25493337943E+02  0.85059358714E+01  0.26895004077E+02  0.00000000000E+00 0.  1.
</event>
<event>
 7    1  0.2655561E-013  0.7246152E+02  0.7816164E-02  0.1226708E+00
        -11   -1    0    0    0    0  0.00000000000E+00  0.00000000000E+00  0.45593999997E+02  0.45594000000E+02  0.51100000000E-03 0.  1.
         11   -1    0    0    0    0 -0.00000000000E+00 -0.00000000000E+00 -0.45593999997E+02  0.45594000000E+02  0.51100000000E-03 0. -1.
    9900012    2    1    2    0    0  0.18249387806E+02  0.57906188665E+00 -0.41599841941E+01  0.72461523117E+02  0.69999938542E+02 0.  0.
        -12    1    1    2    0    0 -0.18249387806E+02 -0.57906188665E+00  0.41599841941E+01  0.18726476883E+02  0.00000000000E+00 0.  1.
         11    1    3    3    0    0 -0.95046365736E+00  0.48208616713E+01 -0.15519633359E+01  0.51529291548E+01  0.51100000000E-03 0. -1.
        -11    1    3    3    0    0  0.26664668670E+02  0.82886346790E+01  0.24094964450E+02  0.36881883523E+02  0.51100000000E-03 0.  1.
         12    1    3    3    0    0 -0.74648172061E+01 -0.12530434464E+02 -0.26702985308E+02  0.30426710439E+02  0.00000000000E+00 0. -1.
</event>
<event>
 7    1  0.2655561E-013  0.7246162E+02  0.7816164E-02  0.1226708E+00
        -11   -1    0    0    0    0  0.00000000000E+00  0.00000000000E+00  0.45593999997E+02  0.45594000000E+02  0.51100000000E-03 0.  1.
         11   -1    0    0    0    0 -0.00000000000E+00 -0.00000000000E+00 -0.45593999997E+02  0.45594000000E+02  0.51100000000E-03 0. -1.
    9900012    2    1    2    0    0  0.14756449355E+02  0.92614301452E+01  0.68666081206E+01  0.72461623068E+02  0.70000068748E+02 0.  0.
        -12    1    1    2    0    0 -0.14756449355E+02 -0.92614301452E+01 -0.68666081206E+01  0.18726376932E+02  0.00000000000E+00 0.  1.
         11    1    3    3    0    0  0.19718244980E+02 -0.12269332256E+02 -0.75331037568E+01  0.24415023071E+02  0.51100000000E-03 0. -1.
        -11    1    3    3    0    0 -0.27581946973E+01 -0.77537984459E+00  0.23631968393E+02  0.23805015906E+02  0.51100000000E-03 0.  1.
         12    1    3    3    0    0 -0.22036009276E+01  0.22306142245E+02 -0.92322565153E+01  0.24241584092E+02  0.00000000000E+00 0. -1.
</event>
<event>
 7    1  0.2655561E-013  0.7246126E+02  0.7816164E-02  0.1226709E+00
        -11   -1    0    0    0    0  0.00000000000E+00  0.00000000000E+00  0.45593999997E+02  0.45594000000E+02  0.51100000000E-03 0. -1.
         11   -1    0    0    0    0 -0.00000000000E+00 -0.00000000000E+00 -0.45593999997E+02  0.45594000000E+02  0.51100000000E-03 0.  1.
    9900012    2    1    2    0    0  0.79248410395E+01 -0.16315984329E+02  0.46557841151E+01  0.72461260405E+02  0.69999596311E+02 0.  0.
        -12    1    1    2    0    0 -0.79248410395E+01  0.16315984329E+02 -0.46557841151E+01  0.18726739595E+02  0.00000000000E+00 0.  1.
         11    1    3    3    0    0  0.37607227045E+01  0.36169966518E+00 -0.60671633685E+00  0.38264823118E+01  0.51100000000E-03 0. -1.
        -11    1    3    3    0    0  0.34090398709E+02 -0.24041683972E+00  0.52390204102E+01  0.34491454297E+02  0.51100000000E-03 0.  1.
         12    1    3    3    0    0 -0.29926280374E+02 -0.16437267154E+02  0.23480041777E-01  0.34143323796E+02  0.00000000000E+00 0. -1.
</event>
<event>
 7    1  0.2655561E-013  0.7246158E+02  0.7816164E-02  0.1226708E+00
        -11   -1    0    0    0    0  0.00000000000E+00  0.00000000000E+00  0.45593999997E+02  0.45594000000E+02  0.51100000000E-03 0.  1.
         11   -1    0    0    0    0 -0.00000000000E+00 -0.00000000000E+00 -0.45593999997E+02  0.45594000000E+02  0.51100000000E-03 0. -1.
    9900012    2    1    2    0    0 -0.11262254744E+00 -0.18081916985E+02 -0.48693163572E+01  0.72461584233E+02  0.70000018157E+02 0.  0.
        -12    1    1    2    0    0  0.11262254744E+00  0.18081916985E+02  0.48693163572E+01  0.18726415767E+02  0.00000000000E+00 0.  1.
         11    1    3    3    0    0 -0.25294146736E+02  0.56540524776E+01  0.99624614608E+01  0.27767117372E+02  0.51100000000E-03 0. -1.
        -11    1    3    3    0    0  0.69040751068E+01 -0.22566878821E+02 -0.10739135490E+02  0.25927963748E+02  0.51100000000E-03 0.  1.
        -12    1    3    3    0    0  0.18277449082E+02 -0.11690906422E+01 -0.40926423279E+01  0.18766503113E+02  0.00000000000E+00 0.  1.
</event>
<event>
 7    1  0.2655561E-013  0.7246161E+02  0.7816164E-02  0.1226708E+00
        -11   -1    0    0    0    0  0.00000000000E+00  0.00000000000E+00  0.45593999997E+02  0.45594000000E+02  0.51100000000E-03 0.  1.
         11   -1    0    0    0    0 -0.00000000000E+00 -0.00000000000E+00 -0.45593999997E+02  0.45594000000E+02  0.51100000000E-03 0. -1.
    9900012    2    1    2    0    0  0.18676126600E+02  0.10292240940E+01 -0.90597515066E+00  0.72461606914E+02  0.70000047704E+02 0.  0.
        -12    1    1    2    0    0 -0.18676126600E+02 -0.10292240940E+01  0.90597515066E+00  0.18726393086E+02  0.00000000000E+00 0.  1.
         11    1    3    3    0    0 -0.19235014844E+01  0.71047195002E+01 -0.59634708302E+01  0.94731136244E+01  0.51100000000E-03 0. -1.
        -11    1    3    3    0    0  0.18131874572E+02  0.99056189085E+01  0.28075262140E+02  0.34858377844E+02  0.51100000000E-03 0.  1.
         12    1    3    3    0    0  0.24677535132E+01 -0.15981114315E+02 -0.23017766461E+02  0.28130115446E+02  0.00000000000E+00 0. -1.
</event>
<event>
 7    1  0.2655561E-013  0.7246159E+02  0.7816164E-02  0.1226708E+00
        -11   -1    0    0    0    0  0.00000000000E+00  0.00000000000E+00  0.45593999997E+02  0.45594000000E+02  0.51100000000E-03 0.  1.
         11   -1    0    0    0    0 -0.00000000000E+00 -0.00000000000E+00 -0.45593999997E+02  0.45594000000E+02  0.51100000000E-03 0. -1.
    9900012    2    1    2    0    0  0.12809624360E+02 -0.12822563619E+02  0.47089204648E+01  0.72461586944E+02  0.70000021689E+02 0.  0.
        -12    1    1    2    0    0 -0.12809624360E+02  0.12822563619E+02 -0.47089204648E+01  0.18726413056E+02  0.00000000000E+00 0.  1.
         11    1    3    3    0    0  0.62469570907E+01  0.11581144070E+02 -0.25227626681E+02  0.28453128458E+02  0.51100000000E-03 0. -1.
        -11    1    3    3    0    0  0.62529402103E+01 -0.28037945639E+00  0.10073265001E+01  0.63397618924E+01  0.51100000000E-03 0.  1.
        -12    1    3    3    0    0  0.30972705881E+00 -0.24123328233E+02  0.28929220645E+02  0.37668696593E+02  0.00000000000E+00 0.  1.
</event>
<event>
 7    1  0.2655561E-013  0.7246159E+02  0.7816164E-02  0.1226708E+00
        -11   -1    0    0    0    0  0.00000000000E+00  0.00000000000E+00  0.45593999997E+02  0.45594000000E+02  0.51100000000E-03 0.  1.
         11   -1    0    0    0    0 -0.00000000000E+00 -0.00000000000E+00 -0.45593999997E+02  0.45594000000E+02  0.51100000000E-03 0. -1.
    9900012    2    1    2    0    0  0.17709130154E+02  0.53033902833E+01 -0.29898637542E+01  0.72461587515E+02  0.70000022433E+02 0.  0.
        -12    1    1    2    0    0 -0.17709130154E+02 -0.53033902833E+01  0.29898637542E+01  0.18726412485E+02  0.00000000000E+00 0.  1.
         11    1    3    3    0    0 -0.15545317448E+02  0.52462982349E+01 -0.20135349834E+02  0.25973310396E+02  0.51100000000E-03 0. -1.
        -11    1    3    3    0    0  0.12015599547E+01 -0.65419180344E+01  0.11492498360E+02  0.13278477198E+02  0.51100000000E-03 0.  1.
         12    1    3    3    0    0  0.32052887647E+02  0.65990100827E+01  0.56529877202E+01  0.33209799920E+02  0.00000000000E+00 0. -1.
</event>
<event>
 7    1  0.2655561E-013  0.7246170E+02  0.7816164E-02  0.1226708E+00
        -11   -1    0    0    0    0  0.00000000000E+00  0.00000000000E+00  0.45593999997E+02  0.45594000000E+02  0.51100000000E-03 0. -1.
         11   -1    0    0    0    0 -0.00000000000E+00 -0.00000000000E+00 -0.45593999997E+02  0.45594000000E+02  0.51100000000E-03 0.  1.
    9900012    2    1    2    0    0 -0.13071090312E+02  0.10830130210E+02  0.79075447068E+01  0.72461698026E+02  0.70000166394E+02 0.  0.
        -12    1    1    2    0    0  0.13071090312E+02 -0.10830130210E+02 -0.79075447068E+01  0.18726301974E+02  0.00000000000E+00 0.  1.
         11    1    3    3    0    0 -0.56596615777E+01  0.11714191204E+02 -0.18159307731E+02  0.22338632507E+02  0.51100000000E-03 0. -1.
        -11    1    3    3    0    0 -0.74282166636E+01  0.20304964011E+02  0.12947898001E+02  0.25201548150E+02  0.51100000000E-03 0.  1.
        -12    1    3    3    0    0  0.16787929036E-01 -0.21189025005E+02  0.13118954437E+02  0.24921517369E+02  0.00000000000E+00 0.  1.
</event>
<event>
 7    1  0.2655561E-013  0.7246157E+02  0.7816164E-02  0.1226708E+00
        -11   -1    0    0    0    0  0.00000000000E+00  0.00000000000E+00  0.45593999997E+02  0.45594000000E+02  0.51100000000E-03 0.  1.
         11   -1    0    0    0    0 -0.00000000000E+00 -0.00000000000E+00 -0.45593999997E+02  0.45594000000E+02  0.51100000000E-03 0. -1.
    9900012    2    1    2    0    0 -0.14800722512E+00  0.12585719701E+02 -0.13865675316E+02  0.72461569520E+02  0.69999998992E+02 0.  0.
        -12    1    1    2    0    0  0.14800722512E+00 -0.12585719701E+02  0.13865675316E+02  0.18726430480E+02  0.00000000000E+00 0.  1.
         11    1    3    3    0    0  0.12158677908E+02 -0.86731722638E+01 -0.68744349963E+01  0.16441265839E+02  0.51100000000E-03 0.  1.
        -11    1    3    3    0    0  0.68821311638E+01  0.13242282952E+02 -0.24598459721E+02  0.28771618099E+02  0.51100000000E-03 0. -1.
        -12    1    3    3    0    0 -0.19188816297E+02  0.80166090130E+01  0.17607219401E+02  0.27248685583E+02  0.00000000000E+00 0.  1.
</event>
<event>
 7    1  0.2655561E-013  0.7246157E+02  0.7816164E-02  0.1226708E+00
        -11   -1    0    0    0    0  0.00000000000E+00  0.00000000000E+00  0.45593999997E+02  0.45594000000E+02  0.51100000000E-03 0.  1.
         11   -1    0    0    0    0 -0.00000000000E+00 -0.00000000000E+00 -0.45593999997E+02  0.45594000000E+02  0.51100000000E-03 0. -1.
    9900012    2    1    2    0    0  0.75535662440E+00  0.13406515233E+02 -0.13052739546E+02  0.72461568840E+02  0.69999998105E+02 0.  0.
        -12    1    1    2    0    0 -0.75535662440E+00 -0.13406515233E+02  0.13052739546E+02  0.18726431160E+02  0.00000000000E+00 0.  1.
         11    1    3    3    0    0 -0.12620777035E+02  0.13711187464E+01  0.97266380361E+01  0.15992856759E+02  0.51100000000E-03 0. -1.
        -11    1    3    3    0    0  0.51022405424E+01 -0.17415883308E+02  0.29583764186E+00  0.18150299450E+02  0.51100000000E-03 0.  1.
         12    1    3    3    0    0  0.82738931168E+01  0.29451279795E+02 -0.23075215224E+02  0.38318412630E+02  0.00000000000E+00 0. -1.
</event>
<event>
 7    1  0.2655561E-013  0.7246210E+02  0.7816164E-02  0.1226707E+00
        -11   -1    0    0    0    0  0.00000000000E+00  0.00000000000E+00  0.45593999997E+02  0.45594000000E+02  0.51100000000E-03 0.  1.
         11   -1    0    0    0    0 -0.00000000000E+00 -0.00000000000E+00 -0.45593999997E+02  0.45594000000E+02  0.51100000000E-03 0. -1.
    9900012    2    1    2    0    0 -0.49050669722E+00  0.75131711485E+01 -0.17145582182E+02  0.72462100131E+02  0.70000690208E+02 0.  0.
        -12    1    1    2    0    0  0.49050669722E+00 -0.75131711485E+01  0.17145582182E+02  0.18725899869E+02  0.00000000000E+00 0.  1.
         11    1    3    3    0    0  0.40521881605E+01 -0.91506000264E+01  0.71331196159E+01  0.12289634065E+02  0.51100000000E-03 0. -1.
        -11    1    3    3    0    0  0.15006325334E+02  0.71725363363E+01  0.10131139558E+02  0.19474985661E+02  0.51100000000E-03 0.  1.
         12    1    3    3    0    0 -0.19549020191E+02  0.94912348387E+01 -0.34409841356E+02  0.40697480405E+02  0.00000000000E+00 0. -1.
</event>
<event>
 7    1  0.2655561E-013  0.7246155E+02  0.7816164E-02  0.1226708E+00
        -11   -1    0    0    0    0  0.00000000000E+00  0.00000000000E+00  0.45593999997E+02  0.45594000000E+02  0.51100000000E-03 0.  1.
         11   -1    0    0    0    0 -0.00000000000E+00 -0.00000000000E+00 -0.45593999997E+02  0.45594000000E+02  0.51100000000E-03 0. -1.
    9900012    2    1    2    0    0  0.47537381392E+01  0.17205662124E+02  0.56610113622E+01  0.72461551189E+02  0.69999975112E+02 0.  0.
        -12    1    1    2    0    0 -0.47537381392E+01 -0.17205662124E+02 -0.56610113622E+01  0.18726448811E+02  0.00000000000E+00 0.  1.
         11    1    3    3    0    0 -0.12943553502E+02 -0.11022466308E+02 -0.64071765654E+01  0.18168165911E+02  0.51100000000E-03 0. -1.
        -11    1    3    3    0    0 -0.34793203261E+01  0.50651955151E+01  0.20823090249E+02  0.21710895037E+02  0.51100000000E-03 0.  1.
         12    1    3    3    0    0  0.21176611967E+02  0.23162932917E+02 -0.87549023211E+01  0.32582490242E+02  0.00000000000E+00 0. -1.
</event>
<event>
 7    1  0.2655561E-013  0.7246161E+02  0.7816164E-02  0.1226708E+00
        -11   -1    0    0    0    0  0.00000000000E+00  0.00000000000E+00  0.45593999997E+02  0.45594000000E+02  0.51100000000E-03 0.  1.
         11   -1    0    0    0    0 -0.00000000000E+00 -0.00000000000E+00 -0.45593999997E+02  0.45594000000E+02  0.51100000000E-03 0. -1.
    9900012    2    1    2    0    0  0.43557884847E+01  0.37941271633E+00 -0.18208814970E+02  0.72461607130E+02  0.70000047985E+02 0.  0.
        -12    1    1    2    0    0 -0.43557884847E+01 -0.37941271633E+00  0.18208814970E+02  0.18726392870E+02  0.00000000000E+00 0.  1.
         11    1    3    3    0    0 -0.95182444176E+01  0.18244563067E+01 -0.12233011662E+01  0.97684227802E+01  0.51100000000E-03 0. -1.
        -11    1    3    3    0    0 -0.24038690310E+01 -0.59119924673E+01  0.20560025997E+02  0.21527770681E+02  0.51100000000E-03 0.  1.
         12    1    3    3    0    0  0.16277901933E+02  0.44669488769E+01 -0.37545539800E+02  0.41165413669E+02  0.00000000000E+00 0. -1.
</event>
<event>
 7    1  0.2655561E-013  0.7246156E+02  0.7816164E-02  0.1226708E+00
        -11   -1    0    0    0    0  0.00000000000E+00  0.00000000000E+00  0.45593999997E+02  0.45594000000E+02  0.51100000000E-03 0.  1.
         11   -1    0    0    0    0 -0.00000000000E+00 -0.00000000000E+00 -0.45593999997E+02  0.45594000000E+02  0.51100000000E-03 0. -1.
    9900012    2    1    2    0    0 -0.11160274151E+02 -0.15033488103E+02  0.34935509858E+00  0.72461560599E+02  0.69999987370E+02 0.  0.
        -12    1    1    2    0    0  0.11160274151E+02  0.15033488103E+02 -0.34935509858E+00  0.18726439401E+02  0.00000000000E+00 0.  1.
         11    1    3    3    0    0  0.34620238334E+01 -0.25870540786E+02 -0.24901171219E+01  0.26219671491E+02  0.51100000000E-03 0. -1.
        -11    1    3    3    0    0 -0.17839348775E+02 -0.12669673563E+02 -0.21862403571E+01  0.21989602999E+02  0.51100000000E-03 0.  1.
        -12    1    3    3    0    0  0.32170507902E+01  0.23506726246E+02  0.50257125776E+01  0.24252286109E+02  0.00000000000E+00 0.  1.
</event>
<event>
 7    1  0.2655561E-013  0.7246155E+02  0.7816164E-02  0.1226708E+00
        -11   -1    0    0    0    0  0.00000000000E+00  0.00000000000E+00  0.45593999997E+02  0.45594000000E+02  0.51100000000E-03 0.  1.
         11   -1    0    0    0    0 -0.00000000000E+00 -0.00000000000E+00 -0.45593999997E+02  0.45594000000E+02  0.51100000000E-03 0. -1.
    9900012    2    1    2    0    0  0.15966508087E+01 -0.17271198999E+02  0.70594725008E+01  0.72461554511E+02  0.69999979439E+02 0.  0.
        -12    1    1    2    0    0 -0.15966508087E+01  0.17271198999E+02 -0.70594725008E+01  0.18726445489E+02  0.00000000000E+00 0.  1.
         11    1    3    3    0    0  0.21554157664E+02 -0.85215359909E+01 -0.10259269740E+02  0.25346615240E+02  0.51100000000E-03 0. -1.
        -11    1    3    3    0    0  0.18362078313E+01 -0.12641807656E+02  0.21090328787E+02  0.24657431509E+02  0.51100000000E-03 0.  1.
         12    1    3    3    0    0 -0.21793714687E+02  0.38921446478E+01 -0.37715865458E+01  0.22457507762E+02  0.00000000000E+00 0. -1.
</event>
<event>
 7    1  0.2655561E-013  0.7246158E+02  0.7816164E-02  0.1226708E+00
        -11   -1    0    0    0    0  0.00000000000E+00  0.00000000000E+00  0.45593999997E+02  0.45594000000E+02  0.51100000000E-03 0.  1.
         11   -1    0    0    0    0 -0.00000000000E+00 -0.00000000000E+00 -0.45593999997E+02  0.45594000000E+02  0.51100000000E-03 0. -1.
    9900012    2    1    2    0    0 -0.12672840401E+02  0.12039826454E+02 -0.67171888881E+01  0.72461576651E+02  0.70000008281E+02 0.  0.
        -12    1    1    2    0    0  0.12672840401E+02 -0.12039826454E+02  0.67171888881E+01  0.18726423349E+02  0.00000000000E+00 0.  1.
         11    1    3    3    0    0  0.23346387201E+01  0.27064933828E+02  0.15303009533E+01  0.27208509741E+02  0.51100000000E-03 0. -1.
        -11    1    3    3    0    0  0.54131130533E+01  0.49671179271E+01 -0.14267666585E+02  0.16048064166E+02  0.51100000000E-03 0.  1.
        -12    1    3    3    0    0 -0.20420592174E+02 -0.19992225301E+02  0.60201767438E+01  0.29205002744E+02  0.00000000000E+00 0.  1.
</event>
<event>
 7    1  0.2655561E-013  0.7246166E+02  0.7816164E-02  0.1226708E+00
        -11   -1    0    0    0    0  0.00000000000E+00  0.00000000000E+00  0.45593999997E+02  0.45594000000E+02  0.51100000000E-03 0.  1.
         11   -1    0    0    0    0 -0.00000000000E+00 -0.00000000000E+00 -0.45593999997E+02  0.45594000000E+02  0.51100000000E-03 0. -1.
    9900012    2    1    2    0    0  0.17814696886E+02  0.56123114671E+01  0.13470241556E+01  0.72461656544E+02  0.70000112356E+02 0.  0.
        -12    1    1    2    0    0 -0.17814696886E+02 -0.56123114671E+01 -0.13470241556E+01  0.18726343456E+02  0.00000000000E+00 0.  1.
         11    1    3    3    0    0  0.27303386433E+01 -0.13980518878E+01  0.54005128949E+01  0.62108645112E+01  0.51100000000E-03 0. -1.
        -11    1    3    3    0    0  0.58317533360E+00 -0.22090911591E+00  0.29227726285E+02  0.29234378365E+02  0.51100000000E-03 0.  1.
         12    1    3    3    0    0  0.14501182909E+02  0.72312724708E+01 -0.33281215025E+02  0.37016413668E+02  0.00000000000E+00 0. -1.
</event>
<event>
 7    1  0.2655561E-013  0.7246154E+02  0.7816164E-02  0.1226708E+00
        -11   -1    0    0    0    0  0.00000000000E+00  0.00000000000E+00  0.45593999997E+02  0.45594000000E+02  0.51100000000E-03 0.  1.
         11   -1    0    0    0    0 -0.00000000000E+00 -0.00000000000E+00 -0.45593999997E+02  0.45594000000E+02  0.51100000000E-03 0. -1.
    9900012    2    1    2    0    0 -0.14737106617E+02  0.99914265989E+01 -0.58025362121E+01  0.72461538951E+02  0.69999959169E+02 0.  0.
        -12    1    1    2    0    0  0.14737106617E+02 -0.99914265989E+01  0.58025362121E+01  0.18726461049E+02  0.00000000000E+00 0.  1.
         11    1    3    3    0    0  0.14001292502E+02 -0.33228357709E+01  0.39430304975E+01  0.14920620599E+02  0.51100000000E-03 0. -1.
        -11    1    3    3    0    0 -0.82722175511E+01  0.17059242183E+02  0.15739780980E+02  0.24641185698E+02  0.51100000000E-03 0.  1.
         12    1    3    3    0    0 -0.20466181569E+02 -0.37449798127E+01 -0.25485347690E+02  0.32899732653E+02  0.00000000000E+00 0. -1.
</event>
<event>
 7    1  0.2655561E-013  0.7246138E+02  0.7816164E-02  0.1226709E+00
        -11   -1    0    0    0    0  0.00000000000E+00  0.00000000000E+00  0.45593999997E+02  0.45594000000E+02  0.51100000000E-03 0.  1.
         11   -1    0    0    0    0 -0.00000000000E+00 -0.00000000000E+00 -0.45593999997E+02  0.45594000000E+02  0.51100000000E-03 0. -1.
    9900012    2    1    2    0    0  0.83343521108E+01  0.40112296893E+00 -0.16764965979E+02  0.72461376999E+02  0.69999748196E+02 0.  0.
        -12    1    1    2    0    0 -0.83343521108E+01 -0.40112296893E+00  0.16764965979E+02  0.18726623001E+02  0.00000000000E+00 0.  1.
         11    1    3    3    0    0  0.15040944014E+02 -0.17851459798E+02  0.12817876180E+02  0.26630857361E+02  0.51100000000E-03 0. -1.
        -11    1    3    3    0    0  0.39022832573E+01 -0.67685868771E+01 -0.60734939800E+01  0.98959038152E+01  0.51100000000E-03 0.  1.
        -12    1    3    3    0    0 -0.10608875160E+02  0.25021169644E+02 -0.23509348180E+02  0.35934615823E+02  0.00000000000E+00 0.  1.
</event>
<event>
 7    1  0.2655561E-013  0.7246157E+02  0.7816164E-02  0.1226708E+00
        -11   -1    0    0    0    0  0.00000000000E+00  0.00000000000E+00  0.45593999997E+02  0.45594000000E+02  0.51100000000E-03 0.  1.
         11   -1    0    0    0    0 -0.00000000000E+00 -0.00000000000E+00 -0.45593999997E+02  0.45594000000E+02  0.51100000000E-03 0. -1.
    9900012    2    1    2    0    0 -0.17326408268E+02 -0.40982147615E+01 -0.58034109632E+01  0.72461565035E+02  0.69999993149E+02 0.  0.
        -12    1    1    2    0    0  0.17326408268E+02  0.40982147615E+01  0.58034109632E+01  0.18726434965E+02  0.00000000000E+00 0.  1.
         11    1    3    3    0    0  0.17872404210E+01 -0.72242219100E+00  0.42657110267E+00  0.19743569361E+01  0.51100000000E-03 0. -1.
        -11    1    3    3    0    0  0.57404781980E+01  0.17557177548E+00  0.27693991502E+02  0.28283229677E+02  0.51100000000E-03 0.  1.
         12    1    3    3    0    0 -0.24854126887E+02 -0.35513643459E+01 -0.33923973568E+02  0.42203978422E+02  0.00000000000E+00 0. -1.
</event>
<event>
 7    1  0.2655561E-013  0.7246157E+02  0.7816164E-02  0.1226708E+00
        -11   -1    0    0    0    0  0.00000000000E+00  0.00000000000E+00  0.45593999997E+02  0.45594000000E+02  0.51100000000E-03 0.  1.
         11   -1    0    0    0    0 -0.00000000000E+00 -0.00000000000E+00 -0.45593999997E+02  0.45594000000E+02  0.51100000000E-03 0. -1.
    9900012    2    1    2    0    0 -0.26987003679E+01  0.88900182319E+01 -0.16259264002E+02  0.72461572852E+02  0.70000003332E+02 0.  0.
        -12    1    1    2    0    0  0.26987003679E+01 -0.88900182319E+01  0.16259264002E+02  0.18726427148E+02  0.00000000000E+00 0.  1.
         11    1    3    3    0    0  0.15093431126E+02 -0.43363974620E+01  0.12919051094E+02  0.20335139230E+02  0.51100000000E-03 0. -1.
        -11    1    3    3    0    0 -0.36969255625E+00 -0.65446523273E+01  0.55102811912E+01  0.85634307225E+01  0.51100000000E-03 0.  1.
        -12    1    3    3    0    0 -0.17422438937E+02  0.19771068021E+02 -0.34688596287E+02  0.43563002899E+02  0.00000000000E+00 0.  1.
</event>
<event>
 7    1  0.2655561E-013  0.7246159E+02  0.7816164E-02  0.1226708E+00
        -11   -1    0    0    0    0  0.00000000000E+00  0.00000000000E+00  0.45593999997E+02  0.45594000000E+02  0.51100000000E-03 0.  1.
         11   -1    0    0    0    0 -0.00000000000E+00 -0.00000000000E+00 -0.45593999997E+02  0.45594000000E+02  0.51100000000E-03 0. -1.
    9900012    2    1    2    0    0 -0.15304592795E+02  0.41191464754E+01 -0.99739890482E+01  0.72461591219E+02  0.70000027258E+02 0.  0.
        -12    1    1    2    0    0  0.15304592795E+02 -0.41191464754E+01  0.99739890482E+01  0.18726408781E+02  0.00000000000E+00 0.  1.
         11    1    3    3    0    0  0.36144006753E+01 -0.11837398456E+02 -0.17493548562E+02  0.21429235544E+02  0.51100000000E-03 0. -1.
        -11    1    3    3    0    0  0.36278398499E+01  0.18777960089E+02 -0.10693117203E+02  0.21911544055E+02  0.51100000000E-03 0.  1.
         12    1    3    3    0    0 -0.22546833320E+02 -0.28214151585E+01  0.18212676716E+02  0.29120811620E+02  0.00000000000E+00 0. -1.
</event>
<event>
 7    1  0.2655561E-013  0.7246158E+02  0.7816164E-02  0.1226708E+00
        -11   -1    0    0    0    0  0.00000000000E+00  0.00000000000E+00  0.45593999997E+02  0.45594000000E+02  0.51100000000E-03 0.  1.
         11   -1    0    0    0    0 -0.00000000000E+00 -0.00000000000E+00 -0.45593999997E+02  0.45594000000E+02  0.51100000000E-03 0. -1.
    9900012    2    1    2    0    0 -0.16984628352E+02 -0.11900660010E+01 -0.77964747290E+01  0.72461578144E+02  0.70000010226E+02 0.  0.
        -12    1    1    2    0    0  0.16984628352E+02  0.11900660010E+01  0.77964747290E+01  0.18726421856E+02  0.00000000000E+00 0.  1.
         11    1    3    3    0    0  0.32661644030E+01  0.63159943142E+01 -0.53376660709E+01  0.88910231936E+01  0.51100000000E-03 0. -1.
        -11    1    3    3    0    0  0.20452788239E+02  0.35435441392E+01  0.32460676433E+01  0.21009764569E+02  0.51100000000E-03 0.  1.
        -12    1    3    3    0    0 -0.40703580994E+02 -0.11049604454E+02 -0.57048763014E+01  0.42560790382E+02  0.00000000000E+00 0.  1.
</event>
<event>
 7    1  0.2655561E-013  0.7246136E+02  0.7816164E-02  0.1226709E+00
        -11   -1    0    0    0    0  0.00000000000E+00  0.00000000000E+00  0.45593999997E+02  0.45594000000E+02  0.51100000000E-03 0.  1.
         11   -1    0    0    0    0 -0.00000000000E+00 -0.00000000000E+00 -0.45593999997E+02  0.45594000000E+02  0.51100000000E-03 0. -1.
    9900012    2    1    2    0    0 -0.15810909387E+02  0.38625810288E+01 -0.92618950251E+01  0.72461358889E+02  0.69999724604E+02 0.  0.
        -12    1    1    2    0    0  0.15810909387E+02 -0.38625810288E+01  0.92618950251E+01  0.18726641111E+02  0.00000000000E+00 0.  1.
         11    1    3    3    0    0 -0.17097170351E+02  0.25111639817E+02 -0.20357676777E+02  0.36569696367E+02  0.51100000000E-03 0. -1.
        -11    1    3    3    0    0  0.74184321213E+01 -0.10739733075E+02 -0.64344241661E+01  0.14552553600E+02  0.51100000000E-03 0.  1.
        -12    1    3    3    0    0 -0.61321711571E+01 -0.10509325713E+02  0.17530205918E+02  0.21339108922E+02  0.00000000000E+00 0.  1.
</event>
<event>
 7    1  0.2655561E-013  0.7246153E+02  0.7816164E-02  0.1226708E+00
        -11   -1    0    0    0    0  0.00000000000E+00  0.00000000000E+00  0.45593999997E+02  0.45594000000E+02  0.51100000000E-03 0. -1.
         11   -1    0    0    0    0 -0.00000000000E+00 -0.00000000000E+00 -0.45593999997E+02  0.45594000000E+02  0.51100000000E-03 0.  1.
    9900012    2    1    2    0    0 -0.15789295701E+02 -0.98695546633E+01 -0.19926310359E+01  0.72461533531E+02  0.69999952108E+02 0.  0.
        -12    1    1    2    0    0  0.15789295701E+02  0.98695546633E+01  0.19926310359E+01  0.18726466469E+02  0.00000000000E+00 0.  1.
         11    1    3    3    0    0 -0.81266709951E+01 -0.16829160569E+02 -0.19582234465E+01  0.18790903817E+02  0.51100000000E-03 0. -1.
        -11    1    3    3    0    0  0.11028019463E+02 -0.84966445486E+01 -0.18524654142E+02  0.23172677731E+02  0.51100000000E-03 0.  1.
         12    1    3    3    0    0 -0.18690644169E+02  0.15456250455E+02  0.18490246553E+02  0.30497951983E+02  0.00000000000E+00 0. -1.
</event>
<event>
 7    1  0.2655561E-013  0.7246145E+02  0.7816164E-02  0.1226708E+00
        -11   -1    0    0    0    0  0.00000000000E+00  0.00000000000E+00  0.45593999997E+02  0.45594000000E+02  0.51100000000E-03 0.  1.
         11   -1    0    0    0    0 -0.00000000000E+00 -0.00000000000E+00 -0.45593999997E+02  0.45594000000E+02  0.51100000000E-03 0. -1.
    9900012    2    1    2    0    0  0.18232983547E+02  0.11572077728E+01  0.41113128699E+01  0.72461448999E+02  0.69999841991E+02 0.  0.
        -12    1    1    2    0    0 -0.18232983547E+02 -0.11572077728E+01 -0.41113128699E+01  0.18726551001E+02  0.00000000000E+00 0.  1.
         11    1    3    3    0    0 -0.13970332639E+01 -0.92130133897E+00  0.49585860399E+01  0.52333616227E+01  0.51100000000E-03 0. -1.
        -11    1    3    3    0    0 -0.13495429722E+02  0.16019761435E+02  0.17115129935E+02  0.27049714467E+02  0.51100000000E-03 0.  1.
         12    1    3    3    0    0  0.33125446533E+02 -0.13941252323E+02 -0.17962403105E+02  0.40178372910E+02  0.00000000000E+00 0. -1.
</event>
<event>
 7    1  0.2655561E-013  0.7246154E+02  0.7816164E-02  0.1226708E+00
        -11   -1    0    0    0    0  0.00000000000E+00  0.00000000000E+00  0.45593999997E+02  0.45594000000E+02  0.51100000000E-03 0. -1.
         11   -1    0    0    0    0 -0.00000000000E+00 -0.00000000000E+00 -0.45593999997E+02  0.45594000000E+02  0.51100000000E-03 0.  1.
    9900012    2    1    2    0    0  0.53431861089E+01 -0.77684157951E+01  0.16179688165E+02  0.72461541956E+02  0.69999963083E+02 0.  0.
        -12    1    1    2    0    0 -0.53431861089E+01  0.77684157951E+01 -0.16179688165E+02  0.18726458044E+02  0.00000000000E+00 0.  1.
         11    1    3    3    0    0  0.22108267132E+02 -0.78150187762E+01  0.72063656746E+01  0.24531239279E+02  0.51100000000E-03 0. -1.
        -11    1    3    3    0    0  0.10236221599E+02 -0.13319487039E+02  0.13516194955E+01  0.16852769598E+02  0.51100000000E-03 0.  1.
        -12    1    3    3    0    0 -0.27001302622E+02  0.13366090020E+02  0.76217029953E+01  0.31077533079E+02  0.00000000000E+00 0.  1.
</event>
<event>
 7    1  0.2655561E-013  0.7246159E+02  0.7816164E-02  0.1226708E+00
        -11   -1    0    0    0    0  0.00000000000E+00  0.00000000000E+00  0.45593999997E+02  0.45594000000E+02  0.51100000000E-03 0. -1.
         11   -1    0    0    0    0 -0.00000000000E+00 -0.00000000000E+00 -0.45593999997E+02  0.45594000000E+02  0.51100000000E-03 0.  1.
    9900012    2    1    2    0    0 -0.49958660344E+01 -0.35705965539E+01  0.17690978422E+02  0.72461586710E+02  0.70000021384E+02 0.  0.
        -12    1    1    2    0    0  0.49958660344E+01  0.35705965539E+01 -0.17690978422E+02  0.18726413290E+02  0.00000000000E+00 0.  1.
         11    1    3    3    0    0 -0.12830988519E+02  0.57259902164E+01  0.20681960330E+02  0.25003294057E+02  0.51100000000E-03 0. -1.
        -11    1    3    3    0    0 -0.38919750478E+01  0.12819389200E+02 -0.14642612501E+02  0.19846670007E+02  0.51100000000E-03 0.  1.
         12    1    3    3    0    0  0.11727097533E+02 -0.22115975970E+02  0.11651630593E+02  0.27611622646E+02  0.00000000000E+00 0. -1.
</event>
<event>
 7    1  0.2655561E-013  0.7246158E+02  0.7816164E-02  0.1226708E+00
        -11   -1    0    0    0    0  0.00000000000E+00  0.00000000000E+00  0.45593999997E+02  0.45594000000E+02  0.51100000000E-03 0. -1.
         11   -1    0    0    0    0 -0.00000000000E+00 -0.00000000000E+00 -0.45593999997E+02  0.45594000000E+02  0.51100000000E-03 0.  1.
    9900012    2    1    2    0    0  0.16873467782E+02  0.67059978731E+01 -0.45819764342E+01  0.72461579346E+02  0.70000011792E+02 0.  0.
        -12    1    1    2    0    0 -0.16873467782E+02 -0.67059978731E+01  0.45819764342E+01  0.18726420654E+02  0.00000000000E+00 0.  1.
         11    1    3    3    0    0  0.14289230875E+02  0.10009438376E+02  0.18669191817E+01  0.17545836061E+02  0.51100000000E-03 0. -1.
        -11    1    3    3    0    0 -0.96585747096E+01  0.20317364369E+02  0.89089931940E+01  0.24196146807E+02  0.51100000000E-03 0.  1.
        -12    1    3    3    0    0  0.12242811616E+02 -0.23620804872E+02 -0.15357888810E+02  0.30719596478E+02  0.00000000000E+00 0.  1.
</event>
<event>
 7    1  0.2655561E-013  0.7246162E+02  0.7816164E-02  0.1226708E+00
        -11   -1    0    0    0    0  0.00000000000E+00  0.00000000000E+00  0.45593999997E+02  0.45594000000E+02  0.51100000000E-03 0.  1.
         11   -1    0    0    0    0 -0.00000000000E+00 -0.00000000000E+00 -0.45593999997E+02  0.45594000000E+02  0.51100000000E-03 0. -1.
    9900012    2    1    2    0    0 -0.12271770705E+02 -0.86246821695E+01 -0.11211415416E+02  0.72461619293E+02  0.70000063830E+02 0.  0.
        -12    1    1    2    0    0  0.12271770705E+02  0.86246821695E+01  0.11211415416E+02  0.18726380707E+02  0.00000000000E+00 0.  1.
         11    1    3    3    0    0 -0.26061931735E+02 -0.12468974185E+02 -0.13204295800E+02  0.31765595080E+02  0.51100000000E-03 0. -1.
        -11    1    3    3    0    0 -0.12088341352E+02 -0.17688836956E+01 -0.51671042428E+01  0.13264837455E+02  0.51100000000E-03 0.  1.
        -12    1    3    3    0    0  0.25878502382E+02  0.56131757107E+01  0.71599846268E+01  0.27431186758E+02  0.00000000000E+00 0.  1.
</event>
<event>
 7    1  0.2655561E-013  0.7246155E+02  0.7816164E-02  0.1226708E+00
        -11   -1    0    0    0    0  0.00000000000E+00  0.00000000000E+00  0.45593999997E+02  0.45594000000E+02  0.51100000000E-03 0.  1.
         11   -1    0    0    0    0 -0.00000000000E+00 -0.00000000000E+00 -0.45593999997E+02  0.45594000000E+02  0.51100000000E-03 0. -1.
    9900012    2    1    2    0    0 -0.13131977031E+02  0.96802385126E+01 -0.91936885405E+01  0.72461554866E+02  0.69999979901E+02 0.  0.
        -12    1    1    2    0    0  0.13131977031E+02 -0.96802385126E+01  0.91936885405E+01  0.18726445134E+02  0.00000000000E+00 0.  1.
         11    1    3    3    0    0  0.47542834353E+01 -0.20861693143E+01 -0.20887595948E+02  0.21523173050E+02  0.51100000000E-03 0. -1.
        -11    1    3    3    0    0  0.15122479688E+02  0.44886673231E+01  0.39249528088E+01  0.16255546163E+02  0.51100000000E-03 0.  1.
         12    1    3    3    0    0 -0.33008740154E+02  0.72777405038E+01  0.77689545984E+01  0.34682835653E+02  0.00000000000E+00 0. -1.
</event>
<event>
 7    1  0.2655561E-013  0.7246156E+02  0.7816164E-02  0.1226708E+00
        -11   -1    0    0    0    0  0.00000000000E+00  0.00000000000E+00  0.45593999997E+02  0.45594000000E+02  0.51100000000E-03 0.  1.
         11   -1    0    0    0    0 -0.00000000000E+00 -0.00000000000E+00 -0.45593999997E+02  0.45594000000E+02  0.51100000000E-03 0. -1.
    9900012    2    1    2    0    0  0.10627472587E+02 -0.73638027047E+01 -0.13546609173E+02  0.72461564569E+02  0.69999992542E+02 0.  0.
        -12    1    1    2    0    0 -0.10627472587E+02  0.73638027047E+01  0.13546609173E+02  0.18726435431E+02  0.00000000000E+00 0.  1.
         11    1    3    3    0    0  0.69424799434E+01 -0.47843551764E+01 -0.28337082369E+01  0.88948291075E+01  0.51100000000E-03 0. -1.
        -11    1    3    3    0    0 -0.55470513250E+01 -0.18093481694E+02 -0.31056263201E+02  0.36368053873E+02  0.51100000000E-03 0.  1.
        -12    1    3    3    0    0  0.92320439687E+01  0.15514034165E+02  0.20343362265E+02  0.27198681589E+02  0.00000000000E+00 0.  1.
</event>
<event>
 7    1  0.2655561E-013  0.7246160E+02  0.7816164E-02  0.1226708E+00
        -11   -1    0    0    0    0  0.00000000000E+00  0.00000000000E+00  0.45593999997E+02  0.45594000000E+02  0.51100000000E-03 0. -1.
         11   -1    0    0    0    0 -0.00000000000E+00 -0.00000000000E+00 -0.45593999997E+02  0.45594000000E+02  0.51100000000E-03 0.  1.
    9900012    2    1    2    0    0 -0.50784431504E+01  0.17982845385E+02  0.12267322266E+01  0.72461596583E+02  0.70000034246E+02 0.  0.
        -12    1    1    2    0    0  0.50784431504E+01 -0.17982845385E+02 -0.12267322266E+01  0.18726403417E+02  0.00000000000E+00 0.  1.
         11    1    3    3    0    0 -0.63375295692E+01 -0.12966401913E+02 -0.97090760848E+01  0.17394194960E+02  0.51100000000E-03 0. -1.
        -11    1    3    3    0    0  0.27699191533E+01 -0.99204980686E+01 -0.46495100437E+01  0.11300737938E+02  0.51100000000E-03 0.  1.
         12    1    3    3    0    0 -0.15108327345E+01  0.40869745367E+02  0.15585318355E+02  0.43766663685E+02  0.00000000000E+00 0. -1.
</event>
<event>
 7    1  0.2655561E-013  0.7246153E+02  0.7816164E-02  0.1226708E+00
        -11   -1    0    0    0    0  0.00000000000E+00  0.00000000000E+00  0.45593999997E+02  0.45594000000E+02  0.51100000000E-03 0. -1.
         11   -1    0    0    0    0 -0.00000000000E+00 -0.00000000000E+00 -0.45593999997E+02  0.45594000000E+02  0.51100000000E-03 0.  1.
    9900012    2    1    2    0    0 -0.15283577959E+02  0.45116557860E+01  0.98355358291E+01  0.72461533216E+02  0.69999951699E+02 0.  0.
        -12    1    1    2    0    0  0.15283577959E+02 -0.45116557860E+01 -0.98355358291E+01  0.18726466784E+02  0.00000000000E+00 0.  1.
         11    1    3    3    0    0 -0.11779546540E+02 -0.78482311447E+01 -0.43940685080E+00  0.14161409796E+02  0.51100000000E-03 0. -1.
        -11    1    3    3    0    0 -0.16547312314E+02 -0.10326452347E+02 -0.12866860192E+02  0.23366755324E+02  0.51100000000E-03 0.  1.
         12    1    3    3    0    0  0.13043280895E+02  0.22686339278E+02  0.23141802872E+02  0.34933368096E+02  0.00000000000E+00 0. -1.
</event>
<event>
 7    1  0.2655561E-013  0.7246197E+02  0.7816164E-02  0.1226707E+00
        -11   -1    0    0    0    0  0.00000000000E+00  0.00000000000E+00  0.45593999997E+02  0.45594000000E+02  0.51100000000E-03 0.  1.
         11   -1    0    0    0    0 -0.00000000000E+00 -0.00000000000E+00 -0.45593999997E+02  0.45594000000E+02  0.51100000000E-03 0. -1.
    9900012    2    1    2    0    0  0.38821792318E+01 -0.22142418709E+01 -0.18184880884E+02  0.72461973314E+02  0.70000525007E+02 0.  0.
        -12    1    1    2    0    0 -0.38821792318E+01  0.22142418709E+01  0.18184880884E+02  0.18726026686E+02  0.00000000000E+00 0.  1.
         11    1    3    3    0    0 -0.22689328883E+02  0.17707238860E+01  0.64377545600E+01  0.23651338065E+02  0.51100000000E-03 0.  1.
        -11    1    3    3    0    0 -0.75557048241E+01  0.70204081909E+00 -0.58386687639E+01  0.95745281814E+01  0.51100000000E-03 0. -1.
        -12    1    3    3    0    0  0.34127212939E+02 -0.46870065760E+01 -0.18783966680E+02  0.39236107068E+02  0.00000000000E+00 0.  1.
</event>
<event>
 7    1  0.2655561E-013  0.7246159E+02  0.7816164E-02  0.1226708E+00
        -11   -1    0    0    0    0  0.00000000000E+00  0.00000000000E+00  0.45593999997E+02  0.45594000000E+02  0.51100000000E-03 0. -1.
         11   -1    0    0    0    0 -0.00000000000E+00 -0.00000000000E+00 -0.45593999997E+02  0.45594000000E+02  0.51100000000E-03 0.  1.
    9900012    2    1    2    0    0  0.10539571746E+02  0.14032775599E+02  0.65327808818E+01  0.72461585777E+02  0.70000020169E+02 0.  0.
        -12    1    1    2    0    0 -0.10539571746E+02 -0.14032775599E+02 -0.65327808818E+01  0.18726414223E+02  0.00000000000E+00 0.  1.
         11    1    3    3    0    0  0.23988967163E+01  0.92888948954E+00  0.17376969305E+02  0.17566348614E+02  0.51100000000E-03 0. -1.
        -11    1    3    3    0    0  0.32440151563E+01  0.33554789163E+01  0.20855281136E+02  0.21371139993E+02  0.51100000000E-03 0.  1.
        -12    1    3    3    0    0  0.48966598737E+01  0.97484071934E+01 -0.31699469559E+02  0.33524097170E+02  0.00000000000E+00 0.  1.
</event>
<event>
 7    1  0.2655561E-013  0.7246159E+02  0.7816164E-02  0.1226708E+00
        -11   -1    0    0    0    0  0.00000000000E+00  0.00000000000E+00  0.45593999997E+02  0.45594000000E+02  0.51100000000E-03 0.  1.
         11   -1    0    0    0    0 -0.00000000000E+00 -0.00000000000E+00 -0.45593999997E+02  0.45594000000E+02  0.51100000000E-03 0. -1.
    9900012    2    1    2    0    0  0.15216120269E+02 -0.79021645425E+01 -0.75302041515E+01  0.72461588303E+02  0.70000023460E+02 0.  0.
        -12    1    1    2    0    0 -0.15216120269E+02  0.79021645425E+01  0.75302041515E+01  0.18726411697E+02  0.00000000000E+00 0.  1.
         11    1    3    3    0    0  0.66335410714E+01 -0.18779430965E+02 -0.24188066525E+02  0.31332626079E+02  0.51100000000E-03 0. -1.
        -11    1    3    3    0    0 -0.12610207887E+02  0.43437705729E+01 -0.91284677438E-01  0.13337691663E+02  0.51100000000E-03 0.  1.
        -12    1    3    3    0    0  0.21192787085E+02  0.65334958491E+01  0.16749147051E+02  0.27791270561E+02  0.00000000000E+00 0.  1.
</event>
<event>
 7    1  0.2655561E-013  0.7246156E+02  0.7816164E-02  0.1226708E+00
        -11   -1    0    0    0    0  0.00000000000E+00  0.00000000000E+00  0.45593999997E+02  0.45594000000E+02  0.51100000000E-03 0.  1.
         11   -1    0    0    0    0 -0.00000000000E+00 -0.00000000000E+00 -0.45593999997E+02  0.45594000000E+02  0.51100000000E-03 0. -1.
    9900012    2    1    2    0    0 -0.46776902714E+01 -0.17942750785E+02  0.26184948614E+01  0.72461558605E+02  0.69999984772E+02 0.  0.
        -12    1    1    2    0    0  0.46776902714E+01  0.17942750785E+02 -0.26184948614E+01  0.18726441395E+02  0.00000000000E+00 0.  1.
         11    1    3    3    0    0 -0.32024602985E+01 -0.10209139058E+02 -0.27620409663E+02  0.29620420363E+02  0.51100000000E-03 0. -1.
        -11    1    3    3    0    0 -0.64448582187E+01  0.93408790409E+00 -0.36808612824E+01  0.74804717574E+01  0.51100000000E-03 0.  1.
        -12    1    3    3    0    0  0.49696282458E+01 -0.86676996309E+01  0.33919765807E+02  0.35360666484E+02  0.00000000000E+00 0.  1.
</event>
<event>
 7    1  0.2655561E-013  0.7246154E+02  0.7816164E-02  0.1226708E+00
        -11   -1    0    0    0    0  0.00000000000E+00  0.00000000000E+00  0.45593999997E+02  0.45594000000E+02  0.51100000000E-03 0. -1.
         11   -1    0    0    0    0 -0.00000000000E+00 -0.00000000000E+00 -0.45593999997E+02  0.45594000000E+02  0.51100000000E-03 0.  1.
    9900012    2    1    2    0    0  0.88547353513E+01  0.15568504843E+02 -0.54676999160E+01  0.72461536812E+02  0.69999956382E+02 0.  0.
        -12    1    1    2    0    0 -0.88547353513E+01 -0.15568504843E+02  0.54676999160E+01  0.18726463188E+02  0.00000000000E+00 0.  1.
         11    1    3    3    0    0 -0.13074800821E+01  0.86557768653E+01  0.53353479601E+01  0.10251727436E+02  0.51100000000E-03 0. -1.
        -11    1    3    3    0    0 -0.16440117810E+02  0.10588657419E+02 -0.25074408182E+02  0.31798161669E+02  0.51100000000E-03 0.  1.
         12    1    3    3    0    0  0.26602333244E+02 -0.36759294421E+01  0.14271360306E+02  0.30411647707E+02  0.00000000000E+00 0. -1.
</event>
<event>
 7    1  0.2655561E-013  0.7246164E+02  0.7816164E-02  0.1226708E+00
        -11   -1    0    0    0    0  0.00000000000E+00  0.00000000000E+00  0.45593999997E+02  0.45594000000E+02  0.51100000000E-03 0.  1.
         11   -1    0    0    0    0 -0.00000000000E+00 -0.00000000000E+00 -0.45593999997E+02  0.45594000000E+02  0.51100000000E-03 0. -1.
    9900012    2    1    2    0    0 -0.13587483815E+02  0.11086259508E+02  0.65689999415E+01  0.72461638193E+02  0.70000088450E+02 0.  0.
        -12    1    1    2    0    0  0.13587483815E+02 -0.11086259508E+02 -0.65689999415E+01  0.18726361807E+02  0.00000000000E+00 0.  1.
         11    1    3    3    0    0 -0.29137205451E+02  0.22186108037E+02 -0.56099840546E+01  0.37049589103E+02  0.51100000000E-03 0. -1.
        -11    1    3    3    0    0 -0.73400134926E+01  0.42813236691E+00  0.46529210283E+01  0.87010786546E+01  0.51100000000E-03 0.  1.
        -12    1    3    3    0    0  0.22889735129E+02 -0.11527980896E+02  0.75260629677E+01  0.26710970435E+02  0.00000000000E+00 0.  1.
</event>
<event>
 7    1  0.2655561E-013  0.7246152E+02  0.7816164E-02  0.1226708E+00
        -11   -1    0    0    0    0  0.00000000000E+00  0.00000000000E+00  0.45593999997E+02  0.45594000000E+02  0.51100000000E-03 0.  1.
         11   -1    0    0    0    0 -0.00000000000E+00 -0.00000000000E+00 -0.45593999997E+02  0.45594000000E+02  0.51100000000E-03 0. -1.
    9900012    2    1    2    0    0 -0.58260177196E+00 -0.99905121480E+01 -0.15828182969E+02  0.72461517845E+02  0.69999931675E+02 0.  0.
        -12    1    1    2    0    0  0.58260177196E+00  0.99905121480E+01  0.15828182969E+02  0.18726482155E+02  0.00000000000E+00 0.  1.
         11    1    3    3    0    0  0.15212379192E+02 -0.26532393446E+02 -0.19171254689E+02  0.36096002400E+02  0.51100000000E-03 0. -1.
        -11    1    3    3    0    0 -0.22019627178E+01  0.35616368986E+01 -0.11613675399E+02  0.12345499332E+02  0.51100000000E-03 0.  1.
        -12    1    3    3    0    0 -0.13593018246E+02  0.12980244399E+02  0.14956747120E+02  0.24020016113E+02  0.00000000000E+00 0.  1.
</event>
<event>
 7    1  0.2655561E-013  0.7246159E+02  0.7816164E-02  0.1226708E+00
        -11   -1    0    0    0    0  0.00000000000E+00  0.00000000000E+00  0.45593999997E+02  0.45594000000E+02  0.51100000000E-03 0. -1.
         11   -1    0    0    0    0 -0.00000000000E+00 -0.00000000000E+00 -0.45593999997E+02  0.45594000000E+02  0.51100000000E-03 0.  1.
    9900012    2    1    2    0    0  0.19973265384E+01  0.75100998116E+01  0.17037829972E+02  0.72461586498E+02  0.70000021108E+02 0.  0.
        -12    1    1    2    0    0 -0.19973265384E+01 -0.75100998116E+01 -0.17037829972E+02  0.18726413502E+02  0.00000000000E+00 0.  1.
         11    1    3    3    0    0 -0.22603729424E+01 -0.23670959864E+01  0.13639340609E+02  0.14026547749E+02  0.51100000000E-03 0. -1.
        -11    1    3    3    0    0  0.83485463249E+01  0.46500796354E+00  0.29355362013E+02  0.30522970651E+02  0.51100000000E-03 0.  1.
        -12    1    3    3    0    0 -0.40908468440E+01  0.94121878345E+01 -0.25956872650E+02  0.27912068098E+02  0.00000000000E+00 0.  1.
</event>
<event>
 7    1  0.2655561E-013  0.7246156E+02  0.7816164E-02  0.1226708E+00
        -11   -1    0    0    0    0  0.00000000000E+00  0.00000000000E+00  0.45593999997E+02  0.45594000000E+02  0.51100000000E-03 0.  1.
         11   -1    0    0    0    0 -0.00000000000E+00 -0.00000000000E+00 -0.45593999997E+02  0.45594000000E+02  0.51100000000E-03 0. -1.
    9900012    2    1    2    0    0  0.71029040776E+01 -0.17307314318E+02 -0.82770168034E+00  0.72461562397E+02  0.69999989712E+02 0.  0.
        -12    1    1    2    0    0 -0.71029040776E+01  0.17307314318E+02  0.82770168034E+00  0.18726437603E+02  0.00000000000E+00 0.  1.
         11    1    3    3    0    0  0.13730240073E+02 -0.20204794527E+02  0.69388865958E+01  0.25394908186E+02  0.51100000000E-03 0. -1.
        -11    1    3    3    0    0 -0.14007568925E+02 -0.32162678602E+01  0.15960164628E+02  0.21477505008E+02  0.51100000000E-03 0.  1.
         12    1    3    3    0    0  0.73802329288E+01  0.61137480693E+01 -0.23726752905E+02  0.25589149203E+02  0.00000000000E+00 0. -1.
</event>
<event>
 7    1  0.2655561E-013  0.7246157E+02  0.7816164E-02  0.1226708E+00
        -11   -1    0    0    0    0  0.00000000000E+00  0.00000000000E+00  0.45593999997E+02  0.45594000000E+02  0.51100000000E-03 0.  1.
         11   -1    0    0    0    0 -0.00000000000E+00 -0.00000000000E+00 -0.45593999997E+02  0.45594000000E+02  0.51100000000E-03 0. -1.
    9900012    2    1    2    0    0  0.40252820138E+01  0.17714598760E+02 -0.45463561611E+01  0.72461567909E+02  0.69999996892E+02 0.  0.
        -12    1    1    2    0    0 -0.40252820138E+01 -0.17714598760E+02  0.45463561611E+01  0.18726432091E+02  0.00000000000E+00 0.  1.
         11    1    3    3    0    0 -0.10896524017E+02  0.15553198163E+02  0.12242974621E+02  0.22594836502E+02  0.51100000000E-03 0. -1.
        -11    1    3    3    0    0 -0.15525241172E+02  0.41543938653E+01 -0.28540155498E+01  0.16322913553E+02  0.51100000000E-03 0.  1.
         12    1    3    3    0    0  0.30447047203E+02 -0.19929932679E+01 -0.13935315232E+02  0.33543817853E+02  0.00000000000E+00 0. -1.
</event>
<event>
 7    1  0.2655561E-013  0.7246203E+02  0.7816164E-02  0.1226707E+00
        -11   -1    0    0    0    0  0.00000000000E+00  0.00000000000E+00  0.45593999997E+02  0.45594000000E+02  0.51100000000E-03 0.  1.
         11   -1    0    0    0    0 -0.00000000000E+00 -0.00000000000E+00 -0.45593999997E+02  0.45594000000E+02  0.51100000000E-03 0. -1.
    9900012    2    1    2    0    0 -0.11967407517E+02  0.38844333811E+01 -0.13869180293E+02  0.72462033340E+02  0.70000603200E+02 0.  0.
        -12    1    1    2    0    0  0.11967407517E+02 -0.38844333811E+01  0.13869180293E+02  0.18725966660E+02  0.00000000000E+00 0.  1.
         11    1    3    3    0    0  0.28039822349E+01  0.86822716320E+00 -0.23898032926E+02  0.24077626810E+02  0.51100000000E-03 0. -1.
        -11    1    3    3    0    0 -0.25051142603E+02  0.89201980788E+01 -0.71277803138E+01  0.27530618081E+02  0.51100000000E-03 0.  1.
        -12    1    3    3    0    0  0.10279752851E+02 -0.59039918610E+01  0.17156632947E+02  0.20853788449E+02  0.00000000000E+00 0.  1.
</event>
<event>
 7    1  0.2655561E-013  0.7246154E+02  0.7816164E-02  0.1226708E+00
        -11   -1    0    0    0    0  0.00000000000E+00  0.00000000000E+00  0.45593999997E+02  0.45594000000E+02  0.51100000000E-03 0. -1.
         11   -1    0    0    0    0 -0.00000000000E+00 -0.00000000000E+00 -0.45593999997E+02  0.45594000000E+02  0.51100000000E-03 0.  1.
    9900012    2    1    2    0    0 -0.35221760124E+01 -0.13199501191E+02  0.12808105652E+02  0.72461544758E+02  0.69999966734E+02 0.  0.
        -12    1    1    2    0    0  0.35221760124E+01  0.13199501191E+02 -0.12808105652E+02  0.18726455242E+02  0.00000000000E+00 0.  1.
         11    1    3    3    0    0 -0.56412859982E+01  0.14690955075E+01  0.13283446108E+02  0.14506284504E+02  0.51100000000E-03 0. -1.
        -11    1    3    3    0    0  0.18002672587E+02 -0.21102748128E+02  0.17755342849E+02  0.32934395375E+02  0.51100000000E-03 0.  1.
        -12    1    3    3    0    0 -0.15883562601E+02  0.64341514287E+01 -0.18230683305E+02  0.25020864879E+02  0.00000000000E+00 0.  1.
</event>
<event>
 7    1  0.2655561E-013  0.7246159E+02  0.7816164E-02  0.1226708E+00
        -11   -1    0    0    0    0  0.00000000000E+00  0.00000000000E+00  0.45593999997E+02  0.45594000000E+02  0.51100000000E-03 0.  1.
         11   -1    0    0    0    0 -0.00000000000E+00 -0.00000000000E+00 -0.45593999997E+02  0.45594000000E+02  0.51100000000E-03 0. -1.
    9900012    2    1    2    0    0 -0.17363780537E+02  0.64608395073E+01  0.27267610934E+01  0.72461586896E+02  0.70000021626E+02 0.  0.
        -12    1    1    2    0    0  0.17363780537E+02 -0.64608395073E+01 -0.27267610934E+01  0.18726413104E+02  0.00000000000E+00 0.  1.
         11    1    3    3    0    0 -0.10223919001E+02 -0.77532121989E+01  0.12938165604E+01  0.12896308801E+02  0.51100000000E-03 0. -1.
        -11    1    3    3    0    0 -0.20031349904E+02  0.19155467910E+02 -0.19924080243E+02  0.34134380082E+02  0.51100000000E-03 0.  1.
        -12    1    3    3    0    0  0.12891488367E+02 -0.49414162043E+01  0.21357024776E+02  0.25430898012E+02  0.00000000000E+00 0.  1.
</event>
<event>
 7    1  0.2655561E-013  0.7246159E+02  0.7816164E-02  0.1226708E+00
        -11   -1    0    0    0    0  0.00000000000E+00  0.00000000000E+00  0.45593999997E+02  0.45594000000E+02  0.51100000000E-03 0. -1.
         11   -1    0    0    0    0 -0.00000000000E+00 -0.00000000000E+00 -0.45593999997E+02  0.45594000000E+02  0.51100000000E-03 0.  1.
    9900012    2    1    2    0    0  0.65071429824E+01 -0.17545760011E+02 -0.69402025328E+00  0.72461594358E+02  0.70000031348E+02 0.  0.
        -12    1    1    2    0    0 -0.65071429824E+01  0.17545760011E+02  0.69402025328E+00  0.18726405642E+02  0.00000000000E+00 0.  1.
         11    1    3    3    0    0 -0.64874457331E+01 -0.25757780648E+02 -0.22637665256E+01  0.26658485613E+02  0.51100000000E-03 0.  1.
        -11    1    3    3    0    0  0.24773108407E+02 -0.50202988244E+01  0.86638796510E+01  0.26720275285E+02  0.51100000000E-03 0. -1.
         12    1    3    3    0    0 -0.11778519692E+02  0.13232319462E+02 -0.70941333787E+01  0.19082833460E+02  0.00000000000E+00 0. -1.
</event>
<event>
 7    1  0.2655561E-013  0.7246145E+02  0.7816164E-02  0.1226708E+00
        -11   -1    0    0    0    0  0.00000000000E+00  0.00000000000E+00  0.45593999997E+02  0.45594000000E+02  0.51100000000E-03 0.  1.
         11   -1    0    0    0    0 -0.00000000000E+00 -0.00000000000E+00 -0.45593999997E+02  0.45594000000E+02  0.51100000000E-03 0. -1.
    9900012    2    1    2    0    0  0.68704692110E+01  0.26095851908E+00 -0.17418731629E+02  0.72461450449E+02  0.69999843879E+02 0.  0.
        -12    1    1    2    0    0 -0.68704692110E+01 -0.26095851908E+00  0.17418731629E+02  0.18726549551E+02  0.00000000000E+00 0.  1.
         11    1    3    3    0    0  0.20866288529E+02 -0.14444554625E+02 -0.35258625397E+01  0.25621843458E+02  0.51100000000E-03 0. -1.
        -11    1    3    3    0    0  0.12476454353E+01  0.27638505981E+01  0.13196794745E+02  0.13540711985E+02  0.51100000000E-03 0.  1.
         12    1    3    3    0    0 -0.15243464753E+02  0.11941662546E+02 -0.27089663834E+02  0.33298895007E+02  0.00000000000E+00 0. -1.
</event>
<event>
 7    1  0.2655561E-013  0.7246157E+02  0.7816164E-02  0.1226708E+00
        -11   -1    0    0    0    0  0.00000000000E+00  0.00000000000E+00  0.45593999997E+02  0.45594000000E+02  0.51100000000E-03 0.  1.
         11   -1    0    0    0    0 -0.00000000000E+00 -0.00000000000E+00 -0.45593999997E+02  0.45594000000E+02  0.51100000000E-03 0. -1.
    9900012    2    1    2    0    0 -0.22341959202E+01 -0.63015519302E+01 -0.17492226609E+02  0.72461570018E+02  0.69999999640E+02 0.  0.
        -12    1    1    2    0    0  0.22341959202E+01  0.63015519302E+01  0.17492226609E+02  0.18726429982E+02  0.00000000000E+00 0.  1.
         11    1    3    3    0    0 -0.21919909522E+02 -0.24139032295E+01 -0.16618235474E+02  0.27612951903E+02  0.51100000000E-03 0. -1.
        -11    1    3    3    0    0  0.14345031066E+01  0.63697201438E+01 -0.17136634733E+02  0.18338358272E+02  0.51100000000E-03 0.  1.
        -12    1    3    3    0    0  0.18251210495E+02 -0.10257368845E+02  0.16262643598E+02  0.26510259843E+02  0.00000000000E+00 0.  1.
</event>
<event>
 7    1  0.2655561E-013  0.7246156E+02  0.7816164E-02  0.1226708E+00
        -11   -1    0    0    0    0  0.00000000000E+00  0.00000000000E+00  0.45593999997E+02  0.45594000000E+02  0.51100000000E-03 0.  1.
         11   -1    0    0    0    0 -0.00000000000E+00 -0.00000000000E+00 -0.45593999997E+02  0.45594000000E+02  0.51100000000E-03 0. -1.
    9900012    2    1    2    0    0  0.16368168594E+02  0.67932758230E+01 -0.60509419250E+01  0.72461563133E+02  0.69999990671E+02 0.  0.
        -12    1    1    2    0    0 -0.16368168594E+02 -0.67932758230E+01  0.60509419250E+01  0.18726436867E+02  0.00000000000E+00 0.  1.
         11    1    3    3    0    0  0.17986733757E+02 -0.65355740205E+00 -0.81848039082E+00  0.18017203971E+02  0.51100000000E-03 0. -1.
        -11    1    3    3    0    0  0.17279392190E+02  0.34964242932E+01  0.17349243938E+02  0.24734563727E+02  0.51100000000E-03 0.  1.
         12    1    3    3    0    0 -0.18897957352E+02  0.39504089318E+01 -0.22581705472E+02  0.29709795436E+02  0.00000000000E+00 0. -1.
</event>
<event>
 7    1  0.2655561E-013  0.7246156E+02  0.7816164E-02  0.1226708E+00
        -11   -1    0    0    0    0  0.00000000000E+00  0.00000000000E+00  0.45593999997E+02  0.45594000000E+02  0.51100000000E-03 0.  1.
         11   -1    0    0    0    0 -0.00000000000E+00 -0.00000000000E+00 -0.45593999997E+02  0.45594000000E+02  0.51100000000E-03 0. -1.
    9900012    2    1    2    0    0  0.31643361976E+01 -0.13956468758E+02 -0.12078219497E+02  0.72461563340E+02  0.69999990941E+02 0.  0.
        -12    1    1    2    0    0 -0.31643361976E+01  0.13956468758E+02  0.12078219497E+02  0.18726436660E+02  0.00000000000E+00 0.  1.
         11    1    3    3    0    0  0.47538974962E+01 -0.22787402284E+02  0.76148830436E+01  0.24491869840E+02  0.51100000000E-03 0. -1.
        -11    1    3    3    0    0 -0.10573708496E+02 -0.12458674237E+02  0.17644152636E+01  0.16435785244E+02  0.51100000000E-03 0.  1.
        -12    1    3    3    0    0  0.89841471969E+01  0.21289607763E+02 -0.21457517804E+02  0.31533908256E+02  0.00000000000E+00 0.  1.
</event>
<event>
 7    1  0.2655561E-013  0.7246156E+02  0.7816164E-02  0.1226708E+00
        -11   -1    0    0    0    0  0.00000000000E+00  0.00000000000E+00  0.45593999997E+02  0.45594000000E+02  0.51100000000E-03 0.  1.
         11   -1    0    0    0    0 -0.00000000000E+00 -0.00000000000E+00 -0.45593999997E+02  0.45594000000E+02  0.51100000000E-03 0. -1.
    9900012    2    1    2    0    0 -0.66021066233E+00 -0.12325721397E+02 -0.14082617883E+02  0.72461563807E+02  0.69999991549E+02 0.  0.
        -12    1    1    2    0    0  0.66021066233E+00  0.12325721397E+02  0.14082617883E+02  0.18726436193E+02  0.00000000000E+00 0.  1.
         11    1    3    3    0    0  0.46659481063E+00  0.45232571391E+01 -0.13423757807E+02  0.14173032131E+02  0.51100000000E-03 0. -1.
        -11    1    3    3    0    0 -0.63427954784E+01  0.13258635463E+02  0.17414226313E+02  0.22787666558E+02  0.51100000000E-03 0.  1.
         12    1    3    3    0    0  0.52159900055E+01 -0.30107613999E+02 -0.18073086389E+02  0.35500865117E+02  0.00000000000E+00 0. -1.
</event>
<event>
 7    1  0.2655561E-013  0.7246156E+02  0.7816164E-02  0.1226708E+00
        -11   -1    0    0    0    0  0.00000000000E+00  0.00000000000E+00  0.45593999997E+02  0.45594000000E+02  0.51100000000E-03 0. -1.
         11   -1    0    0    0    0 -0.00000000000E+00 -0.00000000000E+00 -0.45593999997E+02  0.45594000000E+02  0.51100000000E-03 0.  1.
    9900012    2    1    2    0    0 -0.65589136633E+01 -0.87643371688E+01  0.15193639101E+02  0.72461558171E+02  0.69999984206E+02 0.  0.
        -12    1    1    2    0    0  0.65589136633E+01  0.87643371688E+01 -0.15193639101E+02  0.18726441829E+02  0.00000000000E+00 0.  1.
         11    1    3    3    0    0 -0.29896303562E+02 -0.11877194223E+02  0.15965084302E+02  0.35912959030E+02  0.51100000000E-03 0. -1.
        -11    1    3    3    0    0 -0.37461094382E+01 -0.60941658273E+01  0.28786967324E+01  0.77109719356E+01  0.51100000000E-03 0.  1.
        -12    1    3    3    0    0  0.27083499337E+02  0.92070228812E+01 -0.36501419333E+01  0.28837627205E+02  0.00000000000E+00 0.  1.
</event>
<event>
 7    1  0.2655561E-013  0.7246156E+02  0.7816164E-02  0.1226708E+00
        -11   -1    0    0    0    0  0.00000000000E+00  0.00000000000E+00  0.45593999997E+02  0.45594000000E+02  0.51100000000E-03 0. -1.
         11   -1    0    0    0    0 -0.00000000000E+00 -0.00000000000E+00 -0.45593999997E+02  0.45594000000E+02  0.51100000000E-03 0.  1.
    9900012    2    1    2    0    0 -0.14203313604E+02 -0.34849200771E+01  0.11696185491E+02  0.72461560394E+02  0.69999987103E+02 0.  0.
        -12    1    1    2    0    0  0.14203313604E+02  0.34849200771E+01 -0.11696185491E+02  0.18726439606E+02  0.00000000000E+00 0.  1.
         11    1    3    3    0    0 -0.25328434437E+02 -0.25917727449E+02  0.12526665484E+02  0.38342868119E+02  0.51100000000E-03 0. -1.
        -11    1    3    3    0    0 -0.52263993389E+01  0.65325330150E+01 -0.65263931045E+01  0.10610515768E+02  0.51100000000E-03 0.  1.
        -12    1    3    3    0    0  0.16351520172E+02  0.15900274357E+02  0.56959131110E+01  0.23508176508E+02  0.00000000000E+00 0.  1.
</event>
<event>
 7    1  0.2655561E-013  0.7246152E+02  0.7816164E-02  0.1226708E+00
        -11   -1    0    0    0    0  0.00000000000E+00  0.00000000000E+00  0.45593999997E+02  0.45594000000E+02  0.51100000000E-03 0. -1.
         11   -1    0    0    0    0 -0.00000000000E+00 -0.00000000000E+00 -0.45593999997E+02  0.45594000000E+02  0.51100000000E-03 0.  1.
    9900012    2    1    2    0    0 -0.16706297534E+02  0.81252866740E+00  0.84214380878E+01  0.72461516091E+02  0.69999929390E+02 0.  0.
        -12    1    1    2    0    0  0.16706297534E+02 -0.81252866740E+00 -0.84214380878E+01  0.18726483909E+02  0.00000000000E+00 0.  1.
         11    1    3    3    0    0  0.20611494395E+00 -0.26514301444E+01 -0.70707861841E+01  0.75543750703E+01  0.51100000000E-03 0. -1.
        -11    1    3    3    0    0  0.86287932521E+01 -0.10426495119E+02 -0.16722224624E+02  0.21512802470E+02  0.51100000000E-03 0.  1.
         12    1    3    3    0    0 -0.25541205730E+02  0.13890453931E+02  0.32214448896E+02  0.43394338551E+02  0.00000000000E+00 0. -1.
</event>
<event>
 7    1  0.2655561E-013  0.7246157E+02  0.7816164E-02  0.1226708E+00
        -11   -1    0    0    0    0  0.00000000000E+00  0.00000000000E+00  0.45593999997E+02  0.45594000000E+02  0.51100000000E-03 0. -1.
         11   -1    0    0    0    0 -0.00000000000E+00 -0.00000000000E+00 -0.45593999997E+02  0.45594000000E+02  0.51100000000E-03 0.  1.
    9900012    2    1    2    0    0 -0.14069749931E+02  0.65687244457E+01  0.10467719189E+02  0.72461570842E+02  0.70000000714E+02 0.  0.
        -12    1    1    2    0    0  0.14069749931E+02 -0.65687244457E+01 -0.10467719189E+02  0.18726429158E+02  0.00000000000E+00 0.  1.
         11    1    3    3    0    0 -0.99112955419E+01  0.12530179706E+02 -0.12240624860E+02  0.20126402560E+02  0.51100000000E-03 0. -1.
        -11    1    3    3    0    0  0.26741291403E+01  0.83581838405E+01 -0.11594288229E+02  0.14540898307E+02  0.51100000000E-03 0.  1.
         12    1    3    3    0    0 -0.68325835298E+01 -0.14319639101E+02  0.34302632279E+02  0.37794269975E+02  0.00000000000E+00 0. -1.
</event>
<event>
 7    1  0.2655561E-013  0.7246158E+02  0.7816164E-02  0.1226708E+00
        -11   -1    0    0    0    0  0.00000000000E+00  0.00000000000E+00  0.45593999997E+02  0.45594000000E+02  0.51100000000E-03 0. -1.
         11   -1    0    0    0    0 -0.00000000000E+00 -0.00000000000E+00 -0.45593999997E+02  0.45594000000E+02  0.51100000000E-03 0.  1.
    9900012    2    1    2    0    0 -0.23668056587E+01  0.12651114867E+00  0.18575821561E+02  0.72461576936E+02  0.70000008652E+02 0.  0.
        -12    1    1    2    0    0  0.23668056587E+01 -0.12651114867E+00 -0.18575821561E+02  0.18726423064E+02  0.00000000000E+00 0.  1.
         11    1    3    3    0    0 -0.43562209055E+00  0.34126072008E+02  0.13751914824E+02  0.36795294793E+02  0.51100000000E-03 0. -1.
        -11    1    3    3    0    0  0.25495358654E+01 -0.40049229177E+01  0.21788495695E+01  0.52236889660E+01  0.51100000000E-03 0.  1.
        -12    1    3    3    0    0 -0.44807194336E+01 -0.29994637942E+02  0.26450571678E+01  0.30442593177E+02  0.00000000000E+00 0.  1.
</event>
<event>
 7    1  0.2655561E-013  0.7246154E+02  0.7816164E-02  0.1226708E+00
        -11   -1    0    0    0    0  0.00000000000E+00  0.00000000000E+00  0.45593999997E+02  0.45594000000E+02  0.51100000000E-03 0. -1.
         11   -1    0    0    0    0 -0.00000000000E+00 -0.00000000000E+00 -0.45593999997E+02  0.45594000000E+02  0.51100000000E-03 0.  1.
    9900012    2    1    2    0    0  0.63323628435E+01  0.16215199803E+02  0.69028091898E+01  0.72461540149E+02  0.69999960730E+02 0.  0.
        -12    1    1    2    0    0 -0.63323628435E+01 -0.16215199803E+02 -0.69028091898E+01  0.18726459851E+02  0.00000000000E+00 0.  1.
         11    1    3    3    0    0  0.51876600668E+01  0.10270316553E+02 -0.17551610537E+02  0.20986906675E+02  0.51100000000E-03 0.  1.
        -11    1    3    3    0    0  0.17695365507E+02  0.17336422191E+02  0.99587833821E+01  0.26699341967E+02  0.51100000000E-03 0. -1.
        -12    1    3    3    0    0 -0.16550662730E+02 -0.11391538941E+02  0.14495636344E+02  0.24775291507E+02  0.00000000000E+00 0.  1.
</event>
<event>
 7    1  0.2655561E-013  0.7246161E+02  0.7816164E-02  0.1226708E+00
        -11   -1    0    0    0    0  0.00000000000E+00  0.00000000000E+00  0.45593999997E+02  0.45594000000E+02  0.51100000000E-03 0.  1.
         11   -1    0    0    0    0 -0.00000000000E+00 -0.00000000000E+00 -0.45593999997E+02  0.45594000000E+02  0.51100000000E-03 0. -1.
    9900012    2    1    2    0    0  0.64292391259E+01 -0.17443993331E+02 -0.22471281464E+01  0.72461612095E+02  0.70000054453E+02 0.  0.
        -12    1    1    2    0    0 -0.64292391259E+01  0.17443993331E+02  0.22471281464E+01  0.18726387905E+02  0.00000000000E+00 0.  1.
         11    1    3    3    0    0 -0.13442201592E+02 -0.42688195112E+01  0.32714986550E+01  0.14478201109E+02  0.51100000000E-03 0. -1.
        -11    1    3    3    0    0  0.12126462474E+01 -0.83254565123E+01  0.22472384396E+02  0.23995662062E+02  0.51100000000E-03 0.  1.
        -12    1    3    3    0    0  0.18658794470E+02 -0.48497173074E+01 -0.27991011198E+02  0.33987748924E+02  0.00000000000E+00 0.  1.
</event>
<event>
 7    1  0.2655561E-013  0.7246155E+02  0.7816164E-02  0.1226708E+00
        -11   -1    0    0    0    0  0.00000000000E+00  0.00000000000E+00  0.45593999997E+02  0.45594000000E+02  0.51100000000E-03 0.  1.
         11   -1    0    0    0    0 -0.00000000000E+00 -0.00000000000E+00 -0.45593999997E+02  0.45594000000E+02  0.51100000000E-03 0. -1.
    9900012    2    1    2    0    0 -0.87675545002E+01  0.16545856583E+02  0.21119157357E+00  0.72461548551E+02  0.69999971675E+02 0.  0.
        -12    1    1    2    0    0  0.87675545002E+01 -0.16545856583E+02 -0.21119157357E+00  0.18726451449E+02  0.00000000000E+00 0.  1.
         11    1    3    3    0    0  0.38169450814E+01  0.33498485513E+01  0.93323544366E+01  0.10624659743E+02  0.51100000000E-03 0. -1.
        -11    1    3    3    0    0  0.10783314049E+02  0.27808140891E+02  0.59671032165E+01  0.30416753324E+02  0.51100000000E-03 0.  1.
         12    1    3    3    0    0 -0.23367813630E+02 -0.14612132859E+02 -0.15088266080E+02  0.31420135484E+02  0.00000000000E+00 0. -1.
</event>
<event>
 7    1  0.2665496E-013  0.7246158E+02  0.7816164E-02  0.1226708E+00
        -11   -1    0    0    0    0  0.00000000000E+00  0.00000000000E+00  0.45593999997E+02  0.45594000000E+02  0.51100000000E-03 0. -1.
         11   -1    0    0    0    0 -0.00000000000E+00 -0.00000000000E+00 -0.45593999997E+02  0.45594000000E+02  0.51100000000E-03 0.  1.
    9900012    2    1    2    0    0 -0.12024278687E+02  0.59658136889E+01  0.13057745357E+02  0.72461576830E+02  0.70000008514E+02 0.  0.
        -12    1    1    2    0    0  0.12024278687E+02 -0.59658136889E+01 -0.13057745357E+02  0.18726423170E+02  0.00000000000E+00 0.  1.
         11    1    3    3    0    0 -0.42522868086E+01  0.90982689533E+01  0.22986458417E+02  0.25084611057E+02  0.51100000000E-03 0. -1.
        -11    1    3    3    0    0  0.48913018350E+01  0.12609372166E+02 -0.20512129775E+02  0.24569667646E+02  0.51100000000E-03 0.  1.
         12    1    3    3    0    0 -0.12663293714E+02 -0.15741827430E+02  0.10583416715E+02  0.22807298128E+02  0.00000000000E+00 0. -1.
</event>
<event>
 7    1  0.2655561E-013  0.7246158E+02  0.7816164E-02  0.1226708E+00
        -11   -1    0    0    0    0  0.00000000000E+00  0.00000000000E+00  0.45593999997E+02  0.45594000000E+02  0.51100000000E-03 0.  1.
         11   -1    0    0    0    0 -0.00000000000E+00 -0.00000000000E+00 -0.45593999997E+02  0.45594000000E+02  0.51100000000E-03 0. -1.
    9900012    2    1    2    0    0 -0.47090004128E+01 -0.14056994765E+02 -0.11441371674E+02  0.72461580895E+02  0.70000013810E+02 0.  0.
        -12    1    1    2    0    0  0.47090004128E+01  0.14056994765E+02  0.11441371674E+02  0.18726419105E+02  0.00000000000E+00 0.  1.
         11    1    3    3    0    0 -0.85561529250E+01 -0.23511351981E+02 -0.94131935930E+01  0.26731996535E+02  0.51100000000E-03 0. -1.
        -11    1    3    3    0    0  0.20486045878E+02  0.33515527872E+01  0.11225423889E+02  0.23599176332E+02  0.51100000000E-03 0.  1.
         12    1    3    3    0    0 -0.16638893365E+02  0.61028044287E+01 -0.13253601970E+02  0.22130408028E+02  0.00000000000E+00 0. -1.
</event>
<event>
 7    1  0.2655561E-013  0.7246156E+02  0.7816164E-02  0.1226708E+00
        -11   -1    0    0    0    0  0.00000000000E+00  0.00000000000E+00  0.45593999997E+02  0.45594000000E+02  0.51100000000E-03 0. -1.
         11   -1    0    0    0    0 -0.00000000000E+00 -0.00000000000E+00 -0.45593999997E+02  0.45594000000E+02  0.51100000000E-03 0.  1.
    9900012    2    1    2    0    0  0.73100536752E+01 -0.12176503782E+02  0.12205543822E+02  0.72461563364E+02  0.69999990972E+02 0.  0.
        -12    1    1    2    0    0 -0.73100536752E+01  0.12176503782E+02 -0.12205543822E+02  0.18726436636E+02  0.00000000000E+00 0.  1.
         11    1    3    3    0    0  0.45960668611E+01 -0.22999857502E+02  0.35234264415E+00  0.23457225353E+02  0.51100000000E-03 0. -1.
        -11    1    3    3    0    0 -0.95622510011E+00 -0.15391823739E+02 -0.65604030140E+01  0.16758922770E+02  0.51100000000E-03 0.  1.
        -12    1    3    3    0    0  0.36702119142E+01  0.26215177459E+02  0.18413604192E+02  0.32245415240E+02  0.00000000000E+00 0.  1.
</event>
<event>
 7    1  0.2655561E-013  0.7246147E+02  0.7816164E-02  0.1226708E+00
        -11   -1    0    0    0    0  0.00000000000E+00  0.00000000000E+00  0.45593999997E+02  0.45594000000E+02  0.51100000000E-03 0. -1.
         11   -1    0    0    0    0 -0.00000000000E+00 -0.00000000000E+00 -0.45593999997E+02  0.45594000000E+02  0.51100000000E-03 0.  1.
    9900012    2    1    2    0    0 -0.14324590090E+02 -0.53082904773E+01 -0.10831025611E+02  0.72461469493E+02  0.69999868688E+02 0.  0.
        -12    1    1    2    0    0  0.14324590090E+02  0.53082904773E+01  0.10831025611E+02  0.18726530507E+02  0.00000000000E+00 0.  1.
         11    1    3    3    0    0  0.12609185764E+02 -0.91080815796E+01 -0.10052874243E+01  0.15587152362E+02  0.51100000000E-03 0. -1.
        -11    1    3    3    0    0  0.96317417784E+01  0.12505675831E+02  0.48653491426E+01  0.16517687496E+02  0.51100000000E-03 0.  1.
        -12    1    3    3    0    0 -0.36565517632E+02 -0.87058847285E+01 -0.14691087330E+02  0.40356629635E+02  0.00000000000E+00 0.  1.
</event>
<event>
 7    1  0.2655561E-013  0.7246151E+02  0.7816164E-02  0.1226708E+00
        -11   -1    0    0    0    0  0.00000000000E+00  0.00000000000E+00  0.45593999997E+02  0.45594000000E+02  0.51100000000E-03 0.  1.
         11   -1    0    0    0    0 -0.00000000000E+00 -0.00000000000E+00 -0.45593999997E+02  0.45594000000E+02  0.51100000000E-03 0. -1.
    9900012    2    1    2    0    0  0.33027436184E+01 -0.16855477842E+02 -0.74609821900E+01  0.72461507965E+02  0.69999918804E+02 0.  0.
        -12    1    1    2    0    0 -0.33027436184E+01  0.16855477842E+02  0.74609821900E+01  0.18726492035E+02  0.00000000000E+00 0.  1.
         11    1    3    3    0    0  0.16418346146E+02 -0.29263806728E+02 -0.10488767064E+02  0.35156033752E+02  0.51100000000E-03 0. -1.
        -11    1    3    3    0    0  0.61381222894E+01  0.82429325979E+01 -0.94709776384E+01  0.13975761186E+02  0.51100000000E-03 0.  1.
        -12    1    3    3    0    0 -0.19253724817E+02  0.41653962874E+01  0.12498762513E+02  0.23329713026E+02  0.00000000000E+00 0.  1.
</event>
<event>
 7    1  0.2655561E-013  0.7246158E+02  0.7816164E-02  0.1226708E+00
        -11   -1    0    0    0    0  0.00000000000E+00  0.00000000000E+00  0.45593999997E+02  0.45594000000E+02  0.51100000000E-03 0.  1.
         11   -1    0    0    0    0 -0.00000000000E+00 -0.00000000000E+00 -0.45593999997E+02  0.45594000000E+02  0.51100000000E-03 0. -1.
    9900012    2    1    2    0    0  0.29515295426E+01 -0.13711433431E-01 -0.18492354105E+02  0.72461578159E+02  0.70000010245E+02 0.  0.
        -12    1    1    2    0    0 -0.29515295426E+01  0.13711433431E-01  0.18492354105E+02  0.18726421841E+02  0.00000000000E+00 0.  1.
         11    1    3    3    0    0 -0.82551724956E+01  0.14695444610E+02 -0.54636804484E+01  0.17718797067E+02  0.51100000000E-03 0. -1.
        -11    1    3    3    0    0  0.16367565109E+02 -0.22715889210E+01  0.15838592868E+02  0.22889262289E+02  0.51100000000E-03 0.  1.
         12    1    3    3    0    0 -0.51608630711E+01 -0.12437567122E+02 -0.28867266524E+02  0.31853518803E+02  0.00000000000E+00 0. -1.
</event>
<event>
 7    1  0.2655561E-013  0.7246139E+02  0.7816164E-02  0.1226708E+00
        -11   -1    0    0    0    0  0.00000000000E+00  0.00000000000E+00  0.45593999997E+02  0.45594000000E+02  0.51100000000E-03 0.  1.
         11   -1    0    0    0    0 -0.00000000000E+00 -0.00000000000E+00 -0.45593999997E+02  0.45594000000E+02  0.51100000000E-03 0. -1.
    9900012    2    1    2    0    0  0.98280194284E+01  0.15232995261E+02  0.46959196252E+01  0.72461394017E+02  0.69999770366E+02 0.  0.
        -12    1    1    2    0    0 -0.98280194284E+01 -0.15232995261E+02 -0.46959196252E+01  0.18726605983E+02  0.00000000000E+00 0.  1.
         11    1    3    3    0    0  0.22378650196E+02 -0.13153916854E+02 -0.10259277087E+02  0.27912045425E+02  0.51100000000E-03 0. -1.
        -11    1    3    3    0    0 -0.31823588524E+01  0.80358418245E+01  0.19820798188E+02  0.21623279186E+02  0.51100000000E-03 0.  1.
        -12    1    3    3    0    0 -0.93682719156E+01  0.20351070291E+02 -0.48656014765E+01  0.22926069405E+02  0.00000000000E+00 0.  1.
</event>
<event>
 7    1  0.2655561E-013  0.7246153E+02  0.7816164E-02  0.1226708E+00
        -11   -1    0    0    0    0  0.00000000000E+00  0.00000000000E+00  0.45593999997E+02  0.45594000000E+02  0.51100000000E-03 0. -1.
         11   -1    0    0    0    0 -0.00000000000E+00 -0.00000000000E+00 -0.45593999997E+02  0.45594000000E+02  0.51100000000E-03 0.  1.
    9900012    2    1    2    0    0 -0.14040744927E+02  0.10252298541E+02 -0.69590573423E+01  0.72461531497E+02  0.69999949460E+02 0.  0.
        -12    1    1    2    0    0  0.14040744927E+02 -0.10252298541E+02  0.69590573423E+01  0.18726468503E+02  0.00000000000E+00 0.  1.
         11    1    3    3    0    0 -0.18204808317E+01 -0.52662149660E+01  0.21971443600E+02  0.22666969463E+02  0.51100000000E-03 0. -1.
        -11    1    3    3    0    0 -0.15767978106E+02 -0.73043055998E+01 -0.13693028235E+02  0.22124218322E+02  0.51100000000E-03 0.  1.
        -12    1    3    3    0    0  0.35477140106E+01  0.22822819107E+02 -0.15237472707E+02  0.27670343712E+02  0.00000000000E+00 0.  1.
</event>
<event>
 7    1  0.2655561E-013  0.7246158E+02  0.7816164E-02  0.1226708E+00
        -11   -1    0    0    0    0  0.00000000000E+00  0.00000000000E+00  0.45593999997E+02  0.45594000000E+02  0.51100000000E-03 0. -1.
         11   -1    0    0    0    0 -0.00000000000E+00 -0.00000000000E+00 -0.45593999997E+02  0.45594000000E+02  0.51100000000E-03 0.  1.
    9900012    2    1    2    0    0 -0.14389584456E+02 -0.10251714853E+02  0.62065241632E+01  0.72461581751E+02  0.70000014925E+02 0.  0.
        -12    1    1    2    0    0  0.14389584456E+02  0.10251714853E+02 -0.62065241632E+01  0.18726418249E+02  0.00000000000E+00 0.  1.
         11    1    3    3    0    0 -0.12512040470E+02  0.24745773057E+02  0.18995694656E+02  0.33611617882E+02  0.51100000000E-03 0. -1.
        -11    1    3    3    0    0 -0.15018054008E+01 -0.37945806878E+01 -0.54233129580E+01  0.67872369753E+01  0.51100000000E-03 0.  1.
        -12    1    3    3    0    0 -0.37573858491E+00 -0.31202907222E+02 -0.73658575352E+01  0.32062726893E+02  0.00000000000E+00 0.  1.
</event>
<event>
 7    1  0.2655561E-013  0.7246158E+02  0.7816164E-02  0.1226708E+00
        -11   -1    0    0    0    0  0.00000000000E+00  0.00000000000E+00  0.45593999997E+02  0.45594000000E+02  0.51100000000E-03 0.  1.
         11   -1    0    0    0    0 -0.00000000000E+00 -0.00000000000E+00 -0.45593999997E+02  0.45594000000E+02  0.51100000000E-03 0. -1.
    9900012    2    1    2    0    0 -0.74741289433E+00  0.18359790667E+02  0.36108373138E+01  0.72461583218E+02  0.70000016836E+02 0.  0.
        -12    1    1    2    0    0  0.74741289433E+00 -0.18359790667E+02 -0.36108373138E+01  0.18726416782E+02  0.00000000000E+00 0.  1.
         11    1    3    3    0    0  0.29182033132E+01 -0.13174687969E+02  0.17943491624E+01  0.13612788209E+02  0.51100000000E-03 0. -1.
        -11    1    3    3    0    0  0.20956160878E+02  0.34495946747E+01  0.31766432618E+01  0.21474437009E+02  0.51100000000E-03 0.  1.
         12    1    3    3    0    0 -0.24621777086E+02  0.28084883961E+02 -0.13601551103E+01  0.37374358000E+02  0.00000000000E+00 0. -1.
</event>
<event>
 7    1  0.2655561E-013  0.7246155E+02  0.7816164E-02  0.1226708E+00
        -11   -1    0    0    0    0  0.00000000000E+00  0.00000000000E+00  0.45593999997E+02  0.45594000000E+02  0.51100000000E-03 0.  1.
         11   -1    0    0    0    0 -0.00000000000E+00 -0.00000000000E+00 -0.45593999997E+02  0.45594000000E+02  0.51100000000E-03 0. -1.
    9900012    2    1    2    0    0 -0.14263416542E+02 -0.95089674530E+01 -0.75375272395E+01  0.72461552650E+02  0.69999977015E+02 0.  0.
        -12    1    1    2    0    0  0.14263416542E+02  0.95089674530E+01  0.75375272395E+01  0.18726447350E+02  0.00000000000E+00 0.  1.
         11    1    3    3    0    0  0.84571334822E+01 -0.26807133834E+02 -0.99578026671E+01  0.29821189871E+02  0.51100000000E-03 0. -1.
        -11    1    3    3    0    0 -0.39553030714E+01  0.25039388896E+00 -0.12575157214E+02  0.13184904197E+02  0.51100000000E-03 0.  1.
        -12    1    3    3    0    0 -0.18765246953E+02  0.17047772492E+02  0.14995432641E+02  0.29455458581E+02  0.00000000000E+00 0.  1.
</event>
<event>
 7    1  0.2655561E-013  0.7246153E+02  0.7816164E-02  0.1226708E+00
        -11   -1    0    0    0    0  0.00000000000E+00  0.00000000000E+00  0.45593999997E+02  0.45594000000E+02  0.51100000000E-03 0. -1.
         11   -1    0    0    0    0 -0.00000000000E+00 -0.00000000000E+00 -0.45593999997E+02  0.45594000000E+02  0.51100000000E-03 0.  1.
    9900012    2    1    2    0    0  0.43502446393E+01 -0.18112052339E+02  0.19260127419E+01  0.72461532275E+02  0.69999950473E+02 0.  0.
        -12    1    1    2    0    0 -0.43502446393E+01  0.18112052339E+02 -0.19260127419E+01  0.18726467725E+02  0.00000000000E+00 0.  1.
         11    1    3    3    0    0 -0.10289549003E+02  0.59534946088E+01 -0.39505345345E+01  0.12526996452E+02  0.51100000000E-03 0. -1.
        -11    1    3    3    0    0 -0.12249601088E+02  0.15437738751E+01 -0.13295510620E+02  0.18144050471E+02  0.51100000000E-03 0.  1.
         12    1    3    3    0    0  0.26889394730E+02 -0.25609320823E+02  0.19172057897E+02  0.41790485352E+02  0.00000000000E+00 0. -1.
</event>
<event>
 7    1  0.2655561E-013  0.7246156E+02  0.7816164E-02  0.1226708E+00
        -11   -1    0    0    0    0  0.00000000000E+00  0.00000000000E+00  0.45593999997E+02  0.45594000000E+02  0.51100000000E-03 0. -1.
         11   -1    0    0    0    0 -0.00000000000E+00 -0.00000000000E+00 -0.45593999997E+02  0.45594000000E+02  0.51100000000E-03 0.  1.
    9900012    2    1    2    0    0  0.82606815481E+01 -0.16313956770E+02  0.40367501257E+01  0.72461564228E+02  0.69999992098E+02 0.  0.
        -12    1    1    2    0    0 -0.82606815481E+01  0.16313956770E+02 -0.40367501257E+01  0.18726435772E+02  0.00000000000E+00 0.  1.
         11    1    3    3    0    0  0.28125187217E+02 -0.82737514931E+01  0.15997179063E+02  0.33397467838E+02  0.51100000000E-03 0. -1.
        -11    1    3    3    0    0  0.76716632226E+01 -0.87052624725E+00  0.10217278044E+01  0.77882065019E+01  0.51100000000E-03 0.  1.
        -12    1    3    3    0    0 -0.27536168892E+02 -0.71696790300E+01 -0.12982156741E+02  0.31275889888E+02  0.00000000000E+00 0.  1.
</event>
<event>
 7    1  0.2655561E-013  0.7246157E+02  0.7816164E-02  0.1226708E+00
        -11   -1    0    0    0    0  0.00000000000E+00  0.00000000000E+00  0.45593999997E+02  0.45594000000E+02  0.51100000000E-03 0.  1.
         11   -1    0    0    0    0 -0.00000000000E+00 -0.00000000000E+00 -0.45593999997E+02  0.45594000000E+02  0.51100000000E-03 0. -1.
    9900012    2    1    2    0    0  0.11341077598E+02 -0.92816274209E+01 -0.11658066339E+02  0.72461570564E+02  0.70000000351E+02 0.  0.
        -12    1    1    2    0    0 -0.11341077598E+02  0.92816274209E+01  0.11658066339E+02  0.18726429436E+02  0.00000000000E+00 0.  1.
         11    1    3    3    0    0  0.93423410854E+01  0.64498585266E+01 -0.73794119002E+00  0.11376491965E+02  0.51100000000E-03 0. -1.
        -11    1    3    3    0    0  0.25492418528E+02  0.75599663856E+01 -0.12534628290E+01  0.26619309974E+02  0.51100000000E-03 0.  1.
         12    1    3    3    0    0 -0.23493682016E+02 -0.23291452333E+02 -0.96666623203E+01  0.34465768624E+02  0.00000000000E+00 0. -1.
</event>
<event>
 7    1  0.2655561E-013  0.7246159E+02  0.7816164E-02  0.1226708E+00
        -11   -1    0    0    0    0  0.00000000000E+00  0.00000000000E+00  0.45593999997E+02  0.45594000000E+02  0.51100000000E-03 0. -1.
         11   -1    0    0    0    0 -0.00000000000E+00 -0.00000000000E+00 -0.45593999997E+02  0.45594000000E+02  0.51100000000E-03 0.  1.
    9900012    2    1    2    0    0  0.18057816997E+02  0.17725626174E+01 -0.46315843553E+01  0.72461593336E+02  0.70000030016E+02 0.  0.
        -12    1    1    2    0    0 -0.18057816997E+02 -0.17725626174E+01  0.46315843553E+01  0.18726406664E+02  0.00000000000E+00 0.  1.
         11    1    3    3    0    0  0.20968478402E+02 -0.23402165308E+02  0.16833119970E+02  0.35646772025E+02  0.51100000000E-03 0. -1.
        -11    1    3    3    0    0 -0.13262073260E+01 -0.10759734458E+01  0.12082791427E+01  0.20920046547E+01  0.51100000000E-03 0.  1.
        -12    1    3    3    0    0 -0.15844540793E+01  0.26250701371E+02 -0.22672983468E+02  0.34722816656E+02  0.00000000000E+00 0.  1.
</event>
<event>
 7    1  0.2655561E-013  0.7246158E+02  0.7816164E-02  0.1226708E+00
        -11   -1    0    0    0    0  0.00000000000E+00  0.00000000000E+00  0.45593999997E+02  0.45594000000E+02  0.51100000000E-03 0.  1.
         11   -1    0    0    0    0 -0.00000000000E+00 -0.00000000000E+00 -0.45593999997E+02  0.45594000000E+02  0.51100000000E-03 0. -1.
    9900012    2    1    2    0    0  0.12293915459E+02  0.57150793389E+01 -0.12918054650E+02  0.72461584830E+02  0.70000018936E+02 0.  0.
        -12    1    1    2    0    0 -0.12293915459E+02 -0.57150793389E+01  0.12918054650E+02  0.18726415170E+02  0.00000000000E+00 0.  1.
         11    1    3    3    0    0  0.94903168848E+01 -0.71179938111E+01 -0.80884233966E+01  0.14358082872E+02  0.51100000000E-03 0. -1.
        -11    1    3    3    0    0  0.23390036502E+02  0.23952896387E+02 -0.81890760488E+01  0.34465867459E+02  0.51100000000E-03 0.  1.
         12    1    3    3    0    0 -0.20586437928E+02 -0.11119823237E+02  0.33594447954E+01  0.23637634499E+02  0.00000000000E+00 0. -1.
</event>
<event>
 7    1  0.2655561E-013  0.7246158E+02  0.7816164E-02  0.1226708E+00
        -11   -1    0    0    0    0  0.00000000000E+00  0.00000000000E+00  0.45593999997E+02  0.45594000000E+02  0.51100000000E-03 0.  1.
         11   -1    0    0    0    0 -0.00000000000E+00 -0.00000000000E+00 -0.45593999997E+02  0.45594000000E+02  0.51100000000E-03 0. -1.
    9900012    2    1    2    0    0 -0.49148175672E+01  0.46184283181E+01 -0.17469790669E+02  0.72461577548E+02  0.70000009449E+02 0.  0.
        -12    1    1    2    0    0  0.49148175672E+01 -0.46184283181E+01  0.17469790669E+02  0.18726422452E+02  0.00000000000E+00 0.  1.
         11    1    3    3    0    0 -0.18311375261E+02 -0.88878235923E+01 -0.72590205070E+00  0.20367297469E+02  0.51100000000E-03 0. -1.
        -11    1    3    3    0    0  0.28213459471E+02  0.18428832321E+02 -0.10787739067E+02  0.35383562151E+02  0.51100000000E-03 0.  1.
         12    1    3    3    0    0 -0.14816901777E+02 -0.49225804110E+01 -0.59561495510E+01  0.16710717927E+02  0.00000000000E+00 0. -1.
</event>
<event>
 7    1  0.2655561E-013  0.7246152E+02  0.7816164E-02  0.1226708E+00
        -11   -1    0    0    0    0  0.00000000000E+00  0.00000000000E+00  0.45593999997E+02  0.45594000000E+02  0.51100000000E-03 0.  1.
         11   -1    0    0    0    0 -0.00000000000E+00 -0.00000000000E+00 -0.45593999997E+02  0.45594000000E+02  0.51100000000E-03 0. -1.
    9900012    2    1    2    0    0 -0.14032454570E+02 -0.73111626381E+01 -0.10015903338E+02  0.72461516079E+02  0.69999929374E+02 0.  0.
        -12    1    1    2    0    0  0.14032454570E+02  0.73111626381E+01  0.10015903338E+02  0.18726483921E+02  0.00000000000E+00 0.  1.
         11    1    3    3    0    0 -0.12991662027E+02  0.90250577978E+01 -0.16702867640E+02  0.23004798155E+02  0.51100000000E-03 0. -1.
        -11    1    3    3    0    0 -0.15476218460E+02 -0.24194786375E+02  0.13411874131E+02  0.31698255370E+02  0.51100000000E-03 0.  1.
         12    1    3    3    0    0  0.14435425918E+02  0.78585659393E+01 -0.67249098289E+01  0.17758462553E+02  0.00000000000E+00 0. -1.
</event>
<event>
 7    1  0.2655561E-013  0.7246158E+02  0.7816164E-02  0.1226708E+00
        -11   -1    0    0    0    0  0.00000000000E+00  0.00000000000E+00  0.45593999997E+02  0.45594000000E+02  0.51100000000E-03 0.  1.
         11   -1    0    0    0    0 -0.00000000000E+00 -0.00000000000E+00 -0.45593999997E+02  0.45594000000E+02  0.51100000000E-03 0. -1.
    9900012    2    1    2    0    0  0.70347950761E+01 -0.16604663522E+02  0.50473267793E+01  0.72461582829E+02  0.70000016329E+02 0.  0.
        -12    1    1    2    0    0 -0.70347950761E+01  0.16604663522E+02 -0.50473267793E+01  0.18726417171E+02  0.00000000000E+00 0.  1.
         11    1    3    3    0    0 -0.16390235425E+02  0.48641588739E+01 -0.19763888000E+01  0.17210635426E+02  0.51100000000E-03 0. -1.
        -11    1    3    3    0    0 -0.34302219653E+01 -0.26458612880E+02 -0.12535489283E+01  0.26709474039E+02  0.51100000000E-03 0.  1.
        -12    1    3    3    0    0  0.26855252466E+02  0.49897904842E+01  0.82772645076E+01  0.28541473365E+02  0.00000000000E+00 0.  1.
</event>
<event>
 7    1  0.2655561E-013  0.7246162E+02  0.7816164E-02  0.1226708E+00
        -11   -1    0    0    0    0  0.00000000000E+00  0.00000000000E+00  0.45593999997E+02  0.45594000000E+02  0.51100000000E-03 0.  1.
         11   -1    0    0    0    0 -0.00000000000E+00 -0.00000000000E+00 -0.45593999997E+02  0.45594000000E+02  0.51100000000E-03 0. -1.
    9900012    2    1    2    0    0 -0.15068543956E+02 -0.90628411023E+00 -0.11081293033E+02  0.72461616924E+02  0.70000060743E+02 0.  0.
        -12    1    1    2    0    0  0.15068543956E+02  0.90628411023E+00  0.11081293033E+02  0.18726383076E+02  0.00000000000E+00 0.  1.
         11    1    3    3    0    0 -0.19617767640E+02 -0.14877586475E+02 -0.66251229537E+01  0.25496894731E+02  0.51100000000E-03 0. -1.
        -11    1    3    3    0    0 -0.57760741777E+01 -0.14296515601E+02  0.35516439566E+01  0.15823007498E+02  0.51100000000E-03 0.  1.
        -12    1    3    3    0    0  0.10325297861E+02  0.28267817966E+02 -0.80078140355E+01  0.31141714694E+02  0.00000000000E+00 0.  1.
</event>
<event>
 7    1  0.2655561E-013  0.7246161E+02  0.7816164E-02  0.1226708E+00
        -11   -1    0    0    0    0  0.00000000000E+00  0.00000000000E+00  0.45593999997E+02  0.45594000000E+02  0.51100000000E-03 0. -1.
         11   -1    0    0    0    0 -0.00000000000E+00 -0.00000000000E+00 -0.45593999997E+02  0.45594000000E+02  0.51100000000E-03 0.  1.
    9900012    2    1    2    0    0 -0.17673173211E+02  0.54037133711E+01 -0.30226524811E+01  0.72461612266E+02  0.70000054676E+02 0.  0.
        -12    1    1    2    0    0  0.17673173211E+02 -0.54037133711E+01  0.30226524811E+01  0.18726387734E+02  0.00000000000E+00 0.  1.
         11    1    3    3    0    0 -0.17692094714E+02  0.13031040872E+01  0.20759305938E+02  0.27306722230E+02  0.51100000000E-03 0. -1.
        -11    1    3    3    0    0  0.72843462027E+01 -0.15093958979E+02 -0.54148754354E+01  0.17612784376E+02  0.51100000000E-03 0.  1.
        -12    1    3    3    0    0 -0.72654246997E+01  0.19194568262E+02 -0.18367082984E+02  0.27542105660E+02  0.00000000000E+00 0.  1.
</event>
<event>
 7    1  0.2655561E-013  0.7246116E+02  0.7816164E-02  0.1226709E+00
        -11   -1    0    0    0    0  0.00000000000E+00  0.00000000000E+00  0.45593999997E+02  0.45594000000E+02  0.51100000000E-03 0.  1.
         11   -1    0    0    0    0 -0.00000000000E+00 -0.00000000000E+00 -0.45593999997E+02  0.45594000000E+02  0.51100000000E-03 0. -1.
    9900012    2    1    2    0    0  0.18229060907E+02 -0.60625176683E+00 -0.42459715407E+01  0.72461161584E+02  0.69999467576E+02 0.  0.
        -12    1    1    2    0    0 -0.18229060907E+02  0.60625176683E+00  0.42459715407E+01  0.18726838416E+02  0.00000000000E+00 0.  1.
         11    1    3    3    0    0  0.17983338184E+01 -0.85595423324E+01 -0.18217630980E+02  0.20208459819E+02  0.51100000000E-03 0. -1.
        -11    1    3    3    0    0  0.23622227125E+02 -0.10971061852E+02  0.17935387604E+02  0.31623597854E+02  0.51100000000E-03 0.  1.
         12    1    3    3    0    0 -0.71915000362E+01  0.18924352417E+02 -0.39637281645E+01  0.20629103910E+02  0.00000000000E+00 0. -1.
</event>
<event>
 7    1  0.2655561E-013  0.7246160E+02  0.7816164E-02  0.1226708E+00
        -11   -1    0    0    0    0  0.00000000000E+00  0.00000000000E+00  0.45593999997E+02  0.45594000000E+02  0.51100000000E-03 0.  1.
         11   -1    0    0    0    0 -0.00000000000E+00 -0.00000000000E+00 -0.45593999997E+02  0.45594000000E+02  0.51100000000E-03 0. -1.
    9900012    2    1    2    0    0 -0.27057828130E+01  0.15209678830E+02 -0.10584064992E+02  0.72461600920E+02  0.70000039896E+02 0.  0.
        -12    1    1    2    0    0  0.27057828130E+01 -0.15209678830E+02  0.10584064992E+02  0.18726399080E+02  0.00000000000E+00 0.  1.
         11    1    3    3    0    0  0.11080012438E+02 -0.45778656958E+01 -0.17744518234E+02  0.21414748599E+02  0.51100000000E-03 0. -1.
        -11    1    3    3    0    0  0.13133133246E+02  0.19626675544E+02  0.37812715250E+01  0.23916178549E+02  0.51100000000E-03 0.  1.
        -12    1    3    3    0    0 -0.26918928497E+02  0.16086898188E+00  0.33791817163E+01  0.27130673772E+02  0.00000000000E+00 0.  1.
</event>
<event>
 7    1  0.2655561E-013  0.7246158E+02  0.7816164E-02  0.1226708E+00
        -11   -1    0    0    0    0  0.00000000000E+00  0.00000000000E+00  0.45593999997E+02  0.45594000000E+02  0.51100000000E-03 0.  1.
         11   -1    0    0    0    0 -0.00000000000E+00 -0.00000000000E+00 -0.45593999997E+02  0.45594000000E+02  0.51100000000E-03 0. -1.
    9900012    2    1    2    0    0  0.13626860247E+02  0.80895306014E+01 -0.99773309413E+01  0.72461575935E+02  0.70000007349E+02 0.  0.
        -12    1    1    2    0    0 -0.13626860247E+02 -0.80895306014E+01  0.99773309413E+01  0.18726424065E+02  0.00000000000E+00 0.  1.
         11    1    3    3    0    0 -0.17645365248E+01 -0.13655015916E+02 -0.27063769334E+02  0.30364793094E+02  0.51100000000E-03 0. -1.
        -11    1    3    3    0    0 -0.28687935736E+01 -0.46345562723E+01 -0.56354896733E+00  0.54796602184E+01  0.51100000000E-03 0.  1.
        -12    1    3    3    0    0  0.18260190345E+02  0.26379102790E+02  0.17649987360E+02  0.36617122623E+02  0.00000000000E+00 0.  1.
</event>
<event>
 7    1  0.2655561E-013  0.7246122E+02  0.7816164E-02  0.1226709E+00
        -11   -1    0    0    0    0  0.00000000000E+00  0.00000000000E+00  0.45593999997E+02  0.45594000000E+02  0.51100000000E-03 0.  1.
         11   -1    0    0    0    0 -0.00000000000E+00 -0.00000000000E+00 -0.45593999997E+02  0.45594000000E+02  0.51100000000E-03 0. -1.
    9900012    2    1    2    0    0  0.10615639737E+02  0.96917042617E+00 -0.15396791731E+02  0.72461219873E+02  0.69999543509E+02 0.  0.
        -12    1    1    2    0    0 -0.10615639737E+02 -0.96917042617E+00  0.15396791731E+02  0.18726780127E+02  0.00000000000E+00 0.  1.
         11    1    3    3    0    0  0.26570576128E+02  0.12796413263E+02 -0.28800394145E+02  0.41221431457E+02  0.51100000000E-03 0. -1.
        -11    1    3    3    0    0  0.12646204361E+01  0.10300755364E+01 -0.35242139592E+01  0.38833496816E+01  0.51100000000E-03 0.  1.
        -12    1    3    3    0    0 -0.17219556827E+02 -0.12857318373E+02  0.16927816373E+02  0.27356438735E+02  0.00000000000E+00 0.  1.
</event>
<event>
 7    1  0.2655561E-013  0.7246156E+02  0.7816164E-02  0.1226708E+00
        -11   -1    0    0    0    0  0.00000000000E+00  0.00000000000E+00  0.45593999997E+02  0.45594000000E+02  0.51100000000E-03 0.  1.
         11   -1    0    0    0    0 -0.00000000000E+00 -0.00000000000E+00 -0.45593999997E+02  0.45594000000E+02  0.51100000000E-03 0. -1.
    9900012    2    1    2    0    0 -0.12927751397E+01 -0.81302359481E+01 -0.16819861412E+02  0.72461555008E+02  0.69999980087E+02 0.  0.
        -12    1    1    2    0    0  0.12927751397E+01  0.81302359481E+01  0.16819861412E+02  0.18726444992E+02  0.00000000000E+00 0.  1.
         11    1    3    3    0    0 -0.11243504399E+02  0.12614033868E+02  0.62524380521E+01  0.18017303446E+02  0.51100000000E-03 0. -1.
        -11    1    3    3    0    0 -0.24257231975E+01  0.11330254636E+02  0.21759123708E+01  0.11789546135E+02  0.51100000000E-03 0.  1.
         12    1    3    3    0    0  0.12376452457E+02 -0.32074524453E+02 -0.25248211834E+02  0.42654705428E+02  0.00000000000E+00 0. -1.
</event>
<event>
 7    1  0.2655561E-013  0.7246157E+02  0.7816164E-02  0.1226708E+00
        -11   -1    0    0    0    0  0.00000000000E+00  0.00000000000E+00  0.45593999997E+02  0.45594000000E+02  0.51100000000E-03 0. -1.
         11   -1    0    0    0    0 -0.00000000000E+00 -0.00000000000E+00 -0.45593999997E+02  0.45594000000E+02  0.51100000000E-03 0.  1.
    9900012    2    1    2    0    0 -0.16084543806E+01  0.12220164524E+02  0.14098207734E+02  0.72461574612E+02  0.70000005625E+02 0.  0.
        -12    1    1    2    0    0  0.16084543806E+01 -0.12220164524E+02 -0.14098207734E+02  0.18726425388E+02  0.00000000000E+00 0.  1.
         11    1    3    3    0    0  0.49615596186E+01 -0.16550904136E+01 -0.52428850250E+01  0.74056898242E+01  0.51100000000E-03 0.  1.
        -11    1    3    3    0    0  0.73512231133E+00  0.14964167414E+02 -0.20021397468E+02  0.25006460526E+02  0.51100000000E-03 0. -1.
         12    1    3    3    0    0 -0.73051363105E+01 -0.10889124769E+01  0.39362490227E+02  0.40049424262E+02  0.00000000000E+00 0. -1.
</event>
<event>
 7    1  0.2655561E-013  0.7246162E+02  0.7816164E-02  0.1226708E+00
        -11   -1    0    0    0    0  0.00000000000E+00  0.00000000000E+00  0.45593999997E+02  0.45594000000E+02  0.51100000000E-03 0.  1.
         11   -1    0    0    0    0 -0.00000000000E+00 -0.00000000000E+00 -0.45593999997E+02  0.45594000000E+02  0.51100000000E-03 0. -1.
    9900012    2    1    2    0    0 -0.33083123107E+01 -0.48558244976E+01 -0.17780706452E+02  0.72461615303E+02  0.70000058632E+02 0.  0.
        -12    1    1    2    0    0  0.33083123107E+01  0.48558244976E+01  0.17780706452E+02  0.18726384697E+02  0.00000000000E+00 0.  1.
         11    1    3    3    0    0  0.24931603093E+00 -0.13203159515E+01  0.53393109876E+01  0.55057819407E+01  0.51100000000E-03 0. -1.
        -11    1    3    3    0    0  0.16475884109E+02  0.17928884235E+02  0.65489589696E+01  0.25214847033E+02  0.51100000000E-03 0.  1.
         12    1    3    3    0    0 -0.20033512450E+02 -0.21464392781E+02 -0.29668976409E+02  0.41740986329E+02  0.00000000000E+00 0. -1.
</event>
<event>
 7    1  0.2655561E-013  0.7246162E+02  0.7816164E-02  0.1226708E+00
        -11   -1    0    0    0    0  0.00000000000E+00  0.00000000000E+00  0.45593999997E+02  0.45594000000E+02  0.51100000000E-03 0. -1.
         11   -1    0    0    0    0 -0.00000000000E+00 -0.00000000000E+00 -0.45593999997E+02  0.45594000000E+02  0.51100000000E-03 0.  1.
    9900012    2    1    2    0    0  0.63308779147E+01 -0.15370803673E+02  0.86218118181E+01  0.72461621286E+02  0.70000066426E+02 0.  0.
        -12    1    1    2    0    0 -0.63308779147E+01  0.15370803673E+02 -0.86218118181E+01  0.18726378714E+02  0.00000000000E+00 0.  1.
         11    1    3    3    0    0 -0.39623669198E+01 -0.11475275117E+02  0.20841740339E+02  0.24119710430E+02  0.51100000000E-03 0. -1.
        -11    1    3    3    0    0  0.49782256330E+01 -0.11884269240E+02  0.14827057149E+02  0.19643324815E+02  0.51100000000E-03 0.  1.
        -12    1    3    3    0    0  0.53150192015E+01  0.79887406839E+01 -0.27046985671E+02  0.28698586040E+02  0.00000000000E+00 0.  1.
</event>
<event>
 7    1  0.2655561E-013  0.7246156E+02  0.7816164E-02  0.1226708E+00
        -11   -1    0    0    0    0  0.00000000000E+00  0.00000000000E+00  0.45593999997E+02  0.45594000000E+02  0.51100000000E-03 0.  1.
         11   -1    0    0    0    0 -0.00000000000E+00 -0.00000000000E+00 -0.45593999997E+02  0.45594000000E+02  0.51100000000E-03 0. -1.
    9900012    2    1    2    0    0  0.17880852208E+02  0.16637582964E+01  0.53090994110E+01  0.72461561366E+02  0.69999988369E+02 0.  0.
        -12    1    1    2    0    0 -0.17880852208E+02 -0.16637582964E+01 -0.53090994110E+01  0.18726438634E+02  0.00000000000E+00 0.  1.
         11    1    3    3    0    0  0.99347813254E+01 -0.75704045179E+01  0.31572056446E+01  0.12883278010E+02  0.51100000000E-03 0. -1.
        -11    1    3    3    0    0  0.30187507817E+02  0.17961123770E+02  0.51365071630E+01  0.35500300019E+02  0.51100000000E-03 0.  1.
        -12    1    3    3    0    0 -0.22241436934E+02 -0.87269609561E+01 -0.29846133965E+01  0.24077983337E+02  0.00000000000E+00 0.  1.
</event>
<event>
 7    1  0.2655561E-013  0.7246158E+02  0.7816164E-02  0.1226708E+00
        -11   -1    0    0    0    0  0.00000000000E+00  0.00000000000E+00  0.45593999997E+02  0.45594000000E+02  0.51100000000E-03 0. -1.
         11   -1    0    0    0    0 -0.00000000000E+00 -0.00000000000E+00 -0.45593999997E+02  0.45594000000E+02  0.51100000000E-03 0.  1.
    9900012    2    1    2    0    0  0.63893673036E+01  0.46546277128E+01  0.16976139998E+02  0.72461577413E+02  0.70000009273E+02 0.  0.
        -12    1    1    2    0    0 -0.63893673036E+01 -0.46546277128E+01 -0.16976139998E+02  0.18726422587E+02  0.00000000000E+00 0.  1.
         11    1    3    3    0    0  0.65274006663E+01  0.94638146588E+01  0.25445577832E+01  0.11774783307E+02  0.51100000000E-03 0. -1.
        -11    1    3    3    0    0  0.61462958061E+01  0.20194481686E+02 -0.11568716029E+02  0.24071336347E+02  0.51100000000E-03 0.  1.
        -12    1    3    3    0    0 -0.62843291688E+01 -0.25003668632E+02  0.26000298244E+02  0.36615457759E+02  0.00000000000E+00 0.  1.
</event>
<event>
 7    1  0.4545007E-013  0.7246160E+02  0.7816164E-02  0.1226708E+00
        -11   -1    0    0    0    0  0.00000000000E+00  0.00000000000E+00  0.45593999997E+02  0.45594000000E+02  0.51100000000E-03 0. -1.
         11   -1    0    0    0    0 -0.00000000000E+00 -0.00000000000E+00 -0.45593999997E+02  0.45594000000E+02  0.51100000000E-03 0.  1.
    9900012    2    1    2    0    0 -0.49542980431E+01 -0.16838220024E+02  0.65274204581E+01  0.72461603109E+02  0.70000042747E+02 0.  0.
        -12    1    1    2    0    0  0.49542980431E+01  0.16838220024E+02 -0.65274204581E+01  0.18726396891E+02  0.00000000000E+00 0.  1.
         11    1    3    3    0    0  0.50553400803E+00 -0.30372066511E+02  0.21750844702E+02  0.37360637499E+02  0.51100000000E-03 0. -1.
        -11    1    3    3    0    0  0.34102996957E+01  0.13315438969E+02  0.36709293557E+01  0.14226973731E+02  0.51100000000E-03 0.  1.
        -12    1    3    3    0    0 -0.88701317468E+01  0.21840751866E+00 -0.18894353599E+02  0.20873991880E+02  0.00000000000E+00 0.  1.
</event>
<event>
 7    1  0.2655561E-013  0.7246234E+02  0.7816164E-02  0.1226706E+00
        -11   -1    0    0    0    0  0.00000000000E+00  0.00000000000E+00  0.45593999997E+02  0.45594000000E+02  0.51100000000E-03 0. -1.
         11   -1    0    0    0    0 -0.00000000000E+00 -0.00000000000E+00 -0.45593999997E+02  0.45594000000E+02  0.51100000000E-03 0.  1.
    9900012    2    1    2    0    0 -0.89456270911E+01  0.89994347601E+01  0.13770854356E+02  0.72462335800E+02  0.70000997206E+02 0.  0.
        -12    1    1    2    0    0  0.89456270911E+01 -0.89994347601E+01 -0.13770854356E+02  0.18725664200E+02  0.00000000000E+00 0.  1.
         11    1    3    3    0    0  0.17767042304E+02 -0.12121146930E+01 -0.52550920391E+01  0.18567525599E+02  0.51100000000E-03 0.  1.
        -11    1    3    3    0    0 -0.15591875030E+00  0.18202567486E+02 -0.30388005981E+01  0.18455137038E+02  0.51100000000E-03 0. -1.
        -12    1    3    3    0    0 -0.26556750645E+02 -0.79910180332E+01  0.22064746993E+02  0.35439673163E+02  0.00000000000E+00 0.  1.
</event>
<event>
 7    1  0.2655561E-013  0.7246157E+02  0.7816164E-02  0.1226708E+00
        -11   -1    0    0    0    0  0.00000000000E+00  0.00000000000E+00  0.45593999997E+02  0.45594000000E+02  0.51100000000E-03 0. -1.
         11   -1    0    0    0    0 -0.00000000000E+00 -0.00000000000E+00 -0.45593999997E+02  0.45594000000E+02  0.51100000000E-03 0.  1.
    9900012    2    1    2    0    0  0.17084566914E+02  0.50650795497E+01  0.57568888470E+01  0.72461568768E+02  0.69999998012E+02 0.  0.
        -12    1    1    2    0    0 -0.17084566914E+02 -0.50650795497E+01 -0.57568888470E+01  0.18726431232E+02  0.00000000000E+00 0.  1.
         11    1    3    3    0    0 -0.23868967298E+01 -0.82288999413E+01  0.39036824327E+01  0.94154557531E+01  0.51100000000E-03 0. -1.
        -11    1    3    3    0    0  0.39490334414E+01 -0.19815232182E+02 -0.12504281504E+02  0.23761215200E+02  0.51100000000E-03 0.  1.
         12    1    3    3    0    0  0.15522430203E+02  0.33109211673E+02  0.14357487919E+02  0.39284897815E+02  0.00000000000E+00 0. -1.
</event>
<event>
 7    1  0.2655561E-013  0.7246149E+02  0.7816164E-02  0.1226708E+00
        -11   -1    0    0    0    0  0.00000000000E+00  0.00000000000E+00  0.45593999997E+02  0.45594000000E+02  0.51100000000E-03 0.  1.
         11   -1    0    0    0    0 -0.00000000000E+00 -0.00000000000E+00 -0.45593999997E+02  0.45594000000E+02  0.51100000000E-03 0. -1.
    9900012    2    1    2    0    0  0.15095163765E+02  0.40631749432E+01 -0.10310623485E+02  0.72461486273E+02  0.69999890546E+02 0.  0.
        -12    1    1    2    0    0 -0.15095163765E+02 -0.40631749432E+01  0.10310623485E+02  0.18726513727E+02  0.00000000000E+00 0.  1.
         11    1    3    3    0    0  0.24032675197E+01 -0.95702457637E+01 -0.29958351004E+02  0.31541529670E+02  0.51100000000E-03 0. -1.
        -11    1    3    3    0    0  0.19295076236E+01  0.13336211848E+02 -0.47215119624E+01  0.14278312982E+02  0.51100000000E-03 0.  1.
        -12    1    3    3    0    0  0.10762388622E+02  0.29720885869E+00  0.24369239481E+02  0.26641643621E+02  0.00000000000E+00 0.  1.
</event>
<event>
 7    1  0.2655561E-013  0.7246152E+02  0.7816164E-02  0.1226708E+00
        -11   -1    0    0    0    0  0.00000000000E+00  0.00000000000E+00  0.45593999997E+02  0.45594000000E+02  0.51100000000E-03 0. -1.
         11   -1    0    0    0    0 -0.00000000000E+00 -0.00000000000E+00 -0.45593999997E+02  0.45594000000E+02  0.51100000000E-03 0.  1.
    9900012    2    1    2    0    0 -0.14568335980E+00  0.62172888909E+01  0.17663662732E+02  0.72461524467E+02  0.69999940301E+02 0.  0.
        -12    1    1    2    0    0  0.14568335980E+00 -0.62172888909E+01 -0.17663662732E+02  0.18726475533E+02  0.00000000000E+00 0.  1.
         11    1    3    3    0    0 -0.15128205056E+02  0.11129976813E+02  0.14840419573E+01  0.18839887284E+02  0.51100000000E-03 0. -1.
        -11    1    3    3    0    0 -0.17177172163E+02  0.27265105076E+01  0.15085430184E+01  0.17457514295E+02  0.51100000000E-03 0.  1.
         12    1    3    3    0    0  0.32159693859E+02 -0.76391984293E+01  0.14671077756E+02  0.36164122888E+02  0.00000000000E+00 0. -1.
</event>
<event>
 7    1  0.2655561E-013  0.7246156E+02  0.7816164E-02  0.1226708E+00
        -11   -1    0    0    0    0  0.00000000000E+00  0.00000000000E+00  0.45593999997E+02  0.45594000000E+02  0.51100000000E-03 0.  1.
         11   -1    0    0    0    0 -0.00000000000E+00 -0.00000000000E+00 -0.45593999997E+02  0.45594000000E+02  0.51100000000E-03 0. -1.
    9900012    2    1    2    0    0  0.82636433944E+01  0.14988809172E+02  0.75978569221E+01  0.72461557936E+02  0.69999983901E+02 0.  0.
        -12    1    1    2    0    0 -0.82636433944E+01 -0.14988809172E+02 -0.75978569221E+01  0.18726442064E+02  0.00000000000E+00 0.  1.
         11    1    3    3    0    0 -0.13005754587E+02 -0.35832374589E+01  0.18180356432E+02  0.22638785376E+02  0.51100000000E-03 0. -1.
        -11    1    3    3    0    0 -0.95233482900E+01  0.18353278587E+01  0.56224344632E+01  0.11210457643E+02  0.51100000000E-03 0.  1.
         12    1    3    3    0    0  0.30792746272E+02  0.16736718772E+02 -0.16204933973E+02  0.38612314917E+02  0.00000000000E+00 0. -1.
</event>
<event>
 7    1  0.2655561E-013  0.7246148E+02  0.7816164E-02  0.1226708E+00
        -11   -1    0    0    0    0  0.00000000000E+00  0.00000000000E+00  0.45593999997E+02  0.45594000000E+02  0.51100000000E-03 0. -1.
         11   -1    0    0    0    0 -0.00000000000E+00 -0.00000000000E+00 -0.45593999997E+02  0.45594000000E+02  0.51100000000E-03 0.  1.
    9900012    2    1    2    0    0  0.12209576689E+02 -0.76170752489E+01  0.11982855074E+02  0.72461483666E+02  0.69999887151E+02 0.  0.
        -12    1    1    2    0    0 -0.12209576689E+02  0.76170752489E+01 -0.11982855074E+02  0.18726516334E+02  0.00000000000E+00 0.  1.
         11    1    3    3    0    0  0.15115917255E+02 -0.20901861184E+02 -0.48144744198E+01  0.26240387185E+02  0.51100000000E-03 0. -1.
        -11    1    3    3    0    0  0.10137026221E+02 -0.87746911855E+01 -0.31184595183E+01  0.13765147876E+02  0.51100000000E-03 0.  1.
        -12    1    3    3    0    0 -0.13043366786E+02  0.22059477121E+02  0.19915789012E+02  0.32455948606E+02  0.00000000000E+00 0.  1.
</event>
<event>
 7    1  0.2655561E-013  0.7246157E+02  0.7816164E-02  0.1226708E+00
        -11   -1    0    0    0    0  0.00000000000E+00  0.00000000000E+00  0.45593999997E+02  0.45594000000E+02  0.51100000000E-03 0.  1.
         11   -1    0    0    0    0 -0.00000000000E+00 -0.00000000000E+00 -0.45593999997E+02  0.45594000000E+02  0.51100000000E-03 0. -1.
    9900012    2    1    2    0    0  0.12611895682E+02  0.95315551231E+01 -0.10038363697E+02  0.72461569441E+02  0.69999998889E+02 0.  0.
        -12    1    1    2    0    0 -0.12611895682E+02 -0.95315551231E+01  0.10038363697E+02  0.18726430559E+02  0.00000000000E+00 0.  1.
         11    1    3    3    0    0  0.15101012005E+02 -0.60824862985E+01 -0.13437817523E+02  0.21109527309E+02  0.51100000000E-03 0. -1.
        -11    1    3    3    0    0  0.64700366717E+01 -0.16583527589E+02  0.18230452258E+01  0.17894084385E+02  0.51100000000E-03 0.  1.
         12    1    3    3    0    0 -0.89591529953E+01  0.32197569010E+02  0.15764086002E+01  0.33457957747E+02  0.00000000000E+00 0. -1.
</event>
<event>
 7    1  0.2655561E-013  0.7246158E+02  0.7816164E-02  0.1226708E+00
        -11   -1    0    0    0    0  0.00000000000E+00  0.00000000000E+00  0.45593999997E+02  0.45594000000E+02  0.51100000000E-03 0.  1.
         11   -1    0    0    0    0 -0.00000000000E+00 -0.00000000000E+00 -0.45593999997E+02  0.45594000000E+02  0.51100000000E-03 0. -1.
    9900012    2    1    2    0    0 -0.14379924612E+02  0.58475498815E+01 -0.10473912231E+02  0.72461577253E+02  0.70000009065E+02 0.  0.
        -12    1    1    2    0    0  0.14379924612E+02 -0.58475498815E+01  0.10473912231E+02  0.18726422747E+02  0.00000000000E+00 0.  1.
         11    1    3    3    0    0 -0.36590966050E+01  0.16250820191E+02 -0.25876107789E+02  0.30774195349E+02  0.51100000000E-03 0. -1.
        -11    1    3    3    0    0 -0.14262412728E+02 -0.80224775881E+01 -0.77775163298E+01  0.18118121426E+02  0.51100000000E-03 0.  1.
        -12    1    3    3    0    0  0.35415847218E+01 -0.23807927212E+01  0.23179711887E+02  0.23569260478E+02  0.00000000000E+00 0.  1.
</event>
<event>
 7    1  0.2655561E-013  0.7246156E+02  0.7816164E-02  0.1226708E+00
        -11   -1    0    0    0    0  0.00000000000E+00  0.00000000000E+00  0.45593999997E+02  0.45594000000E+02  0.51100000000E-03 0.  1.
         11   -1    0    0    0    0 -0.00000000000E+00 -0.00000000000E+00 -0.45593999997E+02  0.45594000000E+02  0.51100000000E-03 0. -1.
    9900012    2    1    2    0    0  0.15461619008E+02  0.56070788507E+01 -0.89542424247E+01  0.72461562726E+02  0.69999990140E+02 0.  0.
        -12    1    1    2    0    0 -0.15461619008E+02 -0.56070788507E+01  0.89542424247E+01  0.18726437274E+02  0.00000000000E+00 0.  1.
         11    1    3    3    0    0  0.43551385619E+01  0.23628720119E+01  0.57419363974E+00  0.49879950517E+01  0.51100000000E-03 0. -1.
        -11    1    3    3    0    0  0.34487603523E+02 -0.75478973370E+01  0.81567975144E+01  0.36233946748E+02  0.51100000000E-03 0.  1.
         12    1    3    3    0    0 -0.23381123077E+02  0.10792104176E+02 -0.17685233579E+02  0.31239620926E+02  0.00000000000E+00 0. -1.
</event>
<event>
 7    1  0.2655561E-013  0.7246159E+02  0.7816164E-02  0.1226708E+00
        -11   -1    0    0    0    0  0.00000000000E+00  0.00000000000E+00  0.45593999997E+02  0.45594000000E+02  0.51100000000E-03 0.  1.
         11   -1    0    0    0    0 -0.00000000000E+00 -0.00000000000E+00 -0.45593999997E+02  0.45594000000E+02  0.51100000000E-03 0. -1.
    9900012    2    1    2    0    0  0.15440081497E+02  0.53945155515E+01 -0.91203874227E+01  0.72461591337E+02  0.70000027413E+02 0.  0.
        -12    1    1    2    0    0 -0.15440081497E+02 -0.53945155515E+01  0.91203874227E+01  0.18726408663E+02  0.00000000000E+00 0.  1.
         11    1    3    3    0    0  0.88427518527E+01 -0.13390435511E+02 -0.76923214790E+01  0.17795219400E+02  0.51100000000E-03 0. -1.
        -11    1    3    3    0    0  0.16941464489E+02 -0.12835915919E+02 -0.23448916258E+01  0.21383930264E+02  0.51100000000E-03 0.  1.
         12    1    3    3    0    0 -0.10344134845E+02  0.31620866982E+02  0.91682568215E+00  0.33282441673E+02  0.00000000000E+00 0. -1.
</event>
<event>
 7    1  0.2655561E-013  0.7246157E+02  0.7816164E-02  0.1226708E+00
        -11   -1    0    0    0    0  0.00000000000E+00  0.00000000000E+00  0.45593999997E+02  0.45594000000E+02  0.51100000000E-03 0. -1.
         11   -1    0    0    0    0 -0.00000000000E+00 -0.00000000000E+00 -0.45593999997E+02  0.45594000000E+02  0.51100000000E-03 0.  1.
    9900012    2    1    2    0    0 -0.23525807000E+01  0.97467431987E+01  0.15815990919E+02  0.72461569275E+02  0.69999998672E+02 0.  0.
        -12    1    1    2    0    0  0.23525807000E+01 -0.97467431987E+01 -0.15815990919E+02  0.18726430725E+02  0.00000000000E+00 0.  1.
         11    1    3    3    0    0 -0.61802630255E+01  0.80974560252E+01  0.48399226491E+01  0.11277823223E+02  0.51100000000E-03 0. -1.
        -11    1    3    3    0    0 -0.24434624237E+02  0.15129834656E+02  0.73294045622E+01  0.29659449250E+02  0.51100000000E-03 0.  1.
         12    1    3    3    0    0  0.28262306563E+02 -0.13480547482E+02  0.36466637081E+01  0.31524296802E+02  0.00000000000E+00 0. -1.
</event>
<event>
 7    1  0.2655561E-013  0.7246159E+02  0.7816164E-02  0.1226708E+00
        -11   -1    0    0    0    0  0.00000000000E+00  0.00000000000E+00  0.45593999997E+02  0.45594000000E+02  0.51100000000E-03 0. -1.
         11   -1    0    0    0    0 -0.00000000000E+00 -0.00000000000E+00 -0.45593999997E+02  0.45594000000E+02  0.51100000000E-03 0.  1.
    9900012    2    1    2    0    0  0.78643551723E+01 -0.76986090438E+01  0.15151294187E+02  0.72461591401E+02  0.70000027495E+02 0.  0.
        -12    1    1    2    0    0 -0.78643551723E+01  0.76986090438E+01 -0.15151294187E+02  0.18726408599E+02  0.00000000000E+00 0.  1.
         11    1    3    3    0    0 -0.73662812704E+01  0.69499172467E+00  0.12091765109E+02  0.14175891399E+02  0.51100000000E-03 0. -1.
        -11    1    3    3    0    0 -0.57728839329E+01  0.85802083511E+01  0.22666169239E+02  0.24913879515E+02  0.51100000000E-03 0.  1.
        -12    1    3    3    0    0  0.21003520376E+02 -0.16973809120E+02 -0.19606640161E+02  0.33371820487E+02  0.00000000000E+00 0.  1.
</event>
<event>
 7    1  0.2655561E-013  0.7246158E+02  0.7816164E-02  0.1226708E+00
        -11   -1    0    0    0    0  0.00000000000E+00  0.00000000000E+00  0.45593999997E+02  0.45594000000E+02  0.51100000000E-03 0.  1.
         11   -1    0    0    0    0 -0.00000000000E+00 -0.00000000000E+00 -0.45593999997E+02  0.45594000000E+02  0.51100000000E-03 0. -1.
    9900012    2    1    2    0    0 -0.15722872733E+02  0.62177342155E+01 -0.80504612153E+01  0.72461578251E+02  0.70000010365E+02 0.  0.
        -12    1    1    2    0    0  0.15722872733E+02 -0.62177342155E+01  0.80504612153E+01  0.18726421749E+02  0.00000000000E+00 0.  1.
         11    1    3    3    0    0 -0.40995459395E+00 -0.19801654255E+02 -0.21186248768E+02  0.29002253552E+02  0.51100000000E-03 0. -1.
        -11    1    3    3    0    0 -0.40402028258E+00  0.46072725035E+01 -0.84258720251E+01  0.96117382379E+01  0.51100000000E-03 0.  1.
        -12    1    3    3    0    0 -0.14908897856E+02  0.21412115967E+02  0.21561659578E+02  0.33847586461E+02  0.00000000000E+00 0.  1.
</event>
<event>
 7    1  0.2655561E-013  0.7246157E+02  0.7816164E-02  0.1226708E+00
        -11   -1    0    0    0    0  0.00000000000E+00  0.00000000000E+00  0.45593999997E+02  0.45594000000E+02  0.51100000000E-03 0. -1.
         11   -1    0    0    0    0 -0.00000000000E+00 -0.00000000000E+00 -0.45593999997E+02  0.45594000000E+02  0.51100000000E-03 0.  1.
    9900012    2    1    2    0    0  0.96957400303E+01 -0.15449101611E+02  0.42423131365E+01  0.72461565848E+02  0.69999994207E+02 0.  0.
        -12    1    1    2    0    0 -0.96957400303E+01  0.15449101611E+02 -0.42423131365E+01  0.18726434152E+02  0.00000000000E+00 0.  1.
         11    1    3    3    0    0 -0.13008913992E+02  0.41241479264E+01  0.29411539045E+01  0.13960330437E+02  0.51100000000E-03 0. -1.
        -11    1    3    3    0    0  0.11705819807E+02 -0.18982232627E+02  0.24311225683E+02  0.32990711834E+02  0.51100000000E-03 0.  1.
         12    1    3    3    0    0  0.10998834215E+02 -0.59101691021E+00 -0.23010066451E+02  0.25510523577E+02  0.00000000000E+00 0. -1.
</event>
<event>
 7    1  0.2655561E-013  0.7246140E+02  0.7816164E-02  0.1226708E+00
        -11   -1    0    0    0    0  0.00000000000E+00  0.00000000000E+00  0.45593999997E+02  0.45594000000E+02  0.51100000000E-03 0. -1.
         11   -1    0    0    0    0 -0.00000000000E+00 -0.00000000000E+00 -0.45593999997E+02  0.45594000000E+02  0.51100000000E-03 0.  1.
    9900012    2    1    2    0    0 -0.11788235097E+01 -0.18684092126E+02 -0.44772425037E+00  0.72461404462E+02  0.69999783972E+02 0.  0.
        -12    1    1    2    0    0  0.11788235097E+01  0.18684092126E+02  0.44772425037E+00  0.18726595538E+02  0.00000000000E+00 0.  1.
         11    1    3    3    0    0  0.14748238717E+02 -0.24657353581E+01  0.64338031584E+01  0.16278335893E+02  0.51100000000E-03 0. -1.
        -11    1    3    3    0    0  0.65422222932E+01  0.14980958899E+02 -0.68771249097E+01  0.17734842806E+02  0.51100000000E-03 0.  1.
         12    1    3    3    0    0 -0.22469284519E+02 -0.31199315667E+02 -0.44024991424E-02  0.38448225763E+02  0.00000000000E+00 0. -1.
</event>
<event>
 7    1  0.2655561E-013  0.7246153E+02  0.7816164E-02  0.1226708E+00
        -11   -1    0    0    0    0  0.00000000000E+00  0.00000000000E+00  0.45593999997E+02  0.45594000000E+02  0.51100000000E-03 0. -1.
         11   -1    0    0    0    0 -0.00000000000E+00 -0.00000000000E+00 -0.45593999997E+02  0.45594000000E+02  0.51100000000E-03 0.  1.
    9900012    2    1    2    0    0  0.21032530605E+01  0.14273552771E+02  0.11938284126E+02  0.72461531833E+02  0.69999949897E+02 0.  0.
        -12    1    1    2    0    0 -0.21032530605E+01 -0.14273552771E+02 -0.11938284126E+02  0.18726468167E+02  0.00000000000E+00 0.  1.
         11    1    3    3    0    0  0.35547770341E+01 -0.13781973507E+02 -0.54849105033E+01  0.15253310362E+02  0.51100000000E-03 0. -1.
        -11    1    3    3    0    0  0.56178174514E+01  0.12781703362E+01 -0.14109357202E+02  0.15240326546E+02  0.51100000000E-03 0.  1.
         12    1    3    3    0    0 -0.70693414249E+01  0.26777355942E+02  0.31532551831E+02  0.41967894925E+02  0.00000000000E+00 0. -1.
</event>
<event>
 7    1  0.2655561E-013  0.7246156E+02  0.7816164E-02  0.1226708E+00
        -11   -1    0    0    0    0  0.00000000000E+00  0.00000000000E+00  0.45593999997E+02  0.45594000000E+02  0.51100000000E-03 0.  1.
         11   -1    0    0    0    0 -0.00000000000E+00 -0.00000000000E+00 -0.45593999997E+02  0.45594000000E+02  0.51100000000E-03 0. -1.
    9900012    2    1    2    0    0  0.14475275398E+02  0.74664806443E+01 -0.92410931777E+01  0.72461555218E+02  0.69999980360E+02 0.  0.
        -12    1    1    2    0    0 -0.14475275398E+02 -0.74664806443E+01  0.92410931777E+01  0.18726444782E+02  0.00000000000E+00 0.  1.
         11    1    3    3    0    0 -0.34219188471E+01  0.22508218296E+01 -0.11558782183E+02  0.12263000176E+02  0.51100000000E-03 0. -1.
        -11    1    3    3    0    0 -0.10419786438E+02  0.14381970615E+02 -0.17105573527E+02  0.24657933290E+02  0.51100000000E-03 0.  1.
        -12    1    3    3    0    0  0.28316980684E+02 -0.91663118002E+01  0.19423262533E+02  0.35540621751E+02  0.00000000000E+00 0.  1.
</event>
<event>
 7    1  0.2655561E-013  0.7246136E+02  0.7816164E-02  0.1226709E+00
        -11   -1    0    0    0    0  0.00000000000E+00  0.00000000000E+00  0.45593999997E+02  0.45594000000E+02  0.51100000000E-03 0.  1.
         11   -1    0    0    0    0 -0.00000000000E+00 -0.00000000000E+00 -0.45593999997E+02  0.45594000000E+02  0.51100000000E-03 0. -1.
    9900012    2    1    2    0    0 -0.11362340759E+02 -0.14774843497E+02 -0.18133302641E+01  0.72461362434E+02  0.69999729223E+02 0.  0.
        -12    1    1    2    0    0  0.11362340759E+02  0.14774843497E+02  0.18133302641E+01  0.18726637566E+02  0.00000000000E+00 0.  1.
         11    1    3    3    0    0  0.70690751892E+00 -0.91942865459E+01 -0.76694064014E+01  0.11993932555E+02  0.51100000000E-03 0. -1.
        -11    1    3    3    0    0 -0.28481630481E+02 -0.11512421979E+01 -0.16070470111E+02  0.32722907012E+02  0.51100000000E-03 0.  1.
        -12    1    3    3    0    0  0.16412382203E+02 -0.44293147531E+01  0.21926546248E+02  0.27744522867E+02  0.00000000000E+00 0.  1.
</event>
<event>
 7    1  0.2655561E-013  0.7246156E+02  0.7816164E-02  0.1226708E+00
        -11   -1    0    0    0    0  0.00000000000E+00  0.00000000000E+00  0.45593999997E+02  0.45594000000E+02  0.51100000000E-03 0.  1.
         11   -1    0    0    0    0 -0.00000000000E+00 -0.00000000000E+00 -0.45593999997E+02  0.45594000000E+02  0.51100000000E-03 0. -1.
    9900012    2    1    2    0    0  0.41500184364E+01 -0.40687437129E+01 -0.17801748747E+02  0.72461559151E+02  0.69999985484E+02 0.  0.
        -12    1    1    2    0    0 -0.41500184364E+01  0.40687437129E+01  0.17801748747E+02  0.18726440849E+02  0.00000000000E+00 0.  1.
         11    1    3    3    0    0 -0.15547426606E+02 -0.18404464179E+00 -0.19813463710E+02  0.25185902623E+02  0.51100000000E-03 0. -1.
        -11    1    3    3    0    0  0.64829680434E+01 -0.12426237356E+02 -0.17364611963E+02  0.22315241392E+02  0.51100000000E-03 0.  1.
         12    1    3    3    0    0  0.13214476999E+02  0.85415382850E+01  0.19376326926E+02  0.24960415136E+02  0.00000000000E+00 0. -1.
</event>
<event>
 7    1  0.2655561E-013  0.7246156E+02  0.7816164E-02  0.1226708E+00
        -11   -1    0    0    0    0  0.00000000000E+00  0.00000000000E+00  0.45593999997E+02  0.45594000000E+02  0.51100000000E-03 0.  1.
         11   -1    0    0    0    0 -0.00000000000E+00 -0.00000000000E+00 -0.45593999997E+02  0.45594000000E+02  0.51100000000E-03 0. -1.
    9900012    2    1    2    0    0 -0.90966430708E+01 -0.73490154751E+01 -0.14626090346E+02  0.72461562474E+02  0.69999989812E+02 0.  0.
        -12    1    1    2    0    0  0.90966430708E+01  0.73490154751E+01  0.14626090346E+02  0.18726437526E+02  0.00000000000E+00 0.  1.
         11    1    3    3    0    0  0.39446757144E+01 -0.12633884704E+01 -0.10015471595E+01  0.42614215812E+01  0.51100000000E-03 0. -1.
        -11    1    3    3    0    0  0.33270658004E+01  0.14448415439E+02  0.20401150373E+02  0.25219694929E+02  0.51100000000E-03 0.  1.
        -12    1    3    3    0    0 -0.16368384586E+02 -0.20534042443E+02 -0.34025693559E+02  0.42980445963E+02  0.00000000000E+00 0.  1.
</event>
<event>
 7    1  0.2655561E-013  0.7246156E+02  0.7816164E-02  0.1226708E+00
        -11   -1    0    0    0    0  0.00000000000E+00  0.00000000000E+00  0.45593999997E+02  0.45594000000E+02  0.51100000000E-03 0. -1.
         11   -1    0    0    0    0 -0.00000000000E+00 -0.00000000000E+00 -0.45593999997E+02  0.45594000000E+02  0.51100000000E-03 0.  1.
    9900012    2    1    2    0    0 -0.12871250249E+02 -0.11545346263E+02  0.71913446772E+01  0.72461560361E+02  0.69999987060E+02 0.  0.
        -12    1    1    2    0    0  0.12871250249E+02  0.11545346263E+02 -0.71913446772E+01  0.18726439639E+02  0.00000000000E+00 0.  1.
         11    1    3    3    0    0 -0.17936961142E+02  0.12368558068E+02  0.17944710162E+02  0.28226378208E+02  0.51100000000E-03 0. -1.
        -11    1    3    3    0    0 -0.70674663481E+01 -0.10821516989E+02  0.10376467202E+02  0.16574841851E+02  0.51100000000E-03 0.  1.
        -12    1    3    3    0    0  0.12133177242E+02 -0.13092387342E+02 -0.21129832686E+02  0.27660340302E+02  0.00000000000E+00 0.  1.
</event>
<event>
 7    1  0.2655561E-013  0.7246157E+02  0.7816164E-02  0.1226708E+00
        -11   -1    0    0    0    0  0.00000000000E+00  0.00000000000E+00  0.45593999997E+02  0.45594000000E+02  0.51100000000E-03 0.  1.
         11   -1    0    0    0    0 -0.00000000000E+00 -0.00000000000E+00 -0.45593999997E+02  0.45594000000E+02  0.51100000000E-03 0. -1.
    9900012    2    1    2    0    0 -0.69702774764E+01  0.63191630882E+01 -0.16191438706E+02  0.72461567408E+02  0.69999996240E+02 0.  0.
        -12    1    1    2    0    0  0.69702774764E+01 -0.63191630882E+01  0.16191438706E+02  0.18726432592E+02  0.00000000000E+00 0.  1.
         11    1    3    3    0    0 -0.22387319404E+02  0.10735872487E+02 -0.55748154460E+01  0.25446602831E+02  0.51100000000E-03 0. -1.
        -11    1    3    3    0    0 -0.29470795015E+01 -0.45440501285E+01  0.14741731535E+02  0.15705168515E+02  0.51100000000E-03 0.  1.
         12    1    3    3    0    0  0.18364121429E+02  0.12734072992E+00 -0.25358354796E+02  0.31309796062E+02  0.00000000000E+00 0. -1.
</event>
<event>
 7    1  0.2655561E-013  0.7246158E+02  0.7816164E-02  0.1226708E+00
        -11   -1    0    0    0    0  0.00000000000E+00  0.00000000000E+00  0.45593999997E+02  0.45594000000E+02  0.51100000000E-03 0. -1.
         11   -1    0    0    0    0 -0.00000000000E+00 -0.00000000000E+00 -0.45593999997E+02  0.45594000000E+02  0.51100000000E-03 0.  1.
    9900012    2    1    2    0    0 -0.10560734458E+02  0.14526896461E+02 -0.53027175058E+01  0.72461584272E+02  0.70000018208E+02 0.  0.
        -12    1    1    2    0    0  0.10560734458E+02 -0.14526896461E+02  0.53027175058E+01  0.18726415728E+02  0.00000000000E+00 0.  1.
         11    1    3    3    0    0 -0.25917949187E+02  0.22058833552E+02  0.10470912802E+02  0.35608597879E+02  0.51100000000E-03 0. -1.
        -11    1    3    3    0    0  0.53965603988E+00  0.34360526072E+01  0.68421255269E+01  0.76754392804E+01  0.51100000000E-03 0.  1.
        -12    1    3    3    0    0  0.14817558689E+02 -0.10967989698E+02 -0.22615755835E+02  0.29177547112E+02  0.00000000000E+00 0.  1.
</event>
<event>
 7    1  0.2655561E-013  0.7246145E+02  0.7816164E-02  0.1226708E+00
        -11   -1    0    0    0    0  0.00000000000E+00  0.00000000000E+00  0.45593999997E+02  0.45594000000E+02  0.51100000000E-03 0.  1.
         11   -1    0    0    0    0 -0.00000000000E+00 -0.00000000000E+00 -0.45593999997E+02  0.45594000000E+02  0.51100000000E-03 0. -1.
    9900012    2    1    2    0    0  0.12332337980E+02 -0.13222301102E+02 -0.48752194172E+01  0.72461452778E+02  0.69999846913E+02 0.  0.
        -12    1    1    2    0    0 -0.12332337980E+02  0.13222301102E+02  0.48752194172E+01  0.18726547222E+02  0.00000000000E+00 0.  1.
         11    1    3    3    0    0 -0.14236953565E+02  0.30752013639E+01  0.54714080058E+01  0.15559049330E+02  0.51100000000E-03 0. -1.
        -11    1    3    3    0    0  0.11832786291E+02 -0.83881398181E+01  0.18530251179E+02  0.23531806774E+02  0.51100000000E-03 0.  1.
         12    1    3    3    0    0  0.14736505254E+02 -0.79093626474E+01 -0.28876878602E+02  0.33370596674E+02  0.00000000000E+00 0. -1.
</event>
<event>
 7    1  0.2655561E-013  0.7246168E+02  0.7816164E-02  0.1226708E+00
        -11   -1    0    0    0    0  0.00000000000E+00  0.00000000000E+00  0.45593999997E+02  0.45594000000E+02  0.51100000000E-03 0. -1.
         11   -1    0    0    0    0 -0.00000000000E+00 -0.00000000000E+00 -0.45593999997E+02  0.45594000000E+02  0.51100000000E-03 0.  1.
    9900012    2    1    2    0    0  0.13088902460E+02  0.48436404831E+01  0.12485792376E+02  0.72461675427E+02  0.70000136955E+02 0.  0.
        -12    1    1    2    0    0 -0.13088902460E+02 -0.48436404831E+01 -0.12485792376E+02  0.18726324573E+02  0.00000000000E+00 0.  1.
         11    1    3    3    0    0  0.74651931293E+00  0.78423620431E+00 -0.71990409682E+01  0.72800074609E+01  0.51100000000E-03 0. -1.
        -11    1    3    3    0    0  0.19642922680E+02 -0.23120778535E+02 -0.83810327655E+00  0.30349913161E+02  0.51100000000E-03 0.  1.
         12    1    3    3    0    0 -0.73005395329E+01  0.27180182814E+02  0.20522936621E+02  0.34831754805E+02  0.00000000000E+00 0. -1.
</event>
<event>
 7    1  0.2655561E-013  0.7246157E+02  0.7816164E-02  0.1226708E+00
        -11   -1    0    0    0    0  0.00000000000E+00  0.00000000000E+00  0.45593999997E+02  0.45594000000E+02  0.51100000000E-03 0.  1.
         11   -1    0    0    0    0 -0.00000000000E+00 -0.00000000000E+00 -0.45593999997E+02  0.45594000000E+02  0.51100000000E-03 0. -1.
    9900012    2    1    2    0    0  0.14822641629E+02  0.43264340108E+01 -0.10594824953E+02  0.72461573435E+02  0.70000004091E+02 0.  0.
        -12    1    1    2    0    0 -0.14822641629E+02 -0.43264340108E+01  0.10594824953E+02  0.18726426565E+02  0.00000000000E+00 0.  1.
         11    1    3    3    0    0  0.20032029146E+02 -0.18334441426E+02 -0.16445876366E+02  0.31747453187E+02  0.51100000000E-03 0. -1.
        -11    1    3    3    0    0 -0.53017920866E+01  0.27233343496E+01 -0.12353114245E+02  0.13715866036E+02  0.51100000000E-03 0.  1.
        -12    1    3    3    0    0  0.92404568851E-01  0.19937541087E+02  0.18204165658E+02  0.26998254212E+02  0.00000000000E+00 0.  1.
</event>
<event>
 7    1  0.2655561E-013  0.7246163E+02  0.7816164E-02  0.1226708E+00
        -11   -1    0    0    0    0  0.00000000000E+00  0.00000000000E+00  0.45593999997E+02  0.45594000000E+02  0.51100000000E-03 0.  1.
         11   -1    0    0    0    0 -0.00000000000E+00 -0.00000000000E+00 -0.45593999997E+02  0.45594000000E+02  0.51100000000E-03 0. -1.
    9900012    2    1    2    0    0  0.55246494839E+01  0.13713337229E+02 -0.11493463428E+02  0.72461626313E+02  0.70000072975E+02 0.  0.
        -12    1    1    2    0    0 -0.55246494839E+01 -0.13713337229E+02  0.11493463428E+02  0.18726373687E+02  0.00000000000E+00 0.  1.
         11    1    3    3    0    0 -0.10603772156E+02 -0.34935843664E+00  0.15435969506E+02  0.18730488251E+02  0.51100000000E-03 0. -1.
        -11    1    3    3    0    0  0.22606381170E+02  0.89987800450E+01  0.12627914877E+01  0.24364341864E+02  0.51100000000E-03 0.  1.
        -12    1    3    3    0    0 -0.64779595293E+01  0.50639156209E+01 -0.28192224422E+02  0.29366796198E+02  0.00000000000E+00 0.  1.
</event>
<event>
 7    1  0.2655561E-013  0.7246157E+02  0.7816164E-02  0.1226708E+00
        -11   -1    0    0    0    0  0.00000000000E+00  0.00000000000E+00  0.45593999997E+02  0.45594000000E+02  0.51100000000E-03 0.  1.
         11   -1    0    0    0    0 -0.00000000000E+00 -0.00000000000E+00 -0.45593999997E+02  0.45594000000E+02  0.51100000000E-03 0. -1.
    9900012    2    1    2    0    0  0.62866899238E+01  0.69574511920E+01 -0.16209588321E+02  0.72461565454E+02  0.69999993694E+02 0.  0.
        -12    1    1    2    0    0 -0.62866899238E+01 -0.69574511920E+01  0.16209588321E+02  0.18726434546E+02  0.00000000000E+00 0.  1.
         11    1    3    3    0    0  0.19526800982E+01  0.10327052866E+02 -0.27430240267E+01  0.10862097474E+02  0.51100000000E-03 0. -1.
        -11    1    3    3    0    0 -0.81094330857E+01  0.26286845424E+02 -0.25118002262E+01  0.27623726902E+02  0.51100000000E-03 0.  1.
         12    1    3    3    0    0  0.12443442911E+02 -0.29656447098E+02 -0.10954764068E+02  0.33975741077E+02  0.00000000000E+00 0. -1.
</event>
<event>
 7    1  0.2655561E-013  0.7246158E+02  0.7816164E-02  0.1226708E+00
        -11   -1    0    0    0    0  0.00000000000E+00  0.00000000000E+00  0.45593999997E+02  0.45594000000E+02  0.51100000000E-03 0.  1.
         11   -1    0    0    0    0 -0.00000000000E+00 -0.00000000000E+00 -0.45593999997E+02  0.45594000000E+02  0.51100000000E-03 0. -1.
    9900012    2    1    2    0    0  0.12933639257E+02  0.41290493788E+01 -0.12897698998E+02  0.72461582493E+02  0.70000015892E+02 0.  0.
        -12    1    1    2    0    0 -0.12933639257E+02 -0.41290493788E+01  0.12897698998E+02  0.18726417507E+02  0.00000000000E+00 0.  1.
         11    1    3    3    0    0 -0.17587785587E+02  0.63355297128E+01 -0.21871684434E+02  0.28772203928E+02  0.51100000000E-03 0. -1.
        -11    1    3    3    0    0  0.78685868418E+01 -0.14556324686E+02  0.57787272095E+00  0.16557028247E+02  0.51100000000E-03 0.  1.
        -12    1    3    3    0    0  0.22652838002E+02  0.12349844352E+02  0.83961127157E+01  0.27132350318E+02  0.00000000000E+00 0.  1.
</event>
<event>
 7    1  0.2655561E-013  0.7246157E+02  0.7816164E-02  0.1226708E+00
        -11   -1    0    0    0    0  0.00000000000E+00  0.00000000000E+00  0.45593999997E+02  0.45594000000E+02  0.51100000000E-03 0.  1.
         11   -1    0    0    0    0 -0.00000000000E+00 -0.00000000000E+00 -0.45593999997E+02  0.45594000000E+02  0.51100000000E-03 0. -1.
    9900012    2    1    2    0    0 -0.76481732343E+01  0.11717560392E+02 -0.12445218455E+02  0.72461568472E+02  0.69999997626E+02 0.  0.
        -12    1    1    2    0    0  0.76481732343E+01 -0.11717560392E+02  0.12445218455E+02  0.18726431528E+02  0.00000000000E+00 0.  1.
         11    1    3    3    0    0 -0.14430564580E+02 -0.18080680847E+01  0.18998214114E+01  0.14666956943E+02  0.51100000000E-03 0. -1.
        -11    1    3    3    0    0 -0.17053402049E+02 -0.33599490296E+01  0.97494822000E+01  0.19928878101E+02  0.51100000000E-03 0.  1.
         12    1    3    3    0    0  0.23835793395E+02  0.16885577507E+02 -0.24094522067E+02  0.37865733429E+02  0.00000000000E+00 0. -1.
</event>
<event>
 7    1  0.2655561E-013  0.7246161E+02  0.7816164E-02  0.1226708E+00
        -11   -1    0    0    0    0  0.00000000000E+00  0.00000000000E+00  0.45593999997E+02  0.45594000000E+02  0.51100000000E-03 0.  1.
         11   -1    0    0    0    0 -0.00000000000E+00 -0.00000000000E+00 -0.45593999997E+02  0.45594000000E+02  0.51100000000E-03 0. -1.
    9900012    2    1    2    0    0  0.69528173640E+01 -0.13964119265E+02 -0.10360475686E+02  0.72461608127E+02  0.70000049284E+02 0.  0.
        -12    1    1    2    0    0 -0.69528173640E+01  0.13964119265E+02  0.10360475686E+02  0.18726391873E+02  0.00000000000E+00 0.  1.
         11    1    3    3    0    0  0.19464767362E+02  0.19034577064E+02  0.11940241466E+02  0.29728129086E+02  0.51100000000E-03 0. -1.
        -11    1    3    3    0    0 -0.97226255925E+00 -0.85698761388E+01 -0.17799775423E+01  0.88066106892E+01  0.51100000000E-03 0.  1.
        -12    1    3    3    0    0 -0.11539687439E+02 -0.24428820189E+02 -0.20520739610E+02  0.33926868352E+02  0.00000000000E+00 0.  1.
</event>
<event>
 7    1  0.2655561E-013  0.7246170E+02  0.7816164E-02  0.1226708E+00
        -11   -1    0    0    0    0  0.00000000000E+00  0.00000000000E+00  0.45593999997E+02  0.45594000000E+02  0.51100000000E-03 0. -1.
         11   -1    0    0    0    0 -0.00000000000E+00 -0.00000000000E+00 -0.45593999997E+02  0.45594000000E+02  0.51100000000E-03 0.  1.
    9900012    2    1    2    0    0 -0.15799515826E+02  0.63625904094E+01  0.77824914290E+01  0.72461696844E+02  0.70000164854E+02 0.  0.
        -12    1    1    2    0    0  0.15799515826E+02 -0.63625904094E+01 -0.77824914290E+01  0.18726303156E+02  0.00000000000E+00 0.  1.
         11    1    3    3    0    0  0.41414610541E+01 -0.11816161490E+02  0.15643655388E+02  0.20037398189E+02  0.51100000000E-03 0. -1.
        -11    1    3    3    0    0  0.13939038290E+01 -0.13469386293E+02 -0.36517276850E+01  0.14025065074E+02  0.51100000000E-03 0.  1.
         12    1    3    3    0    0 -0.21334880709E+02  0.31648138192E+02 -0.42094362735E+01  0.38399233581E+02  0.00000000000E+00 0. -1.
</event>
<event>
 7    1  0.2655561E-013  0.7246156E+02  0.7816164E-02  0.1226708E+00
        -11   -1    0    0    0    0  0.00000000000E+00  0.00000000000E+00  0.45593999997E+02  0.45594000000E+02  0.51100000000E-03 0. -1.
         11   -1    0    0    0    0 -0.00000000000E+00 -0.00000000000E+00 -0.45593999997E+02  0.45594000000E+02  0.51100000000E-03 0.  1.
    9900012    2    1    2    0    0  0.93115106311E+01 -0.16215543316E+02 -0.10155333011E+01  0.72461564590E+02  0.69999992569E+02 0.  0.
        -12    1    1    2    0    0 -0.93115106311E+01  0.16215543316E+02  0.10155333011E+01  0.18726435410E+02  0.00000000000E+00 0.  1.
         11    1    3    3    0    0  0.58875099806E+01  0.63738656818E+01  0.22601884894E+02  0.24210207321E+02  0.51100000000E-03 0. -1.
        -11    1    3    3    0    0  0.10078406599E+02 -0.12560141103E+02  0.52802331111E+01  0.16947338613E+02  0.51100000000E-03 0.  1.
        -12    1    3    3    0    0 -0.66544059482E+01 -0.10029267895E+02 -0.28897651306E+02  0.31304018656E+02  0.00000000000E+00 0.  1.
</event>
<event>
 7    1  0.2655561E-013  0.7246159E+02  0.7816164E-02  0.1226708E+00
        -11   -1    0    0    0    0  0.00000000000E+00  0.00000000000E+00  0.45593999997E+02  0.45594000000E+02  0.51100000000E-03 0.  1.
         11   -1    0    0    0    0 -0.00000000000E+00 -0.00000000000E+00 -0.45593999997E+02  0.45594000000E+02  0.51100000000E-03 0. -1.
    9900012    2    1    2    0    0  0.25680769205E+01  0.66367614942E+00 -0.18537613051E+02  0.72461585962E+02  0.70000020410E+02 0.  0.
        -12    1    1    2    0    0 -0.25680769205E+01 -0.66367614942E+00  0.18537613051E+02  0.18726414038E+02  0.00000000000E+00 0.  1.
         11    1    3    3    0    0  0.11111802016E+01 -0.24443748313E+01  0.17256860744E+01  0.31918149139E+01  0.51100000000E-03 0. -1.
        -11    1    3    3    0    0  0.12277291492E+01 -0.29870285397E+02  0.12030621780E+01  0.29919702997E+02  0.51100000000E-03 0.  1.
         12    1    3    3    0    0  0.22916756963E+00  0.32978336378E+02 -0.21466361303E+02  0.39350068051E+02  0.00000000000E+00 0. -1.
</event>
<event>
 7    1  0.2655561E-013  0.7246159E+02  0.7816164E-02  0.1226708E+00
        -11   -1    0    0    0    0  0.00000000000E+00  0.00000000000E+00  0.45593999997E+02  0.45594000000E+02  0.51100000000E-03 0.  1.
         11   -1    0    0    0    0 -0.00000000000E+00 -0.00000000000E+00 -0.45593999997E+02  0.45594000000E+02  0.51100000000E-03 0. -1.
    9900012    2    1    2    0    0  0.55201366819E+01 -0.42518008523E+01 -0.17381853680E+02  0.72461586653E+02  0.70000021311E+02 0.  0.
        -12    1    1    2    0    0 -0.55201366819E+01  0.42518008523E+01  0.17381853680E+02  0.18726413347E+02  0.00000000000E+00 0.  1.
         11    1    3    3    0    0 -0.31355165072E+00 -0.12473761813E+01 -0.20396804175E+02  0.20437315939E+02  0.51100000000E-03 0. -1.
        -11    1    3    3    0    0 -0.22902933071E+02 -0.30428485616E+01  0.29158505759E+01  0.23287452747E+02  0.51100000000E-03 0.  1.
        -12    1    3    3    0    0  0.28736621403E+02  0.38423890620E-01  0.99099919125E-01  0.28736817967E+02  0.00000000000E+00 0.  1.
</event>
<event>
 7    1  0.2655561E-013  0.7246154E+02  0.7816164E-02  0.1226708E+00
        -11   -1    0    0    0    0  0.00000000000E+00  0.00000000000E+00  0.45593999997E+02  0.45594000000E+02  0.51100000000E-03 0. -1.
         11   -1    0    0    0    0 -0.00000000000E+00 -0.00000000000E+00 -0.45593999997E+02  0.45594000000E+02  0.51100000000E-03 0.  1.
    9900012    2    1    2    0    0  0.92224424778E+01  0.61829427003E+01  0.15079720149E+02  0.72461543168E+02  0.69999964664E+02 0.  0.
        -12    1    1    2    0    0 -0.92224424778E+01 -0.61829427003E+01 -0.15079720149E+02  0.18726456832E+02  0.00000000000E+00 0.  1.
         11    1    3    3    0    0  0.42497199104E+01  0.92148368371E+01 -0.49791047444E+01  0.11303310204E+02  0.51100000000E-03 0. -1.
        -11    1    3    3    0    0  0.98660121233E+01  0.20761628824E+02 -0.77276042411E+01  0.24250758632E+02  0.51100000000E-03 0.  1.
         12    1    3    3    0    0 -0.48932895559E+01 -0.23793522961E+02  0.27786429134E+02  0.36907474333E+02  0.00000000000E+00 0. -1.
</event>
<event>
 7    1  0.2655561E-013  0.7246158E+02  0.7816164E-02  0.1226708E+00
        -11   -1    0    0    0    0  0.00000000000E+00  0.00000000000E+00  0.45593999997E+02  0.45594000000E+02  0.51100000000E-03 0. -1.
         11   -1    0    0    0    0 -0.00000000000E+00 -0.00000000000E+00 -0.45593999997E+02  0.45594000000E+02  0.51100000000E-03 0.  1.
    9900012    2    1    2    0    0  0.10278024285E+01  0.17360281467E+01  0.18617427905E+02  0.72461580338E+02  0.70000013083E+02 0.  0.
        -12    1    1    2    0    0 -0.10278024285E+01 -0.17360281467E+01 -0.18617427905E+02  0.18726419662E+02  0.00000000000E+00 0.  1.
         11    1    3    3    0    0 -0.39381185436E+01 -0.36723220063E+01  0.12763014652E+02  0.13852410254E+02  0.51100000000E-03 0. -1.
        -11    1    3    3    0    0 -0.14473197577E+02 -0.78483033663E+00  0.26107761499E+02  0.29861423568E+02  0.51100000000E-03 0.  1.
         12    1    3    3    0    0  0.19439118549E+02  0.61931804897E+01 -0.20253348246E+02  0.28747746515E+02  0.00000000000E+00 0. -1.
</event>
<event>
 7    1  0.2655561E-013  0.7246155E+02  0.7816164E-02  0.1226708E+00
        -11   -1    0    0    0    0  0.00000000000E+00  0.00000000000E+00  0.45593999997E+02  0.45594000000E+02  0.51100000000E-03 0. -1.
         11   -1    0    0    0    0 -0.00000000000E+00 -0.00000000000E+00 -0.45593999997E+02  0.45594000000E+02  0.51100000000E-03 0.  1.
    9900012    2    1    2    0    0 -0.18198060599E+02 -0.38606549451E+01  0.21461473202E+01  0.72461547734E+02  0.69999970611E+02 0.  0.
        -12    1    1    2    0    0  0.18198060599E+02  0.38606549451E+01 -0.21461473202E+01  0.18726452266E+02  0.00000000000E+00 0.  1.
         11    1    3    3    0    0  0.27680253886E+01  0.22331721812E+02 -0.29942748348E+01  0.22700956934E+02  0.51100000000E-03 0. -1.
        -11    1    3    3    0    0 -0.19027099500E+02 -0.68004181206E+01  0.17460105320E+02  0.26704521715E+02  0.51100000000E-03 0.  1.
        -12    1    3    3    0    0 -0.19389864877E+01 -0.19391958637E+02 -0.12319683165E+02  0.23056069085E+02  0.00000000000E+00 0.  1.
</event>
<event>
 7    1  0.2655561E-013  0.7246160E+02  0.7816164E-02  0.1226708E+00
        -11   -1    0    0    0    0  0.00000000000E+00  0.00000000000E+00  0.45593999997E+02  0.45594000000E+02  0.51100000000E-03 0. -1.
         11   -1    0    0    0    0 -0.00000000000E+00 -0.00000000000E+00 -0.45593999997E+02  0.45594000000E+02  0.51100000000E-03 0.  1.
    9900012    2    1    2    0    0  0.20062220810E+01  0.15611394694E+02  0.10145807353E+02  0.72461602104E+02  0.70000041437E+02 0.  0.
        -12    1    1    2    0    0 -0.20062220810E+01 -0.15611394694E+02 -0.10145807353E+02  0.18726397896E+02  0.00000000000E+00 0.  1.
         11    1    3    3    0    0  0.11186731997E+02 -0.17742094025E+01  0.51817994735E+01  0.12455594640E+02  0.51100000000E-03 0. -1.
        -11    1    3    3    0    0  0.20964280985E+02  0.16376794858E+02 -0.70798562033E+01  0.27528618766E+02  0.51100000000E-03 0.  1.
         12    1    3    3    0    0 -0.30144790902E+02  0.10088092387E+01  0.12043864083E+02  0.32477388698E+02  0.00000000000E+00 0. -1.
</event>
<event>
 7    1  0.2655561E-013  0.7246153E+02  0.7816164E-02  0.1226708E+00
        -11   -1    0    0    0    0  0.00000000000E+00  0.00000000000E+00  0.45593999997E+02  0.45594000000E+02  0.51100000000E-03 0.  1.
         11   -1    0    0    0    0 -0.00000000000E+00 -0.00000000000E+00 -0.45593999997E+02  0.45594000000E+02  0.51100000000E-03 0. -1.
    9900012    2    1    2    0    0 -0.18034539810E+02 -0.38098870516E+01 -0.33046433407E+01  0.72461533886E+02  0.69999952571E+02 0.  0.
        -12    1    1    2    0    0  0.18034539810E+02  0.38098870516E+01  0.33046433407E+01  0.18726466114E+02  0.00000000000E+00 0.  1.
         11    1    3    3    0    0 -0.27796881266E-01  0.19424365026E+02  0.16378057032E+02  0.25407626448E+02  0.51100000000E-03 0. -1.
        -11    1    3    3    0    0 -0.12801955485E+02 -0.47453445310E+01  0.60579484426E+01  0.14936770017E+02  0.51100000000E-03 0.  1.
        -12    1    3    3    0    0 -0.52047874442E+01 -0.18488907547E+02 -0.25740648816E+02  0.32117137420E+02  0.00000000000E+00 0.  1.
</event>
<event>
 7    1  0.2655561E-013  0.7246157E+02  0.7816164E-02  0.1226708E+00
        -11   -1    0    0    0    0  0.00000000000E+00  0.00000000000E+00  0.45593999997E+02  0.45594000000E+02  0.51100000000E-03 0.  1.
         11   -1    0    0    0    0 -0.00000000000E+00 -0.00000000000E+00 -0.45593999997E+02  0.45594000000E+02  0.51100000000E-03 0. -1.
    9900012    2    1    2    0    0  0.12043307721E+02  0.12536189774E+02  0.69628872154E+01  0.72461571795E+02  0.70000001955E+02 0.  0.
        -12    1    1    2    0    0 -0.12043307721E+02 -0.12536189774E+02 -0.69628872154E+01  0.18726428205E+02  0.00000000000E+00 0.  1.
         11    1    3    3    0    0  0.44995152832E+00  0.25182590759E+02  0.19735852156E+02  0.31997956096E+02  0.51100000000E-03 0. -1.
        -11    1    3    3    0    0  0.11768072024E+02  0.64553802525E+01  0.50468287490E+01  0.14339802441E+02  0.51100000000E-03 0.  1.
         12    1    3    3    0    0 -0.17471583065E+00 -0.19101781237E+02 -0.17819793690E+02  0.26123813259E+02  0.00000000000E+00 0. -1.
</event>
<event>
 7    1  0.2655561E-013  0.7246159E+02  0.7816164E-02  0.1226708E+00
        -11   -1    0    0    0    0  0.00000000000E+00  0.00000000000E+00  0.45593999997E+02  0.45594000000E+02  0.51100000000E-03 0.  1.
         11   -1    0    0    0    0 -0.00000000000E+00 -0.00000000000E+00 -0.45593999997E+02  0.45594000000E+02  0.51100000000E-03 0. -1.
    9900012    2    1    2    0    0  0.11230208408E+02 -0.60239738463E+01 -0.13721251089E+02  0.72461586215E+02  0.70000020740E+02 0.  0.
        -12    1    1    2    0    0 -0.11230208408E+02  0.60239738463E+01  0.13721251089E+02  0.18726413785E+02  0.00000000000E+00 0.  1.
         11    1    3    3    0    0  0.24990277531E+02 -0.16422021854E+02 -0.37330645461E+01  0.30135237580E+02  0.51100000000E-03 0. -1.
        -11    1    3    3    0    0  0.95100876379E+01  0.14245312372E+02 -0.71859967069E+01  0.18574424362E+02  0.51100000000E-03 0.  1.
        -12    1    3    3    0    0 -0.23270156761E+02 -0.38472643640E+01 -0.28021898362E+01  0.23751924273E+02  0.00000000000E+00 0.  1.
</event>
<event>
 7    1  0.2655561E-013  0.7246157E+02  0.7816164E-02  0.1226708E+00
        -11   -1    0    0    0    0  0.00000000000E+00  0.00000000000E+00  0.45593999997E+02  0.45594000000E+02  0.51100000000E-03 0. -1.
         11   -1    0    0    0    0 -0.00000000000E+00 -0.00000000000E+00 -0.45593999997E+02  0.45594000000E+02  0.51100000000E-03 0.  1.
    9900012    2    1    2    0    0  0.25868811208E+00 -0.63925087781E+01  0.17599663601E+02  0.72461568228E+02  0.69999997309E+02 0.  0.
        -12    1    1    2    0    0 -0.25868811208E+00  0.63925087781E+01 -0.17599663601E+02  0.18726431772E+02  0.00000000000E+00 0.  1.
         11    1    3    3    0    0 -0.37409620821E+01 -0.13896271584E+02 -0.35391586413E+01  0.14819811247E+02  0.51100000000E-03 0. -1.
        -11    1    3    3    0    0  0.30799445920E+01 -0.22846731174E+02  0.66221011713E+01  0.23985650048E+02  0.51100000000E-03 0.  1.
        -12    1    3    3    0    0  0.91970560213E+00  0.30350493981E+02  0.14516721071E+02  0.33656106933E+02  0.00000000000E+00 0.  1.
</event>
<event>
 7    1  0.2655561E-013  0.7246162E+02  0.7816164E-02  0.1226708E+00
        -11   -1    0    0    0    0  0.00000000000E+00  0.00000000000E+00  0.45593999997E+02  0.45594000000E+02  0.51100000000E-03 0.  1.
         11   -1    0    0    0    0 -0.00000000000E+00 -0.00000000000E+00 -0.45593999997E+02  0.45594000000E+02  0.51100000000E-03 0. -1.
    9900012    2    1    2    0    0 -0.84167036387E+01 -0.18704045371E+01 -0.16623414061E+02  0.72461622659E+02  0.70000068215E+02 0.  0.
        -12    1    1    2    0    0  0.84167036387E+01  0.18704045371E+01  0.16623414061E+02  0.18726377341E+02  0.00000000000E+00 0.  1.
         11    1    3    3    0    0  0.32481580048E+01  0.83834046265E+00 -0.36173116388E+02  0.36328331845E+02  0.51100000000E-03 0. -1.
        -11    1    3    3    0    0 -0.13535310268E+02  0.49781303723E+01 -0.65334208470E+00  0.14436525281E+02  0.51100000000E-03 0.  1.
         12    1    3    3    0    0  0.18704486247E+01 -0.76868753721E+01  0.20203044413E+02  0.21696765533E+02  0.00000000000E+00 0. -1.
</event>
<event>
 7    1  0.2655561E-013  0.7246154E+02  0.7816164E-02  0.1226708E+00
        -11   -1    0    0    0    0  0.00000000000E+00  0.00000000000E+00  0.45593999997E+02  0.45594000000E+02  0.51100000000E-03 0. -1.
         11   -1    0    0    0    0 -0.00000000000E+00 -0.00000000000E+00 -0.45593999997E+02  0.45594000000E+02  0.51100000000E-03 0.  1.
    9900012    2    1    2    0    0 -0.15801591140E+02  0.32353956467E+01  0.95143183125E+01  0.72461539563E+02  0.69999959966E+02 0.  0.
        -12    1    1    2    0    0  0.15801591140E+02 -0.32353956467E+01 -0.95143183125E+01  0.18726460437E+02  0.00000000000E+00 0.  1.
         11    1    3    3    0    0 -0.14770158820E+01 -0.12697512517E+02  0.12716192778E+02  0.18030805835E+02  0.51100000000E-03 0. -1.
        -11    1    3    3    0    0 -0.48759579341E+01 -0.90794095217E+01  0.17707514741E+02  0.20488209332E+02  0.51100000000E-03 0.  1.
        -12    1    3    3    0    0 -0.94486173243E+01  0.25012317685E+02 -0.20909389207E+02  0.33942524396E+02  0.00000000000E+00 0.  1.
</event>
<event>
 7    1  0.2655561E-013  0.7246157E+02  0.7816164E-02  0.1226708E+00
        -11   -1    0    0    0    0  0.00000000000E+00  0.00000000000E+00  0.45593999997E+02  0.45594000000E+02  0.51100000000E-03 0.  1.
         11   -1    0    0    0    0 -0.00000000000E+00 -0.00000000000E+00 -0.45593999997E+02  0.45594000000E+02  0.51100000000E-03 0. -1.
    9900012    2    1    2    0    0  0.15812165010E+02  0.67971848768E+01  0.73792150842E+01  0.72461572156E+02  0.70000002425E+02 0.  0.
        -12    1    1    2    0    0 -0.15812165010E+02 -0.67971848768E+01 -0.73792150842E+01  0.18726427844E+02  0.00000000000E+00 0.  1.
         11    1    3    3    0    0  0.85747466196E+00 -0.75514227998E+01  0.13351796848E+01  0.77163433146E+01  0.51100000000E-03 0.  1.
        -11    1    3    3    0    0  0.10600520279E+02 -0.99572495411E+01 -0.22632418782E+02  0.26902494843E+02  0.51100000000E-03 0. -1.
        -12    1    3    3    0    0  0.43541700687E+01  0.24305857218E+02  0.28676454181E+02  0.37842733998E+02  0.00000000000E+00 0.  1.
</event>
<event>
 7    1  0.2655561E-013  0.7246157E+02  0.7816164E-02  0.1226708E+00
        -11   -1    0    0    0    0  0.00000000000E+00  0.00000000000E+00  0.45593999997E+02  0.45594000000E+02  0.51100000000E-03 0.  1.
         11   -1    0    0    0    0 -0.00000000000E+00 -0.00000000000E+00 -0.45593999997E+02  0.45594000000E+02  0.51100000000E-03 0. -1.
    9900012    2    1    2    0    0  0.32787277201E+01 -0.46052410449E+01 -0.17852758843E+02  0.72461566841E+02  0.69999995502E+02 0.  0.
        -12    1    1    2    0    0 -0.32787277201E+01  0.46052410449E+01  0.17852758843E+02  0.18726433159E+02  0.00000000000E+00 0.  1.
         11    1    3    3    0    0  0.30947605650E+01 -0.29268170966E+01 -0.21362088864E+02  0.21782622481E+02  0.51100000000E-03 0. -1.
        -11    1    3    3    0    0  0.12153948926E+02 -0.15146459660E+02 -0.15231880092E+02  0.24680840467E+02  0.51100000000E-03 0.  1.
        -12    1    3    3    0    0 -0.11969981771E+02  0.13468035712E+02  0.18741210113E+02  0.25998103893E+02  0.00000000000E+00 0.  1.
</event>
<event>
 7    1  0.2655561E-013  0.7246157E+02  0.7816164E-02  0.1226708E+00
        -11   -1    0    0    0    0  0.00000000000E+00  0.00000000000E+00  0.45593999997E+02  0.45594000000E+02  0.51100000000E-03 0. -1.
         11   -1    0    0    0    0 -0.00000000000E+00 -0.00000000000E+00 -0.45593999997E+02  0.45594000000E+02  0.51100000000E-03 0.  1.
    9900012    2    1    2    0    0  0.31217863427E+01 -0.56312215488E+00  0.18455794696E+02  0.72461574437E+02  0.70000005396E+02 0.  0.
        -12    1    1    2    0    0 -0.31217863427E+01  0.56312215488E+00 -0.18455794696E+02  0.18726425563E+02  0.00000000000E+00 0.  1.
         11    1    3    3    0    0 -0.22936332592E+02 -0.94154659030E+01  0.10798483491E+02  0.27043180229E+02  0.51100000000E-03 0. -1.
        -11    1    3    3    0    0  0.85262269190E+01  0.17786528076E+01  0.20695256647E+02  0.22453369441E+02  0.51100000000E-03 0.  1.
        -12    1    3    3    0    0  0.17531892016E+02  0.70736909405E+01 -0.13037945442E+02  0.22965024767E+02  0.00000000000E+00 0.  1.
</event>
<event>
 7    1  0.2655561E-013  0.7246157E+02  0.7816164E-02  0.1226708E+00
        -11   -1    0    0    0    0  0.00000000000E+00  0.00000000000E+00  0.45593999997E+02  0.45594000000E+02  0.51100000000E-03 0.  1.
         11   -1    0    0    0    0 -0.00000000000E+00 -0.00000000000E+00 -0.45593999997E+02  0.45594000000E+02  0.51100000000E-03 0. -1.
    9900012    2    1    2    0    0  0.15015250072E+02 -0.76783161615E+01 -0.81403258253E+01  0.72461570059E+02  0.69999999693E+02 0.  0.
        -12    1    1    2    0    0 -0.15015250072E+02  0.76783161615E+01  0.81403258253E+01  0.18726429941E+02  0.00000000000E+00 0.  1.
         11    1    3    3    0    0 -0.13500424829E+02 -0.19280366553E+02 -0.19306321622E+01  0.23616124698E+02  0.51100000000E-03 0. -1.
        -11    1    3    3    0    0  0.39054683312E+01 -0.19581416474E+01  0.13718461735E+02  0.14397332886E+02  0.51100000000E-03 0.  1.
         12    1    3    3    0    0  0.24610206569E+02  0.13560192039E+02 -0.19928155398E+02  0.34448112475E+02  0.00000000000E+00 0. -1.
</event>
<event>
 7    1  0.2655561E-013  0.7246151E+02  0.7816164E-02  0.1226708E+00
        -11   -1    0    0    0    0  0.00000000000E+00  0.00000000000E+00  0.45593999997E+02  0.45594000000E+02  0.51100000000E-03 0.  1.
         11   -1    0    0    0    0 -0.00000000000E+00 -0.00000000000E+00 -0.45593999997E+02  0.45594000000E+02  0.51100000000E-03 0. -1.
    9900012    2    1    2    0    0 -0.16174198458E+02  0.35175738075E-01  0.94379887209E+01  0.72461506357E+02  0.69999916709E+02 0.  0.
        -12    1    1    2    0    0  0.16174198458E+02 -0.35175738075E-01 -0.94379887209E+01  0.18726493643E+02  0.00000000000E+00 0.  1.
         11    1    3    3    0    0 -0.28776994322E+02  0.20827787028E+02  0.74247372133E+01  0.36291029714E+02  0.51100000000E-03 0. -1.
        -11    1    3    3    0    0  0.13748690232E+00  0.19439240516E+01  0.90869057378E+01  0.92935246013E+01  0.51100000000E-03 0.  1.
        -12    1    3    3    0    0  0.12465308962E+02 -0.22736535342E+02 -0.70736542302E+01  0.26876952042E+02  0.00000000000E+00 0.  1.
</event>
<event>
 7    1  0.2655561E-013  0.7246157E+02  0.7816164E-02  0.1226708E+00
        -11   -1    0    0    0    0  0.00000000000E+00  0.00000000000E+00  0.45593999997E+02  0.45594000000E+02  0.51100000000E-03 0.  1.
         11   -1    0    0    0    0 -0.00000000000E+00 -0.00000000000E+00 -0.45593999997E+02  0.45594000000E+02  0.51100000000E-03 0. -1.
    9900012    2    1    2    0    0 -0.17984146400E+02 -0.46194283283E+01  0.24311414216E+01  0.72461572459E+02  0.70000002820E+02 0.  0.
        -12    1    1    2    0    0  0.17984146400E+02  0.46194283283E+01 -0.24311414216E+01  0.18726427541E+02  0.00000000000E+00 0.  1.
         11    1    3    3    0    0 -0.18145794758E+02 -0.24991624583E+01  0.65287057505E+01  0.19445813931E+02  0.51100000000E-03 0.  1.
        -11    1    3    3    0    0 -0.23249311643E+02  0.10347648306E+02 -0.68374936410E+01  0.26350628776E+02  0.51100000000E-03 0. -1.
        -12    1    3    3    0    0  0.23410960001E+02 -0.12467914176E+02  0.27399293121E+01  0.26665129752E+02  0.00000000000E+00 0.  1.
</event>
<event>
 7    1  0.2655561E-013  0.7246161E+02  0.7816164E-02  0.1226708E+00
        -11   -1    0    0    0    0  0.00000000000E+00  0.00000000000E+00  0.45593999997E+02  0.45594000000E+02  0.51100000000E-03 0.  1.
         11   -1    0    0    0    0 -0.00000000000E+00 -0.00000000000E+00 -0.45593999997E+02  0.45594000000E+02  0.51100000000E-03 0. -1.
    9900012    2    1    2    0    0 -0.97939670558E+01 -0.17264970474E+00 -0.15960136338E+02  0.72461613522E+02  0.70000056311E+02 0.  0.
        -12    1    1    2    0    0  0.97939670558E+01  0.17264970474E+00  0.15960136338E+02  0.18726386478E+02  0.00000000000E+00 0.  1.
         11    1    3    3    0    0 -0.11490402438E+02 -0.13896174299E+02 -0.21935507170E+02  0.28395413070E+02  0.51100000000E-03 0. -1.
        -11    1    3    3    0    0 -0.10050981805E+02 -0.11138408718E+02 -0.26761985360E+01  0.15239698910E+02  0.51100000000E-03 0.  1.
        -12    1    3    3    0    0  0.11747417187E+02  0.24861933312E+02  0.86515693677E+01  0.28826501542E+02  0.00000000000E+00 0.  1.
</event>
<event>
 7    1  0.2655561E-013  0.7246162E+02  0.7816164E-02  0.1226708E+00
        -11   -1    0    0    0    0  0.00000000000E+00  0.00000000000E+00  0.45593999997E+02  0.45594000000E+02  0.51100000000E-03 0.  1.
         11   -1    0    0    0    0 -0.00000000000E+00 -0.00000000000E+00 -0.45593999997E+02  0.45594000000E+02  0.51100000000E-03 0. -1.
    9900012    2    1    2    0    0 -0.77375502462E+01 -0.49050521539E+01 -0.16332427834E+02  0.72461617023E+02  0.70000060873E+02 0.  0.
        -12    1    1    2    0    0  0.77375502462E+01  0.49050521539E+01  0.16332427834E+02  0.18726382977E+02  0.00000000000E+00 0.  1.
         11    1    3    3    0    0  0.32906887604E+01 -0.12357524824E+02  0.19519087002E+01  0.12936266855E+02  0.51100000000E-03 0. -1.
        -11    1    3    3    0    0 -0.24661915848E+02 -0.13242503724E+02 -0.20423409861E+02  0.34650969234E+02  0.51100000000E-03 0.  1.
        -12    1    3    3    0    0  0.13633676842E+02  0.20694976395E+02  0.21390733274E+01  0.24874380935E+02  0.00000000000E+00 0.  1.
</event>
<event>
 7    1  0.2655561E-013  0.7246163E+02  0.7816164E-02  0.1226708E+00
        -11   -1    0    0    0    0  0.00000000000E+00  0.00000000000E+00  0.45593999997E+02  0.45594000000E+02  0.51100000000E-03 0. -1.
         11   -1    0    0    0    0 -0.00000000000E+00 -0.00000000000E+00 -0.45593999997E+02  0.45594000000E+02  0.51100000000E-03 0.  1.
    9900012    2    1    2    0    0  0.14544602716E+02 -0.60140907148E+01  0.10147022469E+02  0.72461633020E+02  0.70000081712E+02 0.  0.
        -12    1    1    2    0    0 -0.14544602716E+02  0.60140907148E+01 -0.10147022469E+02  0.18726366980E+02  0.00000000000E+00 0.  1.
         11    1    3    3    0    0  0.17323115142E+02 -0.19326982567E+02  0.10808516867E+02  0.28114882367E+02  0.51100000000E-03 0. -1.
        -11    1    3    3    0    0 -0.69422963393E+01  0.29036240781E+01  0.19708018492E+02  0.21095793523E+02  0.51100000000E-03 0.  1.
        -12    1    3    3    0    0  0.41637839127E+01  0.10409267774E+02 -0.20369512890E+02  0.23250957129E+02  0.00000000000E+00 0.  1.
</event>
<event>
 7    1  0.2655561E-013  0.7246158E+02  0.7816164E-02  0.1226708E+00
        -11   -1    0    0    0    0  0.00000000000E+00  0.00000000000E+00  0.45593999997E+02  0.45594000000E+02  0.51100000000E-03 0. -1.
         11   -1    0    0    0    0 -0.00000000000E+00 -0.00000000000E+00 -0.45593999997E+02  0.45594000000E+02  0.51100000000E-03 0.  1.
    9900012    2    1    2    0    0 -0.14153311364E+01  0.69085973409E+01  0.17347827316E+02  0.72461575034E+02  0.70000006174E+02 0.  0.
        -12    1    1    2    0    0  0.14153311364E+01 -0.69085973409E+01 -0.17347827316E+02  0.18726424966E+02  0.00000000000E+00 0.  1.
         11    1    3    3    0    0 -0.30730887689E+02  0.16826932600E+02  0.29905324254E+01  0.35163566419E+02  0.51100000000E-03 0. -1.
        -11    1    3    3    0    0  0.66287764800E+01  0.62632804807E-02 -0.27753195539E+01  0.71863144753E+01  0.51100000000E-03 0.  1.
        -12    1    3    3    0    0  0.22686780073E+02 -0.99245985392E+01  0.17132614444E+02  0.30111694139E+02  0.00000000000E+00 0.  1.
</event>
<event>
 7    1  0.2655561E-013  0.7246162E+02  0.7816164E-02  0.1226708E+00
        -11   -1    0    0    0    0  0.00000000000E+00  0.00000000000E+00  0.45593999997E+02  0.45594000000E+02  0.51100000000E-03 0.  1.
         11   -1    0    0    0    0 -0.00000000000E+00 -0.00000000000E+00 -0.45593999997E+02  0.45594000000E+02  0.51100000000E-03 0. -1.
    9900012    2    1    2    0    0  0.11195999898E+02 -0.89154961451E+01 -0.12076453322E+02  0.72461622612E+02  0.70000068154E+02 0.  0.
        -12    1    1    2    0    0 -0.11195999898E+02  0.89154961451E+01  0.12076453322E+02  0.18726377388E+02  0.00000000000E+00 0.  1.
         11    1    3    3    0    0  0.33207583051E+02 -0.65034907291E+01 -0.25338653077E+02  0.42273943555E+02  0.51100000000E-03 0. -1.
        -11    1    3    3    0    0 -0.27802243633E+00 -0.35951648879E+01 -0.14815636716E+01  0.38984020086E+01  0.51100000000E-03 0.  1.
        -12    1    3    3    0    0 -0.21733560716E+02  0.11831594719E+01  0.14743763426E+02  0.26289277048E+02  0.00000000000E+00 0.  1.
</event>
<event>
 7    1  0.2655561E-013  0.7246181E+02  0.7816164E-02  0.1226707E+00
        -11   -1    0    0    0    0  0.00000000000E+00  0.00000000000E+00  0.45593999997E+02  0.45594000000E+02  0.51100000000E-03 0. -1.
         11   -1    0    0    0    0 -0.00000000000E+00 -0.00000000000E+00 -0.45593999997E+02  0.45594000000E+02  0.51100000000E-03 0.  1.
    9900012    2    1    2    0    0 -0.10357121420E+02  0.13454028988E+02 -0.78986967622E+01  0.72461807897E+02  0.70000309521E+02 0.  0.
        -12    1    1    2    0    0  0.10357121420E+02 -0.13454028988E+02  0.78986967622E+01  0.18726192103E+02  0.00000000000E+00 0.  1.
         11    1    3    3    0    0 -0.26338502755E+01  0.55418581652E+00 -0.34609732542E+01  0.43843614496E+01  0.51100000000E-03 0. -1.
        -11    1    3    3    0    0  0.11343182131E+01 -0.17629081289E+02 -0.24710186086E+02  0.30375392698E+02  0.51100000000E-03 0.  1.
         12    1    3    3    0    0 -0.88575893580E+01  0.30528924461E+02  0.20272462578E+02  0.37702053750E+02  0.00000000000E+00 0. -1.
</event>
<event>
 7    1  0.2655561E-013  0.7246167E+02  0.7816164E-02  0.1226708E+00
        -11   -1    0    0    0    0  0.00000000000E+00  0.00000000000E+00  0.45593999997E+02  0.45594000000E+02  0.51100000000E-03 0.  1.
         11   -1    0    0    0    0 -0.00000000000E+00 -0.00000000000E+00 -0.45593999997E+02  0.45594000000E+02  0.51100000000E-03 0. -1.
    9900012    2    1    2    0    0 -0.13056538314E+02  0.13192468062E+02  0.24821362995E+01  0.72461670757E+02  0.70000130871E+02 0.  0.
        -12    1    1    2    0    0  0.13056538314E+02 -0.13192468062E+02 -0.24821362995E+01  0.18726329243E+02  0.00000000000E+00 0.  1.
         11    1    3    3    0    0 -0.17305773646E+02 -0.24045255992E+02  0.19464718294E+01  0.29689272306E+02  0.51100000000E-03 0.  1.
        -11    1    3    3    0    0 -0.16768246426E+01  0.19612605501E+02 -0.92620578515E+01  0.21754350171E+02  0.51100000000E-03 0. -1.
        -12    1    3    3    0    0  0.59260599749E+01  0.17625118553E+02  0.97977223217E+01  0.21018048280E+02  0.00000000000E+00 0.  1.
</event>
<event>
 7    1  0.2655561E-013  0.7246157E+02  0.7816164E-02  0.1226708E+00
        -11   -1    0    0    0    0  0.00000000000E+00  0.00000000000E+00  0.45593999997E+02  0.45594000000E+02  0.51100000000E-03 0.  1.
         11   -1    0    0    0    0 -0.00000000000E+00 -0.00000000000E+00 -0.45593999997E+02  0.45594000000E+02  0.51100000000E-03 0. -1.
    9900012    2    1    2    0    0 -0.64166985128E+01 -0.17136655042E+02 -0.39799852937E+01  0.72461568178E+02  0.69999997243E+02 0.  0.
        -12    1    1    2    0    0  0.64166985128E+01  0.17136655042E+02  0.39799852937E+01  0.18726431822E+02  0.00000000000E+00 0.  1.
         11    1    3    3    0    0 -0.49731198274E+01  0.17946432806E+01  0.18793546421E+01  0.56111174871E+01  0.51100000000E-03 0. -1.
        -11    1    3    3    0    0 -0.18444887488E+02  0.13526055268E+02  0.12285313486E+02  0.25963377540E+02  0.51100000000E-03 0.  1.
         12    1    3    3    0    0  0.17001308803E+02 -0.32457353590E+02 -0.18144653422E+02  0.40887073151E+02  0.00000000000E+00 0. -1.
</event>
<event>
 7    1  0.2655561E-013  0.7246158E+02  0.7816164E-02  0.1226708E+00
        -11   -1    0    0    0    0  0.00000000000E+00  0.00000000000E+00  0.45593999997E+02  0.45594000000E+02  0.51100000000E-03 0. -1.
         11   -1    0    0    0    0 -0.00000000000E+00 -0.00000000000E+00 -0.45593999997E+02  0.45594000000E+02  0.51100000000E-03 0.  1.
    9900012    2    1    2    0    0  0.37021449158E+01 -0.17780505228E+02 -0.45636005132E+01  0.72461583024E+02  0.70000016582E+02 0.  0.
        -12    1    1    2    0    0 -0.37021449158E+01  0.17780505228E+02  0.45636005132E+01  0.18726416976E+02  0.00000000000E+00 0.  1.
         11    1    3    3    0    0 -0.75152568137E+01  0.67366885596E+01  0.13636104599E+02  0.16964828518E+02  0.51100000000E-03 0. -1.
        -11    1    3    3    0    0  0.31066349599E+01  0.59906444719E+01  0.10731588690E+02  0.12676986946E+02  0.51100000000E-03 0.  1.
        -12    1    3    3    0    0  0.81107667696E+01 -0.30507838259E+02 -0.28931293802E+02  0.42819767560E+02  0.00000000000E+00 0.  1.
</event>
<event>
 7    1  0.2655561E-013  0.7246155E+02  0.7816164E-02  0.1226708E+00
        -11   -1    0    0    0    0  0.00000000000E+00  0.00000000000E+00  0.45593999997E+02  0.45594000000E+02  0.51100000000E-03 0.  1.
         11   -1    0    0    0    0 -0.00000000000E+00 -0.00000000000E+00 -0.45593999997E+02  0.45594000000E+02  0.51100000000E-03 0. -1.
    9900012    2    1    2    0    0 -0.86137929604E+01  0.77151892190E+01 -0.14729501086E+02  0.72461554099E+02  0.69999978902E+02 0.  0.
        -12    1    1    2    0    0  0.86137929604E+01 -0.77151892190E+01  0.14729501086E+02  0.18726445901E+02  0.00000000000E+00 0.  1.
         11    1    3    3    0    0 -0.13323867316E+02 -0.10440183322E+01  0.16163258165E+02  0.20972990471E+02  0.51100000000E-03 0. -1.
        -11    1    3    3    0    0 -0.33884921475E+01  0.49155154718E+01  0.88897863487E+01  0.10708523380E+02  0.51100000000E-03 0.  1.
         12    1    3    3    0    0  0.80985665031E+01  0.38436920794E+01 -0.39782545600E+02  0.40780040248E+02  0.00000000000E+00 0. -1.
</event>
<event>
 7    1  0.2655561E-013  0.7246159E+02  0.7816164E-02  0.1226708E+00
        -11   -1    0    0    0    0  0.00000000000E+00  0.00000000000E+00  0.45593999997E+02  0.45594000000E+02  0.51100000000E-03 0.  1.
         11   -1    0    0    0    0 -0.00000000000E+00 -0.00000000000E+00 -0.45593999997E+02  0.45594000000E+02  0.51100000000E-03 0. -1.
    9900012    2    1    2    0    0  0.57213743509E+01  0.49704868373E+01 -0.17124207585E+02  0.72461592195E+02  0.70000028529E+02 0.  0.
        -12    1    1    2    0    0 -0.57213743509E+01 -0.49704868373E+01  0.17124207585E+02  0.18726407805E+02  0.00000000000E+00 0.  1.
         11    1    3    3    0    0 -0.83775012505E+01 -0.40291097055E+01  0.61584189130E+00  0.93164109891E+01  0.51100000000E-03 0. -1.
        -11    1    3    3    0    0 -0.20615153472E+02  0.37836816492E+01  0.47025529908E+01  0.21480568065E+02  0.51100000000E-03 0.  1.
         12    1    3    3    0    0  0.34714029073E+02  0.52159148936E+01 -0.22442602467E+02  0.41664613141E+02  0.00000000000E+00 0. -1.
</event>
<event>
 7    1  0.2655561E-013  0.7246156E+02  0.7816164E-02  0.1226708E+00
        -11   -1    0    0    0    0  0.00000000000E+00  0.00000000000E+00  0.45593999997E+02  0.45594000000E+02  0.51100000000E-03 0.  1.
         11   -1    0    0    0    0 -0.00000000000E+00 -0.00000000000E+00 -0.45593999997E+02  0.45594000000E+02  0.51100000000E-03 0. -1.
    9900012    2    1    2    0    0 -0.20784506780E+01 -0.51766199374E+01 -0.17876301298E+02  0.72461561489E+02  0.69999988530E+02 0.  0.
        -12    1    1    2    0    0  0.20784506780E+01  0.51766199374E+01  0.17876301298E+02  0.18726438511E+02  0.00000000000E+00 0.  1.
         11    1    3    3    0    0  0.31597205275E+01 -0.15082811013E+02 -0.20173601769E+02  0.25386004618E+02  0.51100000000E-03 0. -1.
        -11    1    3    3    0    0 -0.55119473161E+00 -0.13424905150E+02 -0.13072651839E+02  0.18746362855E+02  0.51100000000E-03 0.  1.
        -12    1    3    3    0    0 -0.46869764739E+01  0.23331096226E+02  0.15369952311E+02  0.28329194016E+02  0.00000000000E+00 0.  1.
</event>
<event>
 7    1  0.2655561E-013  0.7246156E+02  0.7816164E-02  0.1226708E+00
        -11   -1    0    0    0    0  0.00000000000E+00  0.00000000000E+00  0.45593999997E+02  0.45594000000E+02  0.51100000000E-03 0.  1.
         11   -1    0    0    0    0 -0.00000000000E+00 -0.00000000000E+00 -0.45593999997E+02  0.45594000000E+02  0.51100000000E-03 0. -1.
    9900012    2    1    2    0    0 -0.14758019549E+02  0.52626266344E+01 -0.10255983928E+02  0.72461559162E+02  0.69999985499E+02 0.  0.
        -12    1    1    2    0    0  0.14758019549E+02 -0.52626266344E+01  0.10255983928E+02  0.18726440838E+02  0.00000000000E+00 0.  1.
         11    1    3    3    0    0  0.29909784075E+00  0.21612836709E+02 -0.21717800891E+01  0.21723738149E+02  0.51100000000E-03 0. -1.
        -11    1    3    3    0    0 -0.20752747429E+02 -0.11949588590E+02  0.13842392493E+02  0.27660098039E+02  0.51100000000E-03 0.  1.
         12    1    3    3    0    0  0.56956300387E+01 -0.44006214849E+01 -0.21926596332E+02  0.23077722975E+02  0.00000000000E+00 0. -1.
</event>
<event>
 7    1  0.2655561E-013  0.7246163E+02  0.7816164E-02  0.1226708E+00
        -11   -1    0    0    0    0  0.00000000000E+00  0.00000000000E+00  0.45593999997E+02  0.45594000000E+02  0.51100000000E-03 0.  1.
         11   -1    0    0    0    0 -0.00000000000E+00 -0.00000000000E+00 -0.45593999997E+02  0.45594000000E+02  0.51100000000E-03 0. -1.
    9900012    2    1    2    0    0  0.86408370832E+01  0.15320377590E+01 -0.16542850852E+02  0.72461625030E+02  0.70000071304E+02 0.  0.
        -12    1    1    2    0    0 -0.86408370832E+01 -0.15320377590E+01  0.16542850852E+02  0.18726374970E+02  0.00000000000E+00 0.  1.
         11    1    3    3    0    0 -0.26340235462E+01  0.18570303827E+02 -0.67387839000E+01  0.19930014375E+02  0.51100000000E-03 0. -1.
        -11    1    3    3    0    0 -0.23892634164E+01 -0.93659404180E+00  0.17683305472E+02  0.17868550046E+02  0.51100000000E-03 0.  1.
         12    1    3    3    0    0  0.13664124046E+02 -0.16101672026E+02 -0.27487372424E+02  0.34663060609E+02  0.00000000000E+00 0. -1.
</event>
<event>
 7    1  0.2655561E-013  0.7246136E+02  0.7816164E-02  0.1226709E+00
        -11   -1    0    0    0    0  0.00000000000E+00  0.00000000000E+00  0.45593999997E+02  0.45594000000E+02  0.51100000000E-03 0.  1.
         11   -1    0    0    0    0 -0.00000000000E+00 -0.00000000000E+00 -0.45593999997E+02  0.45594000000E+02  0.51100000000E-03 0. -1.
    9900012    2    1    2    0    0  0.10976032810E+02 -0.36293531006E+01 -0.14732333494E+02  0.72461357206E+02  0.69999722412E+02 0.  0.
        -12    1    1    2    0    0 -0.10976032810E+02  0.36293531006E+01  0.14732333494E+02  0.18726642794E+02  0.00000000000E+00 0.  1.
         11    1    3    3    0    0 -0.44745783504E+01  0.67656467060E+01 -0.25024940792E+01  0.84887162540E+01  0.51100000000E-03 0. -1.
        -11    1    3    3    0    0 -0.75311256641E+01  0.18770773740E+02 -0.17147781250E+02  0.26516149846E+02  0.51100000000E-03 0.  1.
         12    1    3    3    0    0  0.22981736824E+02 -0.29165773547E+02  0.49179418360E+01  0.37456491106E+02  0.00000000000E+00 0. -1.
</event>
<event>
 7    1  0.2655561E-013  0.7246152E+02  0.7816164E-02  0.1226708E+00
        -11   -1    0    0    0    0  0.00000000000E+00  0.00000000000E+00  0.45593999997E+02  0.45594000000E+02  0.51100000000E-03 0.  1.
         11   -1    0    0    0    0 -0.00000000000E+00 -0.00000000000E+00 -0.45593999997E+02  0.45594000000E+02  0.51100000000E-03 0. -1.
    9900012    2    1    2    0    0 -0.13855628590E+02  0.42368504541E+01 -0.11863876147E+02  0.72461524020E+02  0.69999939720E+02 0.  0.
        -12    1    1    2    0    0  0.13855628590E+02 -0.42368504541E+01  0.11863876147E+02  0.18726475980E+02  0.00000000000E+00 0.  1.
         11    1    3    3    0    0  0.39986452296E+01  0.73044059386E+01 -0.28406407324E+02  0.29601815605E+02  0.51100000000E-03 0. -1.
        -11    1    3    3    0    0  0.31225327855E+01 -0.15314356606E+01  0.21061532613E+02  0.21346748288E+02  0.51100000000E-03 0.  1.
         12    1    3    3    0    0 -0.20976806605E+02 -0.15361198240E+01 -0.45190014357E+01  0.21512960127E+02  0.00000000000E+00 0. -1.
</event>
<event>
 7    1  0.2655561E-013  0.7246152E+02  0.7816164E-02  0.1226708E+00
        -11   -1    0    0    0    0  0.00000000000E+00  0.00000000000E+00  0.45593999997E+02  0.45594000000E+02  0.51100000000E-03 0. -1.
         11   -1    0    0    0    0 -0.00000000000E+00 -0.00000000000E+00 -0.45593999997E+02  0.45594000000E+02  0.51100000000E-03 0.  1.
    9900012    2    1    2    0    0  0.18362059048E+02  0.29749775546E+01  0.21599033693E+01  0.72461524451E+02  0.69999940280E+02 0.  0.
        -12    1    1    2    0    0 -0.18362059048E+02 -0.29749775546E+01 -0.21599033693E+01  0.18726475549E+02  0.00000000000E+00 0.  1.
         11    1    3    3    0    0  0.11966572193E+02  0.28184064473E+02 -0.17653082758E+02  0.35343622783E+02  0.51100000000E-03 0.  1.
        -11    1    3    3    0    0  0.45135789646E+01 -0.32428284420E+01  0.12845728506E+02  0.13996466429E+02  0.51100000000E-03 0. -1.
        -12    1    3    3    0    0  0.18819078906E+01 -0.21966258477E+02  0.69672576208E+01  0.23121435240E+02  0.00000000000E+00 0.  1.
</event>
<event>
 7    1  0.2655561E-013  0.7246157E+02  0.7816164E-02  0.1226708E+00
        -11   -1    0    0    0    0  0.00000000000E+00  0.00000000000E+00  0.45593999997E+02  0.45594000000E+02  0.51100000000E-03 0. -1.
         11   -1    0    0    0    0 -0.00000000000E+00 -0.00000000000E+00 -0.45593999997E+02  0.45594000000E+02  0.51100000000E-03 0.  1.
    9900012    2    1    2    0    0 -0.53062919292E+01  0.16079045799E+02  0.79991813112E+01  0.72461565489E+02  0.69999993740E+02 0.  0.
        -12    1    1    2    0    0  0.53062919292E+01 -0.16079045799E+02 -0.79991813112E+01  0.18726434511E+02  0.00000000000E+00 0.  1.
         11    1    3    3    0    0  0.52577521233E+01 -0.30894729154E+01 -0.46732223264E-01  0.60984411490E+01  0.51100000000E-03 0. -1.
        -11    1    3    3    0    0  0.24946403024E+02  0.29530979817E+01 -0.41580977653E+01  0.25462395582E+02  0.51100000000E-03 0.  1.
         12    1    3    3    0    0 -0.35510447076E+02  0.16215420733E+02  0.12204011300E+02  0.40900728757E+02  0.00000000000E+00 0. -1.
</event>
<event>
 7    1  0.2655561E-013  0.7246156E+02  0.7816164E-02  0.1226708E+00
        -11   -1    0    0    0    0  0.00000000000E+00  0.00000000000E+00  0.45593999997E+02  0.45594000000E+02  0.51100000000E-03 0.  1.
         11   -1    0    0    0    0 -0.00000000000E+00 -0.00000000000E+00 -0.45593999997E+02  0.45594000000E+02  0.51100000000E-03 0. -1.
    9900012    2    1    2    0    0  0.15330846602E+02  0.31926324837E+01 -0.10268978272E+02  0.72461556813E+02  0.69999982438E+02 0.  0.
        -12    1    1    2    0    0 -0.15330846602E+02 -0.31926324837E+01  0.10268978272E+02  0.18726443187E+02  0.00000000000E+00 0.  1.
         11    1    3    3    0    0 -0.53516842523E+01 -0.12937418352E+02 -0.15653224718E+02  0.21000970508E+02  0.51100000000E-03 0. -1.
        -11    1    3    3    0    0  0.54171120394E+01  0.23840364794E+01 -0.18811572957E+02  0.19720649334E+02  0.51100000000E-03 0.  1.
        -12    1    3    3    0    0  0.15265418815E+02  0.13746014356E+02  0.24195819404E+02  0.31739936970E+02  0.00000000000E+00 0.  1.
</event>
<event>
 7    1  0.2655561E-013  0.7246155E+02  0.7816164E-02  0.1226708E+00
        -11   -1    0    0    0    0  0.00000000000E+00  0.00000000000E+00  0.45593999997E+02  0.45594000000E+02  0.51100000000E-03 0. -1.
         11   -1    0    0    0    0 -0.00000000000E+00 -0.00000000000E+00 -0.45593999997E+02  0.45594000000E+02  0.51100000000E-03 0.  1.
    9900012    2    1    2    0    0 -0.10441730840E+02 -0.10057129537E+01  0.15512528744E+02  0.72461554808E+02  0.69999979826E+02 0.  0.
        -12    1    1    2    0    0  0.10441730840E+02  0.10057129537E+01 -0.15512528744E+02  0.18726445192E+02  0.00000000000E+00 0.  1.
         11    1    3    3    0    0  0.50982140691E+01  0.37885578928E+01  0.23157419161E+02  0.24012726211E+02  0.51100000000E-03 0. -1.
        -11    1    3    3    0    0  0.67626608388E+01 -0.19030319884E+02  0.19815830601E+01  0.20293184279E+02  0.51100000000E-03 0.  1.
         12    1    3    3    0    0 -0.22302605748E+02  0.14236049037E+02 -0.96264734774E+01  0.28155644318E+02  0.00000000000E+00 0. -1.
</event>
<event>
 7    1  0.2655561E-013  0.7246151E+02  0.7816164E-02  0.1226708E+00
        -11   -1    0    0    0    0  0.00000000000E+00  0.00000000000E+00  0.45593999997E+02  0.45594000000E+02  0.51100000000E-03 0. -1.
         11   -1    0    0    0    0 -0.00000000000E+00 -0.00000000000E+00 -0.45593999997E+02  0.45594000000E+02  0.51100000000E-03 0.  1.
    9900012    2    1    2    0    0 -0.52148611766E+01  0.12496825134E+02 -0.12935069703E+02  0.72461509572E+02  0.69999920898E+02 0.  0.
        -12    1    1    2    0    0  0.52148611766E+01 -0.12496825134E+02  0.12935069703E+02  0.18726490428E+02  0.00000000000E+00 0.  1.
         11    1    3    3    0    0 -0.10033812078E+02 -0.35271330986E+01  0.22493863549E+01  0.10870960949E+02  0.51100000000E-03 0. -1.
        -11    1    3    3    0    0  0.12102764117E+01 -0.13488054191E+02  0.14316231746E+02  0.19706518376E+02  0.51100000000E-03 0.  1.
        -12    1    3    3    0    0  0.36086744899E+01  0.29512012424E+02 -0.29500687804E+02  0.41884030247E+02  0.00000000000E+00 0.  1.
</event>
<event>
 7    1  0.2655561E-013  0.7246160E+02  0.7816164E-02  0.1226708E+00
        -11   -1    0    0    0    0  0.00000000000E+00  0.00000000000E+00  0.45593999997E+02  0.45594000000E+02  0.51100000000E-03 0. -1.
         11   -1    0    0    0    0 -0.00000000000E+00 -0.00000000000E+00 -0.45593999997E+02  0.45594000000E+02  0.51100000000E-03 0.  1.
    9900012    2    1    2    0    0 -0.76772112413E+01  0.15603585302E+02  0.69474278395E+01  0.72461596173E+02  0.70000033712E+02 0.  0.
        -12    1    1    2    0    0  0.76772112413E+01 -0.15603585302E+02 -0.69474278395E+01  0.18726403827E+02  0.00000000000E+00 0.  1.
         11    1    3    3    0    0 -0.15362482495E+02 -0.60950696889E+01 -0.38820999935E+01  0.16977233094E+02  0.51100000000E-03 0. -1.
        -11    1    3    3    0    0  0.99889123684E+01 -0.13445612025E+02 -0.40785294621E+01  0.17239409963E+02  0.51100000000E-03 0.  1.
         12    1    3    3    0    0 -0.23036411146E+01  0.35144267016E+02  0.14908057295E+02  0.38244953115E+02  0.00000000000E+00 0. -1.
</event>
<event>
 7    1  0.2655561E-013  0.7246168E+02  0.7816164E-02  0.1226708E+00
        -11   -1    0    0    0    0  0.00000000000E+00  0.00000000000E+00  0.45593999997E+02  0.45594000000E+02  0.51100000000E-03 0.  1.
         11   -1    0    0    0    0 -0.00000000000E+00 -0.00000000000E+00 -0.45593999997E+02  0.45594000000E+02  0.51100000000E-03 0. -1.
    9900012    2    1    2    0    0 -0.90225784360E+01  0.27403904976E+01 -0.16178944402E+02  0.72461684194E+02  0.70000148375E+02 0.  0.
        -12    1    1    2    0    0  0.90225784360E+01 -0.27403904976E+01  0.16178944402E+02  0.18726315806E+02  0.00000000000E+00 0.  1.
         11    1    3    3    0    0 -0.20724243809E+02  0.69402484062E+01  0.48313852590E+01  0.22383109998E+02  0.51100000000E-03 0. -1.
        -11    1    3    3    0    0 -0.12977309336E+02  0.99761019922E+01 -0.37490317007E+01  0.16792510459E+02  0.51100000000E-03 0.  1.
         12    1    3    3    0    0  0.24678974709E+02 -0.14175959901E+02 -0.17261297960E+02  0.33286063737E+02  0.00000000000E+00 0. -1.
</event>
<event>
 7    1  0.2655561E-013  0.7246156E+02  0.7816164E-02  0.1226708E+00
        -11   -1    0    0    0    0  0.00000000000E+00  0.00000000000E+00  0.45593999997E+02  0.45594000000E+02  0.51100000000E-03 0. -1.
         11   -1    0    0    0    0 -0.00000000000E+00 -0.00000000000E+00 -0.45593999997E+02  0.45594000000E+02  0.51100000000E-03 0.  1.
    9900012    2    1    2    0    0  0.17625979867E+02 -0.33211015826E+01  0.53828090899E+01  0.72461561052E+02  0.69999987960E+02 0.  0.
        -12    1    1    2    0    0 -0.17625979867E+02  0.33211015826E+01 -0.53828090899E+01  0.18726438948E+02  0.00000000000E+00 0.  1.
         11    1    3    3    0    0  0.45761498528E+01  0.51063431388E+01  0.97595059942E+01  0.11927440850E+02  0.51100000000E-03 0. -1.
        -11    1    3    3    0    0 -0.25320000277E+01 -0.23058839301E+02  0.18169726983E+02  0.29466253121E+02  0.51100000000E-03 0.  1.
        -12    1    3    3    0    0  0.15581830042E+02  0.14631394580E+02 -0.22546423888E+02  0.31067867080E+02  0.00000000000E+00 0.  1.
</event>
<event>
 7    1  0.2655561E-013  0.7246149E+02  0.7816164E-02  0.1226708E+00
        -11   -1    0    0    0    0  0.00000000000E+00  0.00000000000E+00  0.45593999997E+02  0.45594000000E+02  0.51100000000E-03 0.  1.
         11   -1    0    0    0    0 -0.00000000000E+00 -0.00000000000E+00 -0.45593999997E+02  0.45594000000E+02  0.51100000000E-03 0. -1.
    9900012    2    1    2    0    0 -0.97915419123E+01 -0.15841859872E+02  0.19604436366E+01  0.72461490542E+02  0.69999896108E+02 0.  0.
        -12    1    1    2    0    0  0.97915419123E+01  0.15841859872E+02 -0.19604436366E+01  0.18726509458E+02  0.00000000000E+00 0.  1.
         11    1    3    3    0    0  0.62536262405E+01 -0.37283032568E+02  0.84945119164E+01  0.38746471989E+02  0.51100000000E-03 0. -1.
        -11    1    3    3    0    0 -0.38994557447E+01 -0.27579513623E+01  0.22090094071E+01  0.52622973731E+01  0.51100000000E-03 0.  1.
        -12    1    3    3    0    0 -0.12145712408E+02  0.24199124059E+02 -0.87430776869E+01  0.28452721180E+02  0.00000000000E+00 0.  1.
</event>
<event>
 7    1  0.2655561E-013  0.7246179E+02  0.7816164E-02  0.1226707E+00
        -11   -1    0    0    0    0  0.00000000000E+00  0.00000000000E+00  0.45593999997E+02  0.45594000000E+02  0.51100000000E-03 0. -1.
         11   -1    0    0    0    0 -0.00000000000E+00 -0.00000000000E+00 -0.45593999997E+02  0.45594000000E+02  0.51100000000E-03 0.  1.
    9900012    2    1    2    0    0  0.16651169198E+02  0.78740576408E+01 -0.33776896646E+01  0.72461788240E+02  0.70000283914E+02 0.  0.
        -12    1    1    2    0    0 -0.16651169198E+02 -0.78740576408E+01  0.33776896646E+01  0.18726211760E+02  0.00000000000E+00 0.  1.
         11    1    3    3    0    0 -0.10209505438E+01 -0.21365943952E+02  0.90593841103E+01  0.23229686647E+02  0.51100000000E-03 0. -1.
        -11    1    3    3    0    0  0.20316703072E+01 -0.67921596396E+01  0.20267144199E+01  0.73735126234E+01  0.51100000000E-03 0.  1.
        -12    1    3    3    0    0  0.15640449435E+02  0.36032161233E+02 -0.14463788195E+02  0.41858588970E+02  0.00000000000E+00 0.  1.
</event>
<event>
 7    1  0.2655561E-013  0.7246151E+02  0.7816164E-02  0.1226708E+00
        -11   -1    0    0    0    0  0.00000000000E+00  0.00000000000E+00  0.45593999997E+02  0.45594000000E+02  0.51100000000E-03 0.  1.
         11   -1    0    0    0    0 -0.00000000000E+00 -0.00000000000E+00 -0.45593999997E+02  0.45594000000E+02  0.51100000000E-03 0. -1.
    9900012    2    1    2    0    0 -0.15386188159E+02  0.90780231900E+01 -0.56157009613E+01  0.72461511050E+02  0.69999922823E+02 0.  0.
        -12    1    1    2    0    0  0.15386188159E+02 -0.90780231900E+01  0.56157009613E+01  0.18726488950E+02  0.00000000000E+00 0.  1.
         11    1    3    3    0    0 -0.78563222869E+01  0.18981978750E+02  0.13611165827E+00  0.20543997756E+02  0.51100000000E-03 0. -1.
        -11    1    3    3    0    0 -0.15116325595E+02 -0.21989324858E+02  0.11902008303E+02  0.29217999745E+02  0.51100000000E-03 0.  1.
         12    1    3    3    0    0  0.75864597227E+01  0.12085369298E+02 -0.17653820922E+02  0.22699513549E+02  0.00000000000E+00 0. -1.
</event>
<event>
 7    1  0.2655561E-013  0.7246158E+02  0.7816164E-02  0.1226708E+00
        -11   -1    0    0    0    0  0.00000000000E+00  0.00000000000E+00  0.45593999997E+02  0.45594000000E+02  0.51100000000E-03 0.  1.
         11   -1    0    0    0    0 -0.00000000000E+00 -0.00000000000E+00 -0.45593999997E+02  0.45594000000E+02  0.51100000000E-03 0. -1.
    9900012    2    1    2    0    0 -0.14822819867E+02 -0.49858971321E+01  0.10300661065E+02  0.72461580764E+02  0.70000013638E+02 0.  0.
        -12    1    1    2    0    0  0.14822819867E+02  0.49858971321E+01 -0.10300661065E+02  0.18726419236E+02  0.00000000000E+00 0.  1.
         11    1    3    3    0    0 -0.20138309089E+02  0.85671308177E+01  0.15359304293E+02  0.26736780884E+02  0.51100000000E-03 0. -1.
        -11    1    3    3    0    0 -0.56181246128E+01  0.98647437723E+01  0.10579154858E+02  0.15517571061E+02  0.51100000000E-03 0.  1.
         12    1    3    3    0    0  0.10933613835E+02 -0.23417771722E+02 -0.15637798086E+02  0.30207228818E+02  0.00000000000E+00 0. -1.
</event>
<event>
 7    1  0.2655561E-013  0.7246150E+02  0.7816164E-02  0.1226708E+00
        -11   -1    0    0    0    0  0.00000000000E+00  0.00000000000E+00  0.45593999997E+02  0.45594000000E+02  0.51100000000E-03 0. -1.
         11   -1    0    0    0    0 -0.00000000000E+00 -0.00000000000E+00 -0.45593999997E+02  0.45594000000E+02  0.51100000000E-03 0.  1.
    9900012    2    1    2    0    0 -0.17260106571E+02  0.61752123113E+01 -0.38258510115E+01  0.72461503748E+02  0.69999913311E+02 0.  0.
        -12    1    1    2    0    0  0.17260106571E+02 -0.61752123113E+01  0.38258510115E+01  0.18726496252E+02  0.00000000000E+00 0.  1.
         11    1    3    3    0    0  0.53655317548E+00 -0.22429296925E+00 -0.40504829398E+01  0.40920177118E+01  0.51100000000E-03 0.  1.
        -11    1    3    3    0    0 -0.29872513635E+02  0.11642858440E+02  0.24770851540E+02  0.40515655120E+02  0.51100000000E-03 0. -1.
         12    1    3    3    0    0  0.12075853888E+02 -0.52433531593E+01 -0.24546219612E+02  0.27853830916E+02  0.00000000000E+00 0. -1.
</event>
<event>
 7    1  0.2655561E-013  0.7246153E+02  0.7816164E-02  0.1226708E+00
        -11   -1    0    0    0    0  0.00000000000E+00  0.00000000000E+00  0.45593999997E+02  0.45594000000E+02  0.51100000000E-03 0. -1.
         11   -1    0    0    0    0 -0.00000000000E+00 -0.00000000000E+00 -0.45593999997E+02  0.45594000000E+02  0.51100000000E-03 0.  1.
    9900012    2    1    2    0    0 -0.18352467724E+02 -0.37025071611E+01 -0.39868307242E+00  0.72461532661E+02  0.69999950975E+02 0.  0.
        -12    1    1    2    0    0  0.18352467724E+02  0.37025071611E+01  0.39868307242E+00  0.18726467339E+02  0.00000000000E+00 0.  1.
         11    1    3    3    0    0  0.72022418210E+01 -0.61886921522E+01  0.17569349725E+02  0.19971335655E+02  0.51100000000E-03 0. -1.
        -11    1    3    3    0    0 -0.66711594966E+01 -0.89485456565E+01 -0.26553255980E+02  0.28803753953E+02  0.51100000000E-03 0.  1.
         12    1    3    3    0    0 -0.18883550048E+02  0.11434730648E+02  0.85852231825E+01  0.23686443053E+02  0.00000000000E+00 0. -1.
</event>
<event>
 7    1  0.2655561E-013  0.7246157E+02  0.7816164E-02  0.1226708E+00
        -11   -1    0    0    0    0  0.00000000000E+00  0.00000000000E+00  0.45593999997E+02  0.45594000000E+02  0.51100000000E-03 0.  1.
         11   -1    0    0    0    0 -0.00000000000E+00 -0.00000000000E+00 -0.45593999997E+02  0.45594000000E+02  0.51100000000E-03 0. -1.
    9900012    2    1    2    0    0 -0.15536203348E+02 -0.99382249798E+01  0.32461057861E+01  0.72461571270E+02  0.70000001271E+02 0.  0.
        -12    1    1    2    0    0  0.15536203348E+02  0.99382249798E+01 -0.32461057861E+01  0.18726428730E+02  0.00000000000E+00 0.  1.
         11    1    3    3    0    0 -0.16424904878E+02 -0.23543276465E+01 -0.19872485019E+01  0.16711358885E+02  0.51100000000E-03 0. -1.
        -11    1    3    3    0    0 -0.17463559321E+02 -0.19122367389E+02  0.17103502569E+02  0.31034990561E+02  0.51100000000E-03 0.  1.
         12    1    3    3    0    0  0.18352260851E+02  0.11538470056E+02 -0.11870148281E+02  0.24715221824E+02  0.00000000000E+00 0. -1.
</event>
<event>
 7    1  0.2655561E-013  0.7246147E+02  0.7816164E-02  0.1226708E+00
        -11   -1    0    0    0    0  0.00000000000E+00  0.00000000000E+00  0.45593999997E+02  0.45594000000E+02  0.51100000000E-03 0.  1.
         11   -1    0    0    0    0 -0.00000000000E+00 -0.00000000000E+00 -0.45593999997E+02  0.45594000000E+02  0.51100000000E-03 0. -1.
    9900012    2    1    2    0    0  0.84898353523E+01  0.83195543079E+01 -0.14470330446E+02  0.72461474658E+02  0.69999875415E+02 0.  0.
        -12    1    1    2    0    0 -0.84898353523E+01 -0.83195543079E+01  0.14470330446E+02  0.18726525342E+02  0.00000000000E+00 0.  1.
         11    1    3    3    0    0  0.15994813960E+02  0.35564411646E+01  0.18435431386E+01  0.16488814358E+02  0.51100000000E-03 0. -1.
        -11    1    3    3    0    0  0.21652565703E+02 -0.36314855820E+01 -0.98158721578E+00  0.21976915224E+02  0.51100000000E-03 0.  1.
         12    1    3    3    0    0 -0.29157544310E+02  0.83945987253E+01 -0.15332286368E+02  0.33995745076E+02  0.00000000000E+00 0. -1.
</event>
<event>
 7    1  0.2655561E-013  0.7246160E+02  0.7816164E-02  0.1226708E+00
        -11   -1    0    0    0    0  0.00000000000E+00  0.00000000000E+00  0.45593999997E+02  0.45594000000E+02  0.51100000000E-03 0.  1.
         11   -1    0    0    0    0 -0.00000000000E+00 -0.00000000000E+00 -0.45593999997E+02  0.45594000000E+02  0.51100000000E-03 0. -1.
    9900012    2    1    2    0    0  0.64322982712E+00  0.74284892040E+01 -0.17177951767E+02  0.72461595556E+02  0.70000032909E+02 0.  0.
        -12    1    1    2    0    0 -0.64322982712E+00 -0.74284892040E+01  0.17177951767E+02  0.18726404444E+02  0.00000000000E+00 0.  1.
         11    1    3    3    0    0  0.10264462290E+02  0.97024634691E+01 -0.82641106126E+00  0.14148495997E+02  0.51100000000E-03 0.  1.
        -11    1    3    3    0    0  0.21836869404E+02 -0.39060818854E+01 -0.15009400993E+02  0.26784108339E+02  0.51100000000E-03 0. -1.
        -12    1    3    3    0    0 -0.31458101867E+02  0.16321076203E+01 -0.13421397134E+01  0.31528991221E+02  0.00000000000E+00 0.  1.
</event>
<event>
 7    1  0.2655561E-013  0.7246162E+02  0.7816164E-02  0.1226708E+00
        -11   -1    0    0    0    0  0.00000000000E+00  0.00000000000E+00  0.45593999997E+02  0.45594000000E+02  0.51100000000E-03 0. -1.
         11   -1    0    0    0    0 -0.00000000000E+00 -0.00000000000E+00 -0.45593999997E+02  0.45594000000E+02  0.51100000000E-03 0.  1.
    9900012    2    1    2    0    0  0.18639250865E+01  0.38578967572E+01  0.18229633804E+02  0.72461624677E+02  0.70000070844E+02 0.  0.
        -12    1    1    2    0    0 -0.18639250865E+01 -0.38578967572E+01 -0.18229633804E+02  0.18726375323E+02  0.00000000000E+00 0.  1.
         11    1    3    3    0    0 -0.99318706937E+01 -0.13041092954E+02  0.31960392355E+02  0.35919059574E+02  0.51100000000E-03 0. -1.
        -11    1    3    3    0    0  0.12723434459E+02 -0.22675006050E+01  0.39620140739E-01  0.12923966629E+02  0.51100000000E-03 0.  1.
         12    1    3    3    0    0 -0.92763867876E+00  0.19166490316E+02 -0.13770378692E+02  0.23618598474E+02  0.00000000000E+00 0. -1.
</event>
<event>
 7    1  0.2655561E-013  0.7246166E+02  0.7816164E-02  0.1226708E+00
        -11   -1    0    0    0    0  0.00000000000E+00  0.00000000000E+00  0.45593999997E+02  0.45594000000E+02  0.51100000000E-03 0.  1.
         11   -1    0    0    0    0 -0.00000000000E+00 -0.00000000000E+00 -0.45593999997E+02  0.45594000000E+02  0.51100000000E-03 0. -1.
    9900012    2    1    2    0    0 -0.82197774179E+01 -0.14502451168E+02 -0.85317000842E+01  0.72461661944E+02  0.70000119390E+02 0.  0.
        -12    1    1    2    0    0  0.82197774179E+01  0.14502451168E+02  0.85317000842E+01  0.18726338056E+02  0.00000000000E+00 0.  1.
         11    1    3    3    0    0  0.37558132249E+01 -0.31250207701E+02 -0.48011386008E+01  0.31839166862E+02  0.51100000000E-03 0. -1.
        -11    1    3    3    0    0  0.12069325869E+02  0.29705980486E+01  0.11543504967E+01  0.12483012658E+02  0.51100000000E-03 0.  1.
        -12    1    3    3    0    0 -0.24044916512E+02  0.13777158485E+02 -0.48849119800E+01  0.28139482423E+02  0.00000000000E+00 0.  1.
</event>
<event>
 7    1  0.2655561E-013  0.7246155E+02  0.7816164E-02  0.1226708E+00
        -11   -1    0    0    0    0  0.00000000000E+00  0.00000000000E+00  0.45593999997E+02  0.45594000000E+02  0.51100000000E-03 0. -1.
         11   -1    0    0    0    0 -0.00000000000E+00 -0.00000000000E+00 -0.45593999997E+02  0.45594000000E+02  0.51100000000E-03 0.  1.
    9900012    2    1    2    0    0  0.76631003182E+01  0.75545805190E+01  0.15325957882E+02  0.72461554039E+02  0.69999978825E+02 0.  0.
        -12    1    1    2    0    0 -0.76631003182E+01 -0.75545805190E+01 -0.15325957882E+02  0.18726445961E+02  0.00000000000E+00 0.  1.
         11    1    3    3    0    0  0.71685751953E+01 -0.86618524938E+00 -0.12082562271E+02  0.14075761383E+02  0.51100000000E-03 0. -1.
        -11    1    3    3    0    0 -0.34942789713E+01 -0.21288765803E+02  0.11165427114E+02  0.24291733118E+02  0.51100000000E-03 0.  1.
         12    1    3    3    0    0  0.39888040943E+01  0.29709531572E+02  0.16243093040E+02  0.34094059539E+02  0.00000000000E+00 0. -1.
</event>
<event>
 7    1  0.2655561E-013  0.7246181E+02  0.7816164E-02  0.1226707E+00
        -11   -1    0    0    0    0  0.00000000000E+00  0.00000000000E+00  0.45593999997E+02  0.45594000000E+02  0.51100000000E-03 0.  1.
         11   -1    0    0    0    0 -0.00000000000E+00 -0.00000000000E+00 -0.45593999997E+02  0.45594000000E+02  0.51100000000E-03 0. -1.
    9900012    2    1    2    0    0 -0.15209353642E+02 -0.10248633673E+02  0.37830435911E+01  0.72461805802E+02  0.70000306791E+02 0.  0.
        -12    1    1    2    0    0  0.15209353642E+02  0.10248633673E+02 -0.37830435911E+01  0.18726194198E+02  0.00000000000E+00 0.  1.
         11    1    3    3    0    0  0.19025631847E+02 -0.22701124902E+02 -0.12139935830E+01  0.29644384285E+02  0.51100000000E-03 0. -1.
        -11    1    3    3    0    0 -0.25438393455E+01 -0.55299944027E+01  0.66921905543E+00  0.61237089345E+01  0.51100000000E-03 0.  1.
        -12    1    3    3    0    0 -0.31691146143E+02  0.17982485632E+02  0.43278181187E+01  0.36693712581E+02  0.00000000000E+00 0.  1.
</event>
<event>
 7    1  0.2655561E-013  0.7246160E+02  0.7816164E-02  0.1226708E+00
        -11   -1    0    0    0    0  0.00000000000E+00  0.00000000000E+00  0.45593999997E+02  0.45594000000E+02  0.51100000000E-03 0. -1.
         11   -1    0    0    0    0 -0.00000000000E+00 -0.00000000000E+00 -0.45593999997E+02  0.45594000000E+02  0.51100000000E-03 0.  1.
    9900012    2    1    2    0    0 -0.14134844992E+02  0.84580595911E+01  0.89076131848E+01  0.72461596511E+02  0.70000034151E+02 0.  0.
        -12    1    1    2    0    0  0.14134844992E+02 -0.84580595911E+01 -0.89076131848E+01  0.18726403489E+02  0.00000000000E+00 0.  1.
         11    1    3    3    0    0 -0.12076401429E+02  0.10797244146E+02 -0.45158292099E+01  0.16817035004E+02  0.51100000000E-03 0. -1.
        -11    1    3    3    0    0 -0.15423888834E+02  0.69830304883E+01 -0.15170484943E+02  0.22733294421E+02  0.51100000000E-03 0.  1.
         12    1    3    3    0    0  0.13365445270E+02 -0.93222150434E+01  0.28593927338E+02  0.32911267086E+02  0.00000000000E+00 0. -1.
</event>
<event>
 7    1  0.2655561E-013  0.7246150E+02  0.7816164E-02  0.1226708E+00
        -11   -1    0    0    0    0  0.00000000000E+00  0.00000000000E+00  0.45593999997E+02  0.45594000000E+02  0.51100000000E-03 0. -1.
         11   -1    0    0    0    0 -0.00000000000E+00 -0.00000000000E+00 -0.45593999997E+02  0.45594000000E+02  0.51100000000E-03 0.  1.
    9900012    2    1    2    0    0  0.13707956657E+02  0.53541347642E+01  0.11580449073E+02  0.72461504452E+02  0.69999914228E+02 0.  0.
        -12    1    1    2    0    0 -0.13707956657E+02 -0.53541347642E+01 -0.11580449073E+02  0.18726495548E+02  0.00000000000E+00 0.  1.
         11    1    3    3    0    0 -0.17618574644E+00 -0.54812395339E+01  0.19948348995E+02  0.20688442574E+02  0.51100000000E-03 0. -1.
        -11    1    3    3    0    0 -0.35960113611E+01 -0.24613004895E+01 -0.24269843886E+02  0.24657952476E+02  0.51100000000E-03 0.  1.
         12    1    3    3    0    0  0.17480153764E+02  0.13296674788E+02  0.15901943964E+02  0.27115109402E+02  0.00000000000E+00 0. -1.
</event>
<event>
 7    1  0.2655561E-013  0.7246149E+02  0.7816164E-02  0.1226708E+00
        -11   -1    0    0    0    0  0.00000000000E+00  0.00000000000E+00  0.45593999997E+02  0.45594000000E+02  0.51100000000E-03 0. -1.
         11   -1    0    0    0    0 -0.00000000000E+00 -0.00000000000E+00 -0.45593999997E+02  0.45594000000E+02  0.51100000000E-03 0.  1.
    9900012    2    1    2    0    0 -0.29462166065E+01 -0.65379645857E+01  0.17299050467E+02  0.72461486168E+02  0.69999890410E+02 0.  0.
        -12    1    1    2    0    0  0.29462166065E+01  0.65379645857E+01 -0.17299050467E+02  0.18726513832E+02  0.00000000000E+00 0.  1.
         11    1    3    3    0    0 -0.69435924372E+01 -0.17671837731E+02  0.32975520461E+01  0.19271252540E+02  0.51100000000E-03 0. -1.
        -11    1    3    3    0    0 -0.12178762865E+01 -0.17207804461E+02  0.16996866629E+02  0.24217457184E+02  0.51100000000E-03 0.  1.
         12    1    3    3    0    0  0.52152521172E+01  0.28341677606E+02 -0.29953682082E+01  0.28972776444E+02  0.00000000000E+00 0. -1.
</event>
<event>
 7    1  0.2655561E-013  0.7246154E+02  0.7816164E-02  0.1226708E+00
        -11   -1    0    0    0    0  0.00000000000E+00  0.00000000000E+00  0.45593999997E+02  0.45594000000E+02  0.51100000000E-03 0. -1.
         11   -1    0    0    0    0 -0.00000000000E+00 -0.00000000000E+00 -0.45593999997E+02  0.45594000000E+02  0.51100000000E-03 0.  1.
    9900012    2    1    2    0    0  0.11724316962E+02  0.76260643643E+01  0.12452461533E+02  0.72461541068E+02  0.69999961927E+02 0.  0.
        -12    1    1    2    0    0 -0.11724316962E+02 -0.76260643643E+01 -0.12452461533E+02  0.18726458932E+02  0.00000000000E+00 0.  1.
         11    1    3    3    0    0  0.24591744838E+02 -0.20080478217E+02  0.17122599834E+02  0.36071636294E+02  0.51100000000E-03 0. -1.
        -11    1    3    3    0    0  0.28174059440E+00  0.31727538513E+00 -0.59651366686E+01  0.59802087897E+01  0.51100000000E-03 0.  1.
        -12    1    3    3    0    0 -0.13149168470E+02  0.27389267197E+02  0.12949983676E+01  0.30409695983E+02  0.00000000000E+00 0.  1.
</event>
<event>
 7    1  0.2655561E-013  0.7246159E+02  0.7816164E-02  0.1226708E+00
        -11   -1    0    0    0    0  0.00000000000E+00  0.00000000000E+00  0.45593999997E+02  0.45594000000E+02  0.51100000000E-03 0.  1.
         11   -1    0    0    0    0 -0.00000000000E+00 -0.00000000000E+00 -0.45593999997E+02  0.45594000000E+02  0.51100000000E-03 0. -1.
    9900012    2    1    2    0    0 -0.60722572579E+01 -0.14733242329E+02 -0.98355374951E+01  0.72461587221E+02  0.70000022051E+02 0.  0.
        -12    1    1    2    0    0  0.60722572579E+01  0.14733242329E+02  0.98355374951E+01  0.18726412779E+02  0.00000000000E+00 0.  1.
         11    1    3    3    0    0  0.52768818534E+01  0.11817124440E+01 -0.10849848497E+02  0.12122752949E+02  0.51100000000E-03 0. -1.
        -11    1    3    3    0    0 -0.99582004993E+01  0.20916565410E+02 -0.25649828192E+01  0.23307672617E+02  0.51100000000E-03 0.  1.
         12    1    3    3    0    0 -0.13909386120E+01 -0.36831520183E+02  0.35792938215E+01  0.37031161654E+02  0.00000000000E+00 0. -1.
</event>
<event>
 7    1  0.2655561E-013  0.7246155E+02  0.7816164E-02  0.1226708E+00
        -11   -1    0    0    0    0  0.00000000000E+00  0.00000000000E+00  0.45593999997E+02  0.45594000000E+02  0.51100000000E-03 0.  1.
         11   -1    0    0    0    0 -0.00000000000E+00 -0.00000000000E+00 -0.45593999997E+02  0.45594000000E+02  0.51100000000E-03 0. -1.
    9900012    2    1    2    0    0  0.63148941477E+01  0.17621016575E+02 -0.54944584906E+00  0.72461548015E+02  0.69999970977E+02 0.  0.
        -12    1    1    2    0    0 -0.63148941477E+01 -0.17621016575E+02  0.54944584906E+00  0.18726451985E+02  0.00000000000E+00 0.  1.
         11    1    3    3    0    0  0.33151741289E+01 -0.15052295784E+01  0.13068721490E+02  0.13566413573E+02  0.51100000000E-03 0. -1.
        -11    1    3    3    0    0  0.74458188693E+01  0.35166912853E+01  0.19964511031E+02  0.21596042165E+02  0.51100000000E-03 0.  1.
         12    1    3    3    0    0 -0.44460988505E+01  0.15609554868E+02 -0.33582678370E+02  0.37299092277E+02  0.00000000000E+00 0. -1.
</event>
<event>
 7    1  0.2655561E-013  0.7246158E+02  0.7816164E-02  0.1226708E+00
        -11   -1    0    0    0    0  0.00000000000E+00  0.00000000000E+00  0.45593999997E+02  0.45594000000E+02  0.51100000000E-03 0.  1.
         11   -1    0    0    0    0 -0.00000000000E+00 -0.00000000000E+00 -0.45593999997E+02  0.45594000000E+02  0.51100000000E-03 0. -1.
    9900012    2    1    2    0    0  0.86594053476E+01  0.15640943866E+02  0.55726488863E+01  0.72461579050E+02  0.70000011405E+02 0.  0.
        -12    1    1    2    0    0 -0.86594053476E+01 -0.15640943866E+02 -0.55726488863E+01  0.18726420950E+02  0.00000000000E+00 0.  1.
         11    1    3    3    0    0 -0.18372683738E+02 -0.98781372322E+01  0.70161356525E+01  0.22008163546E+02  0.51100000000E-03 0. -1.
        -11    1    3    3    0    0  0.12179211232E+01  0.46014638826E+01  0.13283503392E+02  0.14110572786E+02  0.51100000000E-03 0.  1.
         12    1    3    3    0    0  0.25814167963E+02  0.20917617216E+02 -0.14726990158E+02  0.36342842717E+02  0.00000000000E+00 0. -1.
</event>
<event>
 7    1  0.2655561E-013  0.7246157E+02  0.7816164E-02  0.1226708E+00
        -11   -1    0    0    0    0  0.00000000000E+00  0.00000000000E+00  0.45593999997E+02  0.45594000000E+02  0.51100000000E-03 0.  1.
         11   -1    0    0    0    0 -0.00000000000E+00 -0.00000000000E+00 -0.45593999997E+02  0.45594000000E+02  0.51100000000E-03 0. -1.
    9900012    2    1    2    0    0  0.66351480697E+00 -0.12590348819E+00 -0.18714244102E+02  0.72461573862E+02  0.70000004648E+02 0.  0.
        -12    1    1    2    0    0 -0.66351480697E+00  0.12590348819E+00  0.18714244102E+02  0.18726426138E+02  0.00000000000E+00 0.  1.
         11    1    3    3    0    0  0.97429851150E+01  0.20376861731E+02 -0.22678897369E+02  0.32007415377E+02  0.51100000000E-03 0. -1.
        -11    1    3    3    0    0  0.78121197067E+01 -0.17463806709E+02 -0.66732444014E+01  0.20261933525E+02  0.51100000000E-03 0.  1.
        -12    1    3    3    0    0 -0.16891590015E+02 -0.30389585106E+01  0.10637897668E+02  0.20192224961E+02  0.00000000000E+00 0.  1.
</event>
<event>
 7    1  0.2655561E-013  0.7246155E+02  0.7816164E-02  0.1226708E+00
        -11   -1    0    0    0    0  0.00000000000E+00  0.00000000000E+00  0.45593999997E+02  0.45594000000E+02  0.51100000000E-03 0.  1.
         11   -1    0    0    0    0 -0.00000000000E+00 -0.00000000000E+00 -0.45593999997E+02  0.45594000000E+02  0.51100000000E-03 0. -1.
    9900012    2    1    2    0    0 -0.18395274653E+02  0.29781732600E+01 -0.18504916172E+01  0.72461549062E+02  0.69999972341E+02 0.  0.
        -12    1    1    2    0    0  0.18395274653E+02 -0.29781732600E+01  0.18504916172E+01  0.18726450938E+02  0.00000000000E+00 0.  1.
         11    1    3    3    0    0 -0.36855244242E+02  0.26239819226E+01 -0.43495104843E+01  0.37203663139E+02  0.51100000000E-03 0. -1.
        -11    1    3    3    0    0 -0.46516948613E+01 -0.40909940918E+01 -0.74647789750E+01  0.97003826290E+01  0.51100000000E-03 0.  1.
        -12    1    3    3    0    0  0.23111664451E+02  0.44451854293E+01  0.99637978422E+01  0.25557503294E+02  0.00000000000E+00 0.  1.
</event>
<event>
 7    1  0.2655561E-013  0.7246158E+02  0.7816164E-02  0.1226708E+00
        -11   -1    0    0    0    0  0.00000000000E+00  0.00000000000E+00  0.45593999997E+02  0.45594000000E+02  0.51100000000E-03 0.  1.
         11   -1    0    0    0    0 -0.00000000000E+00 -0.00000000000E+00 -0.45593999997E+02  0.45594000000E+02  0.51100000000E-03 0. -1.
    9900012    2    1    2    0    0  0.18264473126E+02  0.12902662519E+01  0.39272379877E+01  0.72461575787E+02  0.70000007156E+02 0.  0.
        -12    1    1    2    0    0 -0.18264473126E+02 -0.12902662519E+01 -0.39272379877E+01  0.18726424213E+02  0.00000000000E+00 0.  1.
         11    1    3    3    0    0  0.31286428817E+02 -0.17759407674E+02 -0.11018331806E+02  0.37625002659E+02  0.51100000000E-03 0. -1.
        -11    1    3    3    0    0  0.52632206932E+01  0.90577398767E+01  0.66531129546E+01  0.12409998227E+02  0.51100000000E-03 0.  1.
        -12    1    3    3    0    0 -0.18285176383E+02  0.99919340488E+01  0.82924568391E+01  0.22426574902E+02  0.00000000000E+00 0.  1.
</event>
<event>
 7    1  0.2655561E-013  0.7246137E+02  0.7816164E-02  0.1226709E+00
        -11   -1    0    0    0    0  0.00000000000E+00  0.00000000000E+00  0.45593999997E+02  0.45594000000E+02  0.51100000000E-03 0.  1.
         11   -1    0    0    0    0 -0.00000000000E+00 -0.00000000000E+00 -0.45593999997E+02  0.45594000000E+02  0.51100000000E-03 0. -1.
    9900012    2    1    2    0    0 -0.14801609069E+02  0.83132150128E+01 -0.79050400622E+01  0.72461365672E+02  0.69999733440E+02 0.  0.
        -12    1    1    2    0    0  0.14801609069E+02 -0.83132150128E+01  0.79050400622E+01  0.18726634328E+02  0.00000000000E+00 0.  1.
         11    1    3    3    0    0 -0.27435475968E+02  0.24070084464E+01 -0.18509699919E+02  0.33182947769E+02  0.51100000000E-03 0. -1.
        -11    1    3    3    0    0 -0.45352181168E+01  0.16284655461E+02  0.73595059232E+00  0.16920396875E+02  0.51100000000E-03 0.  1.
        -12    1    3    3    0    0  0.17169085016E+02 -0.10378448895E+02  0.98687092649E+01  0.22358021028E+02  0.00000000000E+00 0.  1.
</event>
<event>
 7    1  0.2655561E-013  0.7246158E+02  0.7816164E-02  0.1226708E+00
        -11   -1    0    0    0    0  0.00000000000E+00  0.00000000000E+00  0.45593999997E+02  0.45594000000E+02  0.51100000000E-03 0. -1.
         11   -1    0    0    0    0 -0.00000000000E+00 -0.00000000000E+00 -0.45593999997E+02  0.45594000000E+02  0.51100000000E-03 0.  1.
    9900012    2    1    2    0    0  0.64842383615E+01 -0.25449891724E+01  0.17382646073E+02  0.72461582790E+02  0.70000016279E+02 0.  0.
        -12    1    1    2    0    0 -0.64842383615E+01  0.25449891724E+01 -0.17382646073E+02  0.18726417210E+02  0.00000000000E+00 0.  1.
         11    1    3    3    0    0  0.16090770917E+01 -0.13605089430E+02  0.14331540791E+02  0.19826261604E+02  0.51100000000E-03 0. -1.
        -11    1    3    3    0    0  0.14453915400E+02 -0.15300723775E+02 -0.79614042020E+01  0.22503594725E+02  0.51100000000E-03 0.  1.
         12    1    3    3    0    0 -0.95787541300E+01  0.26360824033E+02  0.11012509484E+02  0.30131726461E+02  0.00000000000E+00 0. -1.
</event>
<event>
 7    1  0.2655561E-013  0.7246158E+02  0.7816164E-02  0.1226708E+00
        -11   -1    0    0    0    0  0.00000000000E+00  0.00000000000E+00  0.45593999997E+02  0.45594000000E+02  0.51100000000E-03 0.  1.
         11   -1    0    0    0    0 -0.00000000000E+00 -0.00000000000E+00 -0.45593999997E+02  0.45594000000E+02  0.51100000000E-03 0. -1.
    9900012    2    1    2    0    0  0.40047271115E+01  0.12152774956E+02 -0.13673002925E+02  0.72461580498E+02  0.70000013292E+02 0.  0.
        -12    1    1    2    0    0 -0.40047271115E+01 -0.12152774956E+02  0.13673002925E+02  0.18726419502E+02  0.00000000000E+00 0.  1.
         11    1    3    3    0    0  0.81123552702E+01 -0.94351152248E+01 -0.84155229778E+01  0.15021742062E+02  0.51100000000E-03 0. -1.
        -11    1    3    3    0    0  0.11486922361E+01 -0.16435462879E+02  0.58447500551E+01  0.17481562784E+02  0.51100000000E-03 0.  1.
        -12    1    3    3    0    0 -0.52563203947E+01  0.38023353060E+02 -0.11102230002E+02  0.39958275652E+02  0.00000000000E+00 0.  1.
</event>
<event>
 7    1  0.2775272E-013  0.7246157E+02  0.7816164E-02  0.1226708E+00
        -11   -1    0    0    0    0  0.00000000000E+00  0.00000000000E+00  0.45593999997E+02  0.45594000000E+02  0.51100000000E-03 0. -1.
         11   -1    0    0    0    0 -0.00000000000E+00 -0.00000000000E+00 -0.45593999997E+02  0.45594000000E+02  0.51100000000E-03 0.  1.
    9900012    2    1    2    0    0  0.43525670342E+01  0.11408831200E+02  0.14197632292E+02  0.72461573971E+02  0.70000004789E+02 0.  0.
        -12    1    1    2    0    0 -0.43525670342E+01 -0.11408831200E+02 -0.14197632292E+02  0.18726426029E+02  0.00000000000E+00 0.  1.
         11    1    3    3    0    0 -0.42723478022E+01  0.28213688686E+02  0.13896750585E+01  0.28569150880E+02  0.51100000000E-03 0. -1.
        -11    1    3    3    0    0 -0.49697229884E+01  0.83705803531E+01  0.11753696854E+02  0.15261525220E+02  0.51100000000E-03 0.  1.
        -12    1    3    3    0    0  0.13594637825E+02 -0.25175437838E+02  0.10542603791E+01  0.28630897871E+02  0.00000000000E+00 0.  1.
</event>
<event>
 7    1  0.2655561E-013  0.7246161E+02  0.7816164E-02  0.1226708E+00
        -11   -1    0    0    0    0  0.00000000000E+00  0.00000000000E+00  0.45593999997E+02  0.45594000000E+02  0.51100000000E-03 0. -1.
         11   -1    0    0    0    0 -0.00000000000E+00 -0.00000000000E+00 -0.45593999997E+02  0.45594000000E+02  0.51100000000E-03 0.  1.
    9900012    2    1    2    0    0 -0.18660974534E+02 -0.45626140301E+00  0.14958675663E+01  0.72461607801E+02  0.70000048859E+02 0.  0.
        -12    1    1    2    0    0  0.18660974534E+02  0.45626140301E+00 -0.14958675663E+01  0.18726392199E+02  0.00000000000E+00 0.  1.
         11    1    3    3    0    0 -0.13591457848E+01 -0.32602873932E+01  0.53840238534E+01  0.64392906648E+01  0.51100000000E-03 0. -1.
        -11    1    3    3    0    0  0.14191522728E+02 -0.15217769456E+02  0.14482252754E+02  0.25351833654E+02  0.51100000000E-03 0.  1.
        -12    1    3    3    0    0 -0.31493351477E+02  0.18021795446E+02 -0.18370409041E+02  0.40670483482E+02  0.00000000000E+00 0.  1.
</event>
<event>
 7    1  0.2655561E-013  0.7246161E+02  0.7816164E-02  0.1226708E+00
        -11   -1    0    0    0    0  0.00000000000E+00  0.00000000000E+00  0.45593999997E+02  0.45594000000E+02  0.51100000000E-03 0. -1.
         11   -1    0    0    0    0 -0.00000000000E+00 -0.00000000000E+00 -0.45593999997E+02  0.45594000000E+02  0.51100000000E-03 0.  1.
    9900012    2    1    2    0    0 -0.12617116984E+02 -0.12010649581E+02 -0.68724252370E+01  0.72461612922E+02  0.70000055530E+02 0.  0.
        -12    1    1    2    0    0  0.12617116984E+02  0.12010649581E+02  0.68724252370E+01  0.18726387078E+02  0.00000000000E+00 0.  1.
         11    1    3    3    0    0 -0.50917146857E+01 -0.10695902591E+01  0.14369726813E+02  0.15282625125E+02  0.51100000000E-03 0. -1.
        -11    1    3    3    0    0  0.21964878806E+02 -0.82912039071E+01 -0.93547261813E+01  0.25272729678E+02  0.51100000000E-03 0.  1.
        -12    1    3    3    0    0 -0.29490281105E+02 -0.26498554153E+01 -0.11887425869E+02  0.31906258119E+02  0.00000000000E+00 0.  1.
</event>
<event>
 7    1  0.2655561E-013  0.7246160E+02  0.7816164E-02  0.1226708E+00
        -11   -1    0    0    0    0  0.00000000000E+00  0.00000000000E+00  0.45593999997E+02  0.45594000000E+02  0.51100000000E-03 0.  1.
         11   -1    0    0    0    0 -0.00000000000E+00 -0.00000000000E+00 -0.45593999997E+02  0.45594000000E+02  0.51100000000E-03 0. -1.
    9900012    2    1    2    0    0 -0.17662871713E+02 -0.30909477047E+01  0.53988172069E+01  0.72461595591E+02  0.70000032954E+02 0.  0.
        -12    1    1    2    0    0  0.17662871713E+02  0.30909477047E+01 -0.53988172069E+01  0.18726404409E+02  0.00000000000E+00 0.  1.
         11    1    3    3    0    0 -0.27300662659E+02 -0.86581275109E+01 -0.17051564513E+02  0.33332344745E+02  0.51100000000E-03 0. -1.
        -11    1    3    3    0    0 -0.83776118074E+01  0.43296623104E+01 -0.10540345912E+01  0.94890117767E+01  0.51100000000E-03 0.  1.
         12    1    3    3    0    0  0.18015402754E+02  0.12375174957E+01  0.23504416311E+02  0.29640239069E+02  0.00000000000E+00 0. -1.
</event>
<event>
 7    1  0.2655561E-013  0.7246136E+02  0.7816164E-02  0.1226709E+00
        -11   -1    0    0    0    0  0.00000000000E+00  0.00000000000E+00  0.45593999997E+02  0.45594000000E+02  0.51100000000E-03 0.  1.
         11   -1    0    0    0    0 -0.00000000000E+00 -0.00000000000E+00 -0.45593999997E+02  0.45594000000E+02  0.51100000000E-03 0. -1.
    9900012    2    1    2    0    0 -0.99654760395E+01 -0.12192784727E+02  0.10134714781E+02  0.72461357061E+02  0.69999722223E+02 0.  0.
        -12    1    1    2    0    0  0.99654760395E+01  0.12192784727E+02 -0.10134714781E+02  0.18726642939E+02  0.00000000000E+00 0.  1.
         11    1    3    3    0    0 -0.51158665977E+01 -0.10467132189E+02  0.15755619032E+02  0.19595215708E+02  0.51100000000E-03 0. -1.
        -11    1    3    3    0    0 -0.25317249399E+02 -0.28481980660E+01 -0.15800944394E+02  0.29979079261E+02  0.51100000000E-03 0.  1.
         12    1    3    3    0    0  0.20467639957E+02  0.11225455284E+01  0.10180040143E+02  0.22887062092E+02  0.00000000000E+00 0. -1.
</event>
<event>
 7    1  0.2655561E-013  0.7246157E+02  0.7816164E-02  0.1226708E+00
        -11   -1    0    0    0    0  0.00000000000E+00  0.00000000000E+00  0.45593999997E+02  0.45594000000E+02  0.51100000000E-03 0. -1.
         11   -1    0    0    0    0 -0.00000000000E+00 -0.00000000000E+00 -0.45593999997E+02  0.45594000000E+02  0.51100000000E-03 0.  1.
    9900012    2    1    2    0    0 -0.29768129566E+01 -0.39573131936E+01  0.18059825226E+02  0.72461574012E+02  0.70000004843E+02 0.  0.
        -12    1    1    2    0    0  0.29768129566E+01  0.39573131936E+01 -0.18059825226E+02  0.18726425988E+02  0.00000000000E+00 0.  1.
         11    1    3    3    0    0 -0.84786298935E+01 -0.94381694217E+01  0.13822295845E+02  0.18762251187E+02  0.51100000000E-03 0. -1.
        -11    1    3    3    0    0  0.11347039461E+02 -0.13961083833E+01  0.26941675867E+02  0.29267017647E+02  0.51100000000E-03 0.  1.
        -12    1    3    3    0    0 -0.58452225237E+01  0.68769646114E+01 -0.22704146487E+02  0.24432305178E+02  0.00000000000E+00 0.  1.
</event>
<event>
 7    1  0.2655561E-013  0.7246157E+02  0.7816164E-02  0.1226708E+00
        -11   -1    0    0    0    0  0.00000000000E+00  0.00000000000E+00  0.45593999997E+02  0.45594000000E+02  0.51100000000E-03 0.  1.
         11   -1    0    0    0    0 -0.00000000000E+00 -0.00000000000E+00 -0.45593999997E+02  0.45594000000E+02  0.51100000000E-03 0. -1.
    9900012    2    1    2    0    0 -0.92188022443E+01 -0.32184904140E+01 -0.15979183529E+02  0.72461566767E+02  0.69999995406E+02 0.  0.
        -12    1    1    2    0    0  0.92188022443E+01  0.32184904140E+01  0.15979183529E+02  0.18726433233E+02  0.00000000000E+00 0.  1.
         11    1    3    3    0    0 -0.22381736464E+02  0.31940355577E+01 -0.76063059175E+01  0.23853718374E+02  0.51100000000E-03 0.  1.
        -11    1    3    3    0    0  0.13495139716E+02 -0.10455069058E+02  0.16300267671E+02  0.23603516505E+02  0.51100000000E-03 0. -1.
         12    1    3    3    0    0 -0.33220549651E+00  0.40425430867E+01 -0.24673145283E+02  0.25004331889E+02  0.00000000000E+00 0. -1.
</event>
<event>
 7    1  0.4025755E-013  0.7246152E+02  0.7816164E-02  0.1226708E+00
        -11   -1    0    0    0    0  0.00000000000E+00  0.00000000000E+00  0.45593999997E+02  0.45594000000E+02  0.51100000000E-03 0. -1.
         11   -1    0    0    0    0 -0.00000000000E+00 -0.00000000000E+00 -0.45593999997E+02  0.45594000000E+02  0.51100000000E-03 0.  1.
    9900012    2    1    2    0    0 -0.46186978289E+01  0.19524512352E+01  0.18042632715E+02  0.72461520599E+02  0.69999935263E+02 0.  0.
        -12    1    1    2    0    0  0.46186978289E+01 -0.19524512352E+01 -0.18042632715E+02  0.18726479401E+02  0.00000000000E+00 0.  1.
         11    1    3    3    0    0 -0.80501761172E+01  0.13218554031E+02  0.23800323689E+02  0.28389979115E+02  0.51100000000E-03 0. -1.
        -11    1    3    3    0    0 -0.19088526788E+02 -0.65790749637E+01  0.62394408622E+00  0.20200133386E+02  0.51100000000E-03 0.  1.
        -12    1    3    3    0    0  0.22520005077E+02 -0.46870278323E+01 -0.63816350607E+01  0.23871408098E+02  0.00000000000E+00 0.  1.
</event>
<event>
 7    1  0.2655561E-013  0.7246152E+02  0.7816164E-02  0.1226708E+00
        -11   -1    0    0    0    0  0.00000000000E+00  0.00000000000E+00  0.45593999997E+02  0.45594000000E+02  0.51100000000E-03 0.  1.
         11   -1    0    0    0    0 -0.00000000000E+00 -0.00000000000E+00 -0.45593999997E+02  0.45594000000E+02  0.51100000000E-03 0. -1.
    9900012    2    1    2    0    0 -0.19672737078E+01  0.18283392627E+02 -0.35395698823E+01  0.72461516968E+02  0.69999930532E+02 0.  0.
        -12    1    1    2    0    0  0.19672737078E+01 -0.18283392627E+02  0.35395698823E+01  0.18726483032E+02  0.00000000000E+00 0.  1.
         11    1    3    3    0    0 -0.16563554940E+01  0.25878837525E+02 -0.39910687726E+01  0.26237118275E+02  0.51100000000E-03 0. -1.
        -11    1    3    3    0    0 -0.19775530985E+02 -0.27902167087E+00 -0.10849213370E+02  0.22557812612E+02  0.51100000000E-03 0.  1.
        -12    1    3    3    0    0  0.19464612771E+02 -0.73164232266E+01  0.11300712260E+02  0.23666586081E+02  0.00000000000E+00 0.  1.
</event>
<event>
 7    1  0.2655561E-013  0.7246148E+02  0.7816164E-02  0.1226708E+00
        -11   -1    0    0    0    0  0.00000000000E+00  0.00000000000E+00  0.45593999997E+02  0.45594000000E+02  0.51100000000E-03 0. -1.
         11   -1    0    0    0    0 -0.00000000000E+00 -0.00000000000E+00 -0.45593999997E+02  0.45594000000E+02  0.51100000000E-03 0.  1.
    9900012    2    1    2    0    0 -0.89246038404E+00 -0.11838359020E+02  0.14482384841E+02  0.72461476016E+02  0.69999877185E+02 0.  0.
        -12    1    1    2    0    0  0.89246038404E+00  0.11838359020E+02 -0.14482384841E+02  0.18726523984E+02  0.00000000000E+00 0.  1.
         11    1    3    3    0    0 -0.13355561529E+02 -0.17619205599E+02  0.17505395912E+01  0.22178183398E+02  0.51100000000E-03 0. -1.
        -11    1    3    3    0    0  0.91274177414E+01 -0.63946819576E+01 -0.15654545985E+02  0.19216308757E+02  0.51100000000E-03 0.  1.
        -12    1    3    3    0    0  0.33356834040E+01  0.12175528537E+02  0.28386391235E+02  0.31066983862E+02  0.00000000000E+00 0.  1.
</event>
<event>
 7    1  0.2655561E-013  0.7246156E+02  0.7816164E-02  0.1226708E+00
        -11   -1    0    0    0    0  0.00000000000E+00  0.00000000000E+00  0.45593999997E+02  0.45594000000E+02  0.51100000000E-03 0.  1.
         11   -1    0    0    0    0 -0.00000000000E+00 -0.00000000000E+00 -0.45593999997E+02  0.45594000000E+02  0.51100000000E-03 0. -1.
    9900012    2    1    2    0    0  0.11201824514E+02 -0.86889042189E+01 -0.12235265689E+02  0.72461557320E+02  0.69999983098E+02 0.  0.
        -12    1    1    2    0    0 -0.11201824514E+02  0.86889042189E+01  0.12235265689E+02  0.18726442680E+02  0.00000000000E+00 0.  1.
         11    1    3    3    0    0 -0.25413211383E+01 -0.73192324367E+01 -0.11420940386E+02  0.13800991129E+02  0.51100000000E-03 0. -1.
        -11    1    3    3    0    0  0.19674288995E+01 -0.19862449758E+02 -0.20919454551E+02  0.28913859408E+02  0.51100000000E-03 0.  1.
        -12    1    3    3    0    0  0.11775716753E+02  0.18492777976E+02  0.20105129248E+02  0.29746706782E+02  0.00000000000E+00 0.  1.
</event>
<event>
 7    1  0.2655561E-013  0.7246137E+02  0.7816164E-02  0.1226709E+00
        -11   -1    0    0    0    0  0.00000000000E+00  0.00000000000E+00  0.45593999997E+02  0.45594000000E+02  0.51100000000E-03 0.  1.
         11   -1    0    0    0    0 -0.00000000000E+00 -0.00000000000E+00 -0.45593999997E+02  0.45594000000E+02  0.51100000000E-03 0. -1.
    9900012    2    1    2    0    0 -0.18244926015E+02  0.17427231653E+01 -0.38434511605E+01  0.72461373872E+02  0.69999744123E+02 0.  0.
        -12    1    1    2    0    0  0.18244926015E+02 -0.17427231653E+01  0.38434511605E+01  0.18726626128E+02  0.00000000000E+00 0.  1.
         11    1    3    3    0    0 -0.31637068318E+01  0.70398120729E+01  0.12162587414E+01  0.78132759151E+01  0.51100000000E-03 0. -1.
        -11    1    3    3    0    0 -0.10837734908E+02  0.16502767380E+02  0.22053579018E+02  0.29599969205E+02  0.51100000000E-03 0.  1.
         12    1    3    3    0    0 -0.42434842749E+01 -0.21799856288E+02 -0.27113288920E+02  0.35048128752E+02  0.00000000000E+00 0. -1.
</event>
<event>
 7    1  0.2655561E-013  0.7246157E+02  0.7816164E-02  0.1226708E+00
        -11   -1    0    0    0    0  0.00000000000E+00  0.00000000000E+00  0.45593999997E+02  0.45594000000E+02  0.51100000000E-03 0. -1.
         11   -1    0    0    0    0 -0.00000000000E+00 -0.00000000000E+00 -0.45593999997E+02  0.45594000000E+02  0.51100000000E-03 0.  1.
    9900012    2    1    2    0    0 -0.10438657993E+02 -0.62384287119E+01  0.14240627301E+02  0.72461573768E+02  0.70000004526E+02 0.  0.
        -12    1    1    2    0    0  0.10438657993E+02  0.62384287119E+01 -0.14240627301E+02  0.18726426232E+02  0.00000000000E+00 0.  1.
         11    1    3    3    0    0 -0.71890432570E+01  0.20597384600E+02  0.27225305763E+02  0.34887703701E+02  0.51100000000E-03 0. -1.
        -11    1    3    3    0    0 -0.61721650514E+01  0.48962242647E+00 -0.71896612904E+01  0.94882338333E+01  0.51100000000E-03 0.  1.
        -12    1    3    3    0    0  0.29225503157E+01 -0.27325435739E+02 -0.57950171721E+01  0.28085636234E+02  0.00000000000E+00 0.  1.
</event>
<event>
 7    1  0.2655561E-013  0.7246153E+02  0.7816164E-02  0.1226708E+00
        -11   -1    0    0    0    0  0.00000000000E+00  0.00000000000E+00  0.45593999997E+02  0.45594000000E+02  0.51100000000E-03 0.  1.
         11   -1    0    0    0    0 -0.00000000000E+00 -0.00000000000E+00 -0.45593999997E+02  0.45594000000E+02  0.51100000000E-03 0. -1.
    9900012    2    1    2    0    0  0.94434917604E+01  0.84081990192E+01 -0.13813154079E+02  0.72461532822E+02  0.69999951185E+02 0.  0.
        -12    1    1    2    0    0 -0.94434917604E+01 -0.84081990192E+01  0.13813154079E+02  0.18726467178E+02  0.00000000000E+00 0.  1.
         11    1    3    3    0    0  0.24515852251E+02  0.12124434355E+02 -0.29709219463E+02  0.40381513609E+02  0.51100000000E-03 0. -1.
        -11    1    3    3    0    0 -0.74594448838E+01 -0.36329065210E+00 -0.54005859599E+01  0.92163781956E+01  0.51100000000E-03 0.  1.
        -12    1    3    3    0    0 -0.76129156070E+01 -0.33529446838E+01  0.21296651344E+02  0.22863641017E+02  0.00000000000E+00 0.  1.
</event>
<event>
 7    1  0.2655561E-013  0.7246165E+02  0.7816164E-02  0.1226708E+00
        -11   -1    0    0    0    0  0.00000000000E+00  0.00000000000E+00  0.45593999997E+02  0.45594000000E+02  0.51100000000E-03 0.  1.
         11   -1    0    0    0    0 -0.00000000000E+00 -0.00000000000E+00 -0.45593999997E+02  0.45594000000E+02  0.51100000000E-03 0. -1.
    9900012    2    1    2    0    0  0.37780596782E+01 -0.18325826051E+02 -0.75269160427E+00  0.72461650115E+02  0.70000103981E+02 0.  0.
        -12    1    1    2    0    0 -0.37780596782E+01  0.18325826051E+02  0.75269160427E+00  0.18726349885E+02  0.00000000000E+00 0.  1.
         11    1    3    3    0    0 -0.21238096911E+02 -0.80479362364E+01  0.56154092436E+01  0.23395701727E+02  0.51100000000E-03 0.  1.
        -11    1    3    3    0    0  0.12894153197E+02  0.15448077584E+02 -0.41096187045E+01  0.20537557154E+02  0.51100000000E-03 0. -1.
         12    1    3    3    0    0  0.12122003392E+02 -0.25725967398E+02 -0.22584821434E+01  0.28528391234E+02  0.00000000000E+00 0. -1.
</event>
<event>
 7    1  0.2655561E-013  0.7246157E+02  0.7816164E-02  0.1226708E+00
        -11   -1    0    0    0    0  0.00000000000E+00  0.00000000000E+00  0.45593999997E+02  0.45594000000E+02  0.51100000000E-03 0. -1.
         11   -1    0    0    0    0 -0.00000000000E+00 -0.00000000000E+00 -0.45593999997E+02  0.45594000000E+02  0.51100000000E-03 0.  1.
    9900012    2    1    2    0    0 -0.41762999262E+01  0.71408020047E+01  0.16800197659E+02  0.72461570129E+02  0.69999999784E+02 0.  0.
        -12    1    1    2    0    0  0.41762999262E+01 -0.71408020047E+01 -0.16800197659E+02  0.18726429871E+02  0.00000000000E+00 0.  1.
         11    1    3    3    0    0  0.14869437654E+02  0.14185065113E+02  0.86322041562E+01  0.22289710569E+02  0.51100000000E-03 0. -1.
        -11    1    3    3    0    0 -0.25259144683E+01 -0.22405949951E+02 -0.62516615598E+01  0.23398506568E+02  0.51100000000E-03 0.  1.
        -12    1    3    3    0    0 -0.16519823112E+02  0.15361686842E+02  0.14419655062E+02  0.26773352992E+02  0.00000000000E+00 0.  1.
</event>
<event>
 7    1  0.2655561E-013  0.7246161E+02  0.7816164E-02  0.1226708E+00
        -11   -1    0    0    0    0  0.00000000000E+00  0.00000000000E+00  0.45593999997E+02  0.45594000000E+02  0.51100000000E-03 0. -1.
         11   -1    0    0    0    0 -0.00000000000E+00 -0.00000000000E+00 -0.45593999997E+02  0.45594000000E+02  0.51100000000E-03 0.  1.
    9900012    2    1    2    0    0 -0.12894048022E+02  0.37970619308E+01  0.13038538761E+02  0.72461610954E+02  0.70000052966E+02 0.  0.
        -12    1    1    2    0    0  0.12894048022E+02 -0.37970619308E+01 -0.13038538761E+02  0.18726389046E+02  0.00000000000E+00 0.  1.
         11    1    3    3    0    0  0.80209063375E+01 -0.16632776976E+02  0.23234955227E+01  0.18611363198E+02  0.51100000000E-03 0. -1.
        -11    1    3    3    0    0  0.76267022808E+01  0.33319057500E+01 -0.11241627214E+02  0.13987221536E+02  0.51100000000E-03 0.  1.
         12    1    3    3    0    0 -0.28541656640E+02  0.17097933156E+02  0.21956670453E+02  0.39863026219E+02  0.00000000000E+00 0. -1.
</event>
<event>
 7    1  0.2655561E-013  0.7246162E+02  0.7816164E-02  0.1226708E+00
        -11   -1    0    0    0    0  0.00000000000E+00  0.00000000000E+00  0.45593999997E+02  0.45594000000E+02  0.51100000000E-03 0.  1.
         11   -1    0    0    0    0 -0.00000000000E+00 -0.00000000000E+00 -0.45593999997E+02  0.45594000000E+02  0.51100000000E-03 0. -1.
    9900012    2    1    2    0    0  0.16306874298E+02  0.23909167865E+01 -0.88908268903E+01  0.72461616600E+02  0.70000060321E+02 0.  0.
        -12    1    1    2    0    0 -0.16306874298E+02 -0.23909167865E+01  0.88908268903E+01  0.18726383400E+02  0.00000000000E+00 0.  1.
         11    1    3    3    0    0  0.26840843358E+02  0.12735216329E+02 -0.62663919375E+01  0.30362547246E+02  0.51100000000E-03 0. -1.
        -11    1    3    3    0    0 -0.67575806608E+01 -0.92138917696E+01 -0.20675388955E+02  0.23622709553E+02  0.51100000000E-03 0.  1.
        -12    1    3    3    0    0 -0.37763883983E+01 -0.11304077725E+01  0.18050954003E+02  0.18476359800E+02  0.00000000000E+00 0.  1.
</event>
<event>
 7    1  0.2655561E-013  0.7246158E+02  0.7816164E-02  0.1226708E+00
        -11   -1    0    0    0    0  0.00000000000E+00  0.00000000000E+00  0.45593999997E+02  0.45594000000E+02  0.51100000000E-03 0.  1.
         11   -1    0    0    0    0 -0.00000000000E+00 -0.00000000000E+00 -0.45593999997E+02  0.45594000000E+02  0.51100000000E-03 0. -1.
    9900012    2    1    2    0    0  0.16839034292E+02 -0.65335872029E+01 -0.49434955748E+01  0.72461575191E+02  0.70000006378E+02 0.  0.
        -12    1    1    2    0    0 -0.16839034292E+02  0.65335872029E+01  0.49434955748E+01  0.18726424809E+02  0.00000000000E+00 0.  1.
         11    1    3    3    0    0  0.16751040973E+02 -0.20156346317E+02 -0.10185458386E+02  0.28117952154E+02  0.51100000000E-03 0. -1.
        -11    1    3    3    0    0 -0.10935251034E+02 -0.97045303320E+01 -0.64956867128E+01  0.15998486499E+02  0.51100000000E-03 0.  1.
        -12    1    3    3    0    0  0.11023244353E+02  0.23327289446E+02  0.11737649524E+02  0.28345136538E+02  0.00000000000E+00 0.  1.
</event>
<event>
 7    1  0.2655561E-013  0.7246166E+02  0.7816164E-02  0.1226708E+00
        -11   -1    0    0    0    0  0.00000000000E+00  0.00000000000E+00  0.45593999997E+02  0.45594000000E+02  0.51100000000E-03 0. -1.
         11   -1    0    0    0    0 -0.00000000000E+00 -0.00000000000E+00 -0.45593999997E+02  0.45594000000E+02  0.51100000000E-03 0.  1.
    9900012    2    1    2    0    0 -0.17456497718E+02  0.67776639757E+01 -0.98498374551E-01  0.72461661770E+02  0.70000119164E+02 0.  0.
        -12    1    1    2    0    0  0.17456497718E+02 -0.67776639757E+01  0.98498374551E-01  0.18726338230E+02  0.00000000000E+00 0.  1.
         11    1    3    3    0    0 -0.52488458145E+01  0.48937824841E+01  0.17751249151E+02  0.19146966759E+02  0.51100000000E-03 0. -1.
        -11    1    3    3    0    0 -0.27478127312E+02  0.56787777934E+01  0.18293370422E+01  0.28118365387E+02  0.51100000000E-03 0.  1.
        -12    1    3    3    0    0  0.15270475408E+02 -0.37948963018E+01 -0.19679084568E+02  0.25196329624E+02  0.00000000000E+00 0.  1.
</event>
<event>
 7    1  0.2655561E-013  0.7246172E+02  0.7816164E-02  0.1226708E+00
        -11   -1    0    0    0    0  0.00000000000E+00  0.00000000000E+00  0.45593999997E+02  0.45594000000E+02  0.51100000000E-03 0.  1.
         11   -1    0    0    0    0 -0.00000000000E+00 -0.00000000000E+00 -0.45593999997E+02  0.45594000000E+02  0.51100000000E-03 0. -1.
    9900012    2    1    2    0    0  0.14852406496E+02 -0.25075704409E+00 -0.11402482762E+02  0.72461722448E+02  0.70000198208E+02 0.  0.
        -12    1    1    2    0    0 -0.14852406496E+02  0.25075704409E+00  0.11402482762E+02  0.18726277552E+02  0.00000000000E+00 0.  1.
         11    1    3    3    0    0 -0.12234648841E+02 -0.13869848692E+02 -0.13041110200E+02  0.22630287018E+02  0.51100000000E-03 0. -1.
        -11    1    3    3    0    0  0.29416843236E+02  0.12299636940E+01 -0.11513249876E+02  0.31613579355E+02  0.51100000000E-03 0.  1.
        -12    1    3    3    0    0 -0.23297878992E+01  0.12389127954E+02  0.13151877313E+02  0.18217856075E+02  0.00000000000E+00 0.  1.
</event>
<event>
 7    1  0.3077286E-013  0.7246160E+02  0.7816164E-02  0.1226708E+00
        -11   -1    0    0    0    0  0.00000000000E+00  0.00000000000E+00  0.45593999997E+02  0.45594000000E+02  0.51100000000E-03 0.  1.
         11   -1    0    0    0    0 -0.00000000000E+00 -0.00000000000E+00 -0.45593999997E+02  0.45594000000E+02  0.51100000000E-03 0. -1.
    9900012    2    1    2    0    0  0.18675190715E+02 -0.40917057726E+00  0.13220969109E+01  0.72461598609E+02  0.70000036885E+02 0.  0.
        -12    1    1    2    0    0 -0.18675190715E+02  0.40917057726E+00 -0.13220969109E+01  0.18726401391E+02  0.00000000000E+00 0.  1.
         11    1    3    3    0    0  0.20592720300E+02  0.89109597675E+01 -0.15732471474E+02  0.27403941181E+02  0.51100000000E-03 0. -1.
        -11    1    3    3    0    0  0.21842716758E+01  0.15372679397E+02  0.11746823929E+02  0.19469930336E+02  0.51100000000E-03 0.  1.
        -12    1    3    3    0    0 -0.41018012605E+01 -0.24692809742E+02  0.53077444556E+01  0.25587727092E+02  0.00000000000E+00 0.  1.
</event>
<event>
 7    1  0.2655561E-013  0.7246158E+02  0.7816164E-02  0.1226708E+00
        -11   -1    0    0    0    0  0.00000000000E+00  0.00000000000E+00  0.45593999997E+02  0.45594000000E+02  0.51100000000E-03 0.  1.
         11   -1    0    0    0    0 -0.00000000000E+00 -0.00000000000E+00 -0.45593999997E+02  0.45594000000E+02  0.51100000000E-03 0. -1.
    9900012    2    1    2    0    0  0.58061186783E+01  0.17670527014E+02 -0.21726133662E+01  0.72461580484E+02  0.70000013274E+02 0.  0.
        -12    1    1    2    0    0 -0.58061186783E+01 -0.17670527014E+02  0.21726133662E+01  0.18726419516E+02  0.00000000000E+00 0.  1.
         11    1    3    3    0    0  0.72771935689E+01 -0.72269318599E+01 -0.11483516919E+02  0.15396663646E+02  0.51100000000E-03 0. -1.
        -11    1    3    3    0    0  0.22083730478E+02  0.23985020992E+02  0.35289124721E+01  0.32793682430E+02  0.51100000000E-03 0.  1.
        -12    1    3    3    0    0 -0.23554805368E+02  0.91243788178E+00  0.57819910807E+01  0.24271234408E+02  0.00000000000E+00 0.  1.
</event>
<event>
 7    1  0.2655561E-013  0.7246155E+02  0.7816164E-02  0.1226708E+00
        -11   -1    0    0    0    0  0.00000000000E+00  0.00000000000E+00  0.45593999997E+02  0.45594000000E+02  0.51100000000E-03 0. -1.
         11   -1    0    0    0    0 -0.00000000000E+00 -0.00000000000E+00 -0.45593999997E+02  0.45594000000E+02  0.51100000000E-03 0.  1.
    9900012    2    1    2    0    0 -0.57493287151E+01 -0.35043571187E+01  0.17474116086E+02  0.72461547253E+02  0.69999969984E+02 0.  0.
        -12    1    1    2    0    0  0.57493287151E+01  0.35043571187E+01 -0.17474116086E+02  0.18726452747E+02  0.00000000000E+00 0.  1.
         11    1    3    3    0    0 -0.61013615927E+01 -0.10046137753E+02  0.14869798151E+02  0.18954218378E+02  0.51100000000E-03 0. -1.
        -11    1    3    3    0    0 -0.10794744489E+02 -0.11210589250E+02  0.20643171037E+02  0.25852356385E+02  0.51100000000E-03 0.  1.
        -12    1    3    3    0    0  0.11146777367E+02  0.17752369884E+02 -0.18038853102E+02  0.27654972490E+02  0.00000000000E+00 0.  1.
</event>
<event>
 7    1  0.2655561E-013  0.7246156E+02  0.7816164E-02  0.1226708E+00
        -11   -1    0    0    0    0  0.00000000000E+00  0.00000000000E+00  0.45593999997E+02  0.45594000000E+02  0.51100000000E-03 0.  1.
         11   -1    0    0    0    0 -0.00000000000E+00 -0.00000000000E+00 -0.45593999997E+02  0.45594000000E+02  0.51100000000E-03 0. -1.
    9900012    2    1    2    0    0  0.49168355375E+00  0.15404333667E+02 -0.10636929744E+02  0.72461560861E+02  0.69999987712E+02 0.  0.
        -12    1    1    2    0    0 -0.49168355375E+00 -0.15404333667E+02  0.10636929744E+02  0.18726439139E+02  0.00000000000E+00 0.  1.
         11    1    3    3    0    0 -0.10508620678E+01 -0.37278860909E+01 -0.57046054262E+01  0.68952134936E+01  0.51100000000E-03 0. -1.
        -11    1    3    3    0    0  0.29069762092E+02  0.11043029939E+02  0.10708608109E+02  0.32888810654E+02  0.51100000000E-03 0.  1.
         12    1    3    3    0    0 -0.27527216470E+02  0.80891898185E+01 -0.15640932427E+02  0.32677536714E+02  0.00000000000E+00 0. -1.
</event>
<event>
 7    1  0.2655561E-013  0.7246159E+02  0.7816164E-02  0.1226708E+00
        -11   -1    0    0    0    0  0.00000000000E+00  0.00000000000E+00  0.45593999997E+02  0.45594000000E+02  0.51100000000E-03 0.  1.
         11   -1    0    0    0    0 -0.00000000000E+00 -0.00000000000E+00 -0.45593999997E+02  0.45594000000E+02  0.51100000000E-03 0. -1.
    9900012    2    1    2    0    0 -0.42623388882E+01  0.17854022080E+02 -0.37073829033E+01  0.72461592838E+02  0.70000029367E+02 0.  0.
        -12    1    1    2    0    0  0.42623388882E+01 -0.17854022080E+02  0.37073829033E+01  0.18726407162E+02  0.00000000000E+00 0.  1.
         11    1    3    3    0    0  0.20692284398E+02  0.11194770463E+02 -0.16867319374E+02  0.28948229349E+02  0.51100000000E-03 0. -1.
        -11    1    3    3    0    0  0.55469142659E+01  0.91918262353E+01  0.49676691203E+01  0.11829440568E+02  0.51100000000E-03 0.  1.
         12    1    3    3    0    0 -0.30501537552E+02 -0.25325746185E+01  0.81922673500E+01  0.31683922920E+02  0.00000000000E+00 0. -1.
</event>
<event>
 7    1  0.2655561E-013  0.7246163E+02  0.7816164E-02  0.1226708E+00
        -11   -1    0    0    0    0  0.00000000000E+00  0.00000000000E+00  0.45593999997E+02  0.45594000000E+02  0.51100000000E-03 0. -1.
         11   -1    0    0    0    0 -0.00000000000E+00 -0.00000000000E+00 -0.45593999997E+02  0.45594000000E+02  0.51100000000E-03 0.  1.
    9900012    2    1    2    0    0  0.75325063042E+01 -0.15357614138E+02  0.76211566985E+01  0.72461628417E+02  0.70000075716E+02 0.  0.
        -12    1    1    2    0    0 -0.75325063042E+01  0.15357614138E+02 -0.76211566985E+01  0.18726371583E+02  0.00000000000E+00 0.  1.
         11    1    3    3    0    0 -0.52203143663E+01  0.68487796016E+01  0.19233520666E+02  0.21073342915E+02  0.51100000000E-03 0. -1.
        -11    1    3    3    0    0  0.11440983113E+02  0.98300207225E+01  0.41721334667E+01  0.15650306704E+02  0.51100000000E-03 0.  1.
        -12    1    3    3    0    0  0.13118375572E+01 -0.32036414462E+02 -0.15784497434E+02  0.35737978799E+02  0.00000000000E+00 0.  1.
</event>
<event>
 7    1  0.2655561E-013  0.7246158E+02  0.7816164E-02  0.1226708E+00
        -11   -1    0    0    0    0  0.00000000000E+00  0.00000000000E+00  0.45593999997E+02  0.45594000000E+02  0.51100000000E-03 0.  1.
         11   -1    0    0    0    0 -0.00000000000E+00 -0.00000000000E+00 -0.45593999997E+02  0.45594000000E+02  0.51100000000E-03 0. -1.
    9900012    2    1    2    0    0  0.98879165677E+00 -0.18554822943E+02 -0.23280238056E+01  0.72461578606E+02  0.70000010827E+02 0.  0.
        -12    1    1    2    0    0 -0.98879165677E+00  0.18554822943E+02  0.23280238056E+01  0.18726421394E+02  0.00000000000E+00 0.  1.
         11    1    3    3    0    0 -0.70285873071E+00  0.10342344864E+02  0.94134397074E+01  0.14002533880E+02  0.51100000000E-03 0. -1.
        -11    1    3    3    0    0 -0.18069861123E+00  0.72327891493E+01 -0.20070062358E+02  0.21334321976E+02  0.51100000000E-03 0.  1.
         12    1    3    3    0    0  0.18723489987E+01 -0.36129956957E+02  0.83285988451E+01  0.37124722749E+02  0.00000000000E+00 0. -1.
</event>
<event>
 7    1  0.2655561E-013  0.7246157E+02  0.7816164E-02  0.1226708E+00
        -11   -1    0    0    0    0  0.00000000000E+00  0.00000000000E+00  0.45593999997E+02  0.45594000000E+02  0.51100000000E-03 0.  1.
         11   -1    0    0    0    0 -0.00000000000E+00 -0.00000000000E+00 -0.45593999997E+02  0.45594000000E+02  0.51100000000E-03 0. -1.
    9900012    2    1    2    0    0  0.14558589038E+02  0.98809168809E+01 -0.64104575988E+01  0.72461574825E+02  0.70000005902E+02 0.  0.
        -12    1    1    2    0    0 -0.14558589038E+02 -0.98809168809E+01  0.64104575988E+01  0.18726425175E+02  0.00000000000E+00 0.  1.
         11    1    3    3    0    0  0.18964019139E+01  0.74063851222E+00  0.29694630463E+01  0.36003606304E+01  0.51100000000E-03 0. -1.
        -11    1    3    3    0    0  0.21909904944E+01  0.14922104030E+02  0.26801586555E+02  0.30753774893E+02  0.51100000000E-03 0.  1.
         12    1    3    3    0    0  0.10471196630E+02 -0.57818256613E+01 -0.36181507200E+02  0.38107439302E+02  0.00000000000E+00 0. -1.
</event>
<event>
 7    1  0.2655561E-013  0.7246155E+02  0.7816164E-02  0.1226708E+00
        -11   -1    0    0    0    0  0.00000000000E+00  0.00000000000E+00  0.45593999997E+02  0.45594000000E+02  0.51100000000E-03 0.  1.
         11   -1    0    0    0    0 -0.00000000000E+00 -0.00000000000E+00 -0.45593999997E+02  0.45594000000E+02  0.51100000000E-03 0. -1.
    9900012    2    1    2    0    0  0.16443701313E+02  0.33248549160E+01 -0.83204457867E+01  0.72461553696E+02  0.69999978377E+02 0.  0.
        -12    1    1    2    0    0 -0.16443701313E+02 -0.33248549160E+01  0.83204457867E+01  0.18726446304E+02  0.00000000000E+00 0.  1.
         11    1    3    3    0    0 -0.49355578360E+01 -0.21172413737E+02 -0.21012313019E+02  0.30234882723E+02  0.51100000000E-03 0. -1.
        -11    1    3    3    0    0  0.26771842211E+01 -0.41249556418E+01  0.53308539790E+01  0.72526256491E+01  0.51100000000E-03 0.  1.
        -12    1    3    3    0    0  0.18702074928E+02  0.28622224295E+02  0.73610132532E+01  0.34974045324E+02  0.00000000000E+00 0.  1.
</event>
<event>
 7    1  0.2655561E-013  0.7246158E+02  0.7816164E-02  0.1226708E+00
        -11   -1    0    0    0    0  0.00000000000E+00  0.00000000000E+00  0.45593999997E+02  0.45594000000E+02  0.51100000000E-03 0.  1.
         11   -1    0    0    0    0 -0.00000000000E+00 -0.00000000000E+00 -0.45593999997E+02  0.45594000000E+02  0.51100000000E-03 0. -1.
    9900012    2    1    2    0    0  0.75030986375E+01  0.74476603760E+01  0.15456864931E+02  0.72461579954E+02  0.70000012584E+02 0.  0.
        -12    1    1    2    0    0 -0.75030986375E+01 -0.74476603760E+01 -0.15456864931E+02  0.18726420046E+02  0.00000000000E+00 0.  1.
         11    1    3    3    0    0  0.44033360661E+01  0.16249068983E+02  0.95171775579E+01  0.19339035143E+02  0.51100000000E-03 0. -1.
        -11    1    3    3    0    0 -0.20532147596E+02 -0.50821471737E+01  0.16643076009E+02  0.26914480937E+02  0.51100000000E-03 0.  1.
         12    1    3    3    0    0  0.23631910167E+02 -0.37192614330E+01 -0.10703388636E+02  0.26208063875E+02  0.00000000000E+00 0. -1.
</event>
<event>
 7    1  0.2655561E-013  0.7246184E+02  0.7816164E-02  0.1226707E+00
        -11   -1    0    0    0    0  0.00000000000E+00  0.00000000000E+00  0.45593999997E+02  0.45594000000E+02  0.51100000000E-03 0.  1.
         11   -1    0    0    0    0 -0.00000000000E+00 -0.00000000000E+00 -0.45593999997E+02  0.45594000000E+02  0.51100000000E-03 0. -1.
    9900012    2    1    2    0    0 -0.82527410072E+01 -0.70528628865E+01  0.15258386687E+02  0.72461842537E+02  0.70000354646E+02 0.  0.
        -12    1    1    2    0    0  0.82527410072E+01  0.70528628865E+01 -0.15258386687E+02  0.18726157463E+02  0.00000000000E+00 0.  1.
         11    1    3    3    0    0  0.91285987807E+01 -0.67220356629E+01  0.30687104233E+01  0.11744533327E+02  0.51100000000E-03 0. -1.
        -11    1    3    3    0    0 -0.12900750359E+02 -0.18414629900E+02  0.28260176973E+02  0.36113232436E+02  0.51100000000E-03 0.  1.
         12    1    3    3    0    0 -0.44805894288E+01  0.18083802676E+02 -0.16070500709E+02  0.24604076774E+02  0.00000000000E+00 0. -1.
</event>
<event>
 7    1  0.2655561E-013  0.7246158E+02  0.7816164E-02  0.1226708E+00
        -11   -1    0    0    0    0  0.00000000000E+00  0.00000000000E+00  0.45593999997E+02  0.45594000000E+02  0.51100000000E-03 0.  1.
         11   -1    0    0    0    0 -0.00000000000E+00 -0.00000000000E+00 -0.45593999997E+02  0.45594000000E+02  0.51100000000E-03 0. -1.
    9900012    2    1    2    0    0  0.18424848849E+02  0.13238921469E+00 -0.33446029690E+01  0.72461576128E+02  0.70000007600E+02 0.  0.
        -12    1    1    2    0    0 -0.18424848849E+02 -0.13238921469E+00  0.33446029690E+01  0.18726423872E+02  0.00000000000E+00 0.  1.
         11    1    3    3    0    0  0.18249165726E+02 -0.91394749577E+01 -0.22340228840E+02  0.30259674107E+02  0.51100000000E-03 0. -1.
        -11    1    3    3    0    0 -0.91781485161E+01 -0.92391196021E+01 -0.14191215411E+01  0.13100139214E+02  0.51100000000E-03 0.  1.
        -12    1    3    3    0    0  0.93538316387E+01  0.18510983775E+02  0.20414747412E+02  0.29101762808E+02  0.00000000000E+00 0.  1.
</event>
<event>
 7    1  0.3083263E-013  0.7246154E+02  0.7816164E-02  0.1226708E+00
        -11   -1    0    0    0    0  0.00000000000E+00  0.00000000000E+00  0.45593999997E+02  0.45594000000E+02  0.51100000000E-03 0. -1.
         11   -1    0    0    0    0 -0.00000000000E+00 -0.00000000000E+00 -0.45593999997E+02  0.45594000000E+02  0.51100000000E-03 0.  1.
    9900012    2    1    2    0    0 -0.17705721355E+01 -0.60308945398E+01  0.17640114141E+02  0.72461541671E+02  0.69999962713E+02 0.  0.
        -12    1    1    2    0    0  0.17705721355E+01  0.60308945398E+01 -0.17640114141E+02  0.18726458329E+02  0.00000000000E+00 0.  1.
         11    1    3    3    0    0 -0.26677615478E+01  0.80592599355E+01  0.37447501490E+01  0.92785654238E+01  0.51100000000E-03 0. -1.
        -11    1    3    3    0    0 -0.64800920316E+01  0.19531362302E+01 -0.22087320644E+02  0.23100997107E+02  0.51100000000E-03 0.  1.
         12    1    3    3    0    0  0.73772814439E+01 -0.16043290705E+02  0.35982684636E+02  0.40081979140E+02  0.00000000000E+00 0. -1.
</event>
<event>
 7    1  0.2655561E-013  0.7246172E+02  0.7816164E-02  0.1226708E+00
        -11   -1    0    0    0    0  0.00000000000E+00  0.00000000000E+00  0.45593999997E+02  0.45594000000E+02  0.51100000000E-03 0.  1.
         11   -1    0    0    0    0 -0.00000000000E+00 -0.00000000000E+00 -0.45593999997E+02  0.45594000000E+02  0.51100000000E-03 0. -1.
    9900012    2    1    2    0    0  0.37762124093E+01 -0.17372085601E+02 -0.58842399323E+01  0.72461723866E+02  0.70000200055E+02 0.  0.
        -12    1    1    2    0    0 -0.37762124093E+01  0.17372085601E+02  0.58842399323E+01  0.18726276134E+02  0.00000000000E+00 0.  1.
         11    1    3    3    0    0  0.53783057011E+01 -0.99040091040E+00 -0.92341656777E+00  0.55461486274E+01  0.51100000000E-03 0. -1.
        -11    1    3    3    0    0  0.23405001522E+01 -0.75778205181E+01  0.29801956339E+02  0.30839226752E+02  0.51100000000E-03 0.  1.
         12    1    3    3    0    0 -0.39425934440E+01 -0.88038641723E+01 -0.34762779703E+02  0.36076348487E+02  0.00000000000E+00 0. -1.
</event>
<event>
 7    1  0.2655561E-013  0.7246151E+02  0.7816164E-02  0.1226708E+00
        -11   -1    0    0    0    0  0.00000000000E+00  0.00000000000E+00  0.45593999997E+02  0.45594000000E+02  0.51100000000E-03 0.  1.
         11   -1    0    0    0    0 -0.00000000000E+00 -0.00000000000E+00 -0.45593999997E+02  0.45594000000E+02  0.51100000000E-03 0. -1.
    9900012    2    1    2    0    0 -0.56382344176E+00 -0.18203792659E+02 -0.43572223375E+01  0.72461512060E+02  0.69999924139E+02 0.  0.
        -12    1    1    2    0    0  0.56382344176E+00  0.18203792659E+02  0.43572223375E+01  0.18726487940E+02  0.00000000000E+00 0.  1.
         11    1    3    3    0    0  0.99162865587E+01  0.14357438568E+01 -0.23224802291E+02  0.25293982313E+02  0.51100000000E-03 0. -1.
        -11    1    3    3    0    0  0.85154173496E+01  0.13999288550E+01 -0.51198366784E+01  0.10034184636E+02  0.51100000000E-03 0.  1.
        -12    1    3    3    0    0 -0.18995527350E+02 -0.21039465371E+02  0.23987416632E+02  0.37133345111E+02  0.00000000000E+00 0.  1.
</event>
<event>
 7    1  0.2655561E-013  0.7246159E+02  0.7816164E-02  0.1226708E+00
        -11   -1    0    0    0    0  0.00000000000E+00  0.00000000000E+00  0.45593999997E+02  0.45594000000E+02  0.51100000000E-03 0. -1.
         11   -1    0    0    0    0 -0.00000000000E+00 -0.00000000000E+00 -0.45593999997E+02  0.45594000000E+02  0.51100000000E-03 0.  1.
    9900012    2    1    2    0    0  0.14712197890E+02 -0.10778964437E+02 -0.42477666518E+01  0.72461591839E+02  0.70000028066E+02 0.  0.
        -12    1    1    2    0    0 -0.14712197890E+02  0.10778964437E+02  0.42477666518E+01  0.18726408161E+02  0.00000000000E+00 0.  1.
         11    1    3    3    0    0 -0.11346289066E+02 -0.27403700295E+02 -0.44122421199E+01  0.29986145904E+02  0.51100000000E-03 0. -1.
        -11    1    3    3    0    0  0.95421594473E+01 -0.77108135860E+01  0.37935881760E+01  0.12841369264E+02  0.51100000000E-03 0.  1.
        -12    1    3    3    0    0  0.16516327508E+02  0.24335549444E+02 -0.36291127080E+01  0.29634076671E+02  0.00000000000E+00 0.  1.
</event>
<event>
 7    1  0.2655561E-013  0.7246160E+02  0.7816164E-02  0.1226708E+00
        -11   -1    0    0    0    0  0.00000000000E+00  0.00000000000E+00  0.45593999997E+02  0.45594000000E+02  0.51100000000E-03 0.  1.
         11   -1    0    0    0    0 -0.00000000000E+00 -0.00000000000E+00 -0.45593999997E+02  0.45594000000E+02  0.51100000000E-03 0. -1.
    9900012    2    1    2    0    0 -0.61300679678E+01  0.12749976007E+02 -0.12269410836E+02  0.72461599819E+02  0.70000038462E+02 0.  0.
        -12    1    1    2    0    0  0.61300679678E+01 -0.12749976007E+02  0.12269410836E+02  0.18726400181E+02  0.00000000000E+00 0.  1.
         11    1    3    3    0    0 -0.20513957870E+02  0.22214974324E+02 -0.75743650956E+01  0.31172079792E+02  0.51100000000E-03 0. -1.
        -11    1    3    3    0    0 -0.65578293436E+01 -0.50060538973E+00  0.11563353284E+02  0.13302889569E+02  0.51100000000E-03 0.  1.
         12    1    3    3    0    0  0.20941719246E+02 -0.89643929275E+01 -0.16258399024E+02  0.27986630457E+02  0.00000000000E+00 0. -1.
</event>
<event>
 7    1  0.2655561E-013  0.7246157E+02  0.7816164E-02  0.1226708E+00
        -11   -1    0    0    0    0  0.00000000000E+00  0.00000000000E+00  0.45593999997E+02  0.45594000000E+02  0.51100000000E-03 0.  1.
         11   -1    0    0    0    0 -0.00000000000E+00 -0.00000000000E+00 -0.45593999997E+02  0.45594000000E+02  0.51100000000E-03 0. -1.
    9900012    2    1    2    0    0 -0.10548392198E+02  0.12458729123E+02  0.91755402694E+01  0.72461573524E+02  0.70000004208E+02 0.  0.
        -12    1    1    2    0    0  0.10548392198E+02 -0.12458729123E+02 -0.91755402694E+01  0.18726426476E+02  0.00000000000E+00 0.  1.
         11    1    3    3    0    0  0.95093208344E+01  0.20092606371E+02  0.17391693254E+02  0.28224298184E+02  0.51100000000E-03 0. -1.
        -11    1    3    3    0    0 -0.12932785600E+00 -0.10858704659E+02  0.11641381921E+02  0.15920111992E+02  0.51100000000E-03 0.  1.
         12    1    3    3    0    0 -0.19928385176E+02  0.32248274115E+01 -0.19857534905E+02  0.28317163348E+02  0.00000000000E+00 0. -1.
</event>
<event>
 7    1  0.2655561E-013  0.7246153E+02  0.7816164E-02  0.1226708E+00
        -11   -1    0    0    0    0  0.00000000000E+00  0.00000000000E+00  0.45593999997E+02  0.45594000000E+02  0.51100000000E-03 0.  1.
         11   -1    0    0    0    0 -0.00000000000E+00 -0.00000000000E+00 -0.45593999997E+02  0.45594000000E+02  0.51100000000E-03 0. -1.
    9900012    2    1    2    0    0 -0.14497289934E+02  0.10660714715E+01  0.11805617137E+02  0.72461534242E+02  0.69999953035E+02 0.  0.
        -12    1    1    2    0    0  0.14497289934E+02 -0.10660714715E+01 -0.11805617137E+02  0.18726465758E+02  0.00000000000E+00 0.  1.
         11    1    3    3    0    0 -0.96842413879E+01 -0.16497274366E+02  0.13290356281E+02  0.23293307260E+02  0.51100000000E-03 0. -1.
        -11    1    3    3    0    0  0.15089054421E+02 -0.77334372652E+01 -0.77586146965E+00  0.16973142801E+02  0.51100000000E-03 0.  1.
        -12    1    3    3    0    0 -0.19902102967E+02  0.25296783103E+02 -0.70887767507E+00  0.32195084181E+02  0.00000000000E+00 0.  1.
</event>
<event>
 7    1  0.2655561E-013  0.7246157E+02  0.7816164E-02  0.1226708E+00
        -11   -1    0    0    0    0  0.00000000000E+00  0.00000000000E+00  0.45593999997E+02  0.45594000000E+02  0.51100000000E-03 0. -1.
         11   -1    0    0    0    0 -0.00000000000E+00 -0.00000000000E+00 -0.45593999997E+02  0.45594000000E+02  0.51100000000E-03 0.  1.
    9900012    2    1    2    0    0 -0.12502119449E+02  0.35792369300E+01  0.13474613012E+02  0.72461571522E+02  0.70000001599E+02 0.  0.
        -12    1    1    2    0    0  0.12502119449E+02 -0.35792369300E+01 -0.13474613012E+02  0.18726428478E+02  0.00000000000E+00 0.  1.
         11    1    3    3    0    0 -0.19727566210E+02  0.21004798660E+02 -0.53668439468E+01  0.29311797105E+02  0.51100000000E-03 0. -1.
        -11    1    3    3    0    0  0.32032427692E+01  0.10107585775E+02  0.25477554142E+01  0.10904820601E+02  0.51100000000E-03 0.  1.
        -12    1    3    3    0    0  0.40222039919E+01 -0.27533147505E+02  0.16293701545E+02  0.32244953815E+02  0.00000000000E+00 0.  1.
</event>
<event>
 7    1  0.2655561E-013  0.7246142E+02  0.7816164E-02  0.1226708E+00
        -11   -1    0    0    0    0  0.00000000000E+00  0.00000000000E+00  0.45593999997E+02  0.45594000000E+02  0.51100000000E-03 0. -1.
         11   -1    0    0    0    0 -0.00000000000E+00 -0.00000000000E+00 -0.45593999997E+02  0.45594000000E+02  0.51100000000E-03 0.  1.
    9900012    2    1    2    0    0  0.15627586801E+02 -0.10027651664E+02  0.24309243536E+01  0.72461423689E+02  0.69999809020E+02 0.  0.
        -12    1    1    2    0    0 -0.15627586801E+02  0.10027651664E+02 -0.24309243536E+01  0.18726576311E+02  0.00000000000E+00 0.  1.
         11    1    3    3    0    0  0.84345596709E+01  0.25602208807E+02  0.48553068367E+01  0.27389576437E+02  0.51100000000E-03 0. -1.
        -11    1    3    3    0    0  0.14768341428E+02 -0.12473930656E+02  0.42865289246E+01  0.19800938994E+02  0.51100000000E-03 0.  1.
        -12    1    3    3    0    0 -0.75753142981E+01 -0.23155929815E+02 -0.67109114077E+01  0.25270908259E+02  0.00000000000E+00 0.  1.
</event>
<event>
 7    1  0.2655561E-013  0.7246162E+02  0.7816164E-02  0.1226708E+00
        -11   -1    0    0    0    0  0.00000000000E+00  0.00000000000E+00  0.45593999997E+02  0.45594000000E+02  0.51100000000E-03 0.  1.
         11   -1    0    0    0    0 -0.00000000000E+00 -0.00000000000E+00 -0.45593999997E+02  0.45594000000E+02  0.51100000000E-03 0. -1.
    9900012    2    1    2    0    0 -0.10381247230E+01  0.54763972157E+01 -0.17877606917E+02  0.72461615980E+02  0.70000059514E+02 0.  0.
        -12    1    1    2    0    0  0.10381247230E+01 -0.54763972157E+01  0.17877606917E+02  0.18726384020E+02  0.00000000000E+00 0.  1.
         11    1    3    3    0    0  0.61812924095E+01  0.85627206616E+01  0.76939484593E+00  0.10588698205E+02  0.51100000000E-03 0. -1.
        -11    1    3    3    0    0 -0.58070204639E+01  0.20817085296E+02  0.10602172987E+02  0.24072361729E+02  0.51100000000E-03 0.  1.
         12    1    3    3    0    0 -0.14123966686E+01 -0.23903408742E+02 -0.29249174750E+02  0.37800556046E+02  0.00000000000E+00 0. -1.
</event>
<event>
 7    1  0.2655561E-013  0.7246163E+02  0.7816164E-02  0.1226708E+00
        -11   -1    0    0    0    0  0.00000000000E+00  0.00000000000E+00  0.45593999997E+02  0.45594000000E+02  0.51100000000E-03 0. -1.
         11   -1    0    0    0    0 -0.00000000000E+00 -0.00000000000E+00 -0.45593999997E+02  0.45594000000E+02  0.51100000000E-03 0.  1.
    9900012    2    1    2    0    0 -0.89857248607E+01  0.21099309322E+01  0.16293617676E+02  0.72461627239E+02  0.70000074182E+02 0.  0.
        -12    1    1    2    0    0  0.89857248607E+01 -0.21099309322E+01 -0.16293617676E+02  0.18726372761E+02  0.00000000000E+00 0.  1.
         11    1    3    3    0    0  0.12291733730E+01 -0.86782263570E+01  0.11129577628E+02  0.14166509038E+02  0.51100000000E-03 0.  1.
        -11    1    3    3    0    0 -0.24052987226E+02 -0.15265700183E+02  0.10388774735E+01  0.28507315960E+02  0.51100000000E-03 0. -1.
        -12    1    3    3    0    0  0.13838088992E+02  0.26053857472E+02  0.41251625739E+01  0.29787802242E+02  0.00000000000E+00 0.  1.
</event>
<event>
 7    1  0.2655561E-013  0.7246138E+02  0.7816164E-02  0.1226709E+00
        -11   -1    0    0    0    0  0.00000000000E+00  0.00000000000E+00  0.45593999997E+02  0.45594000000E+02  0.51100000000E-03 0.  1.
         11   -1    0    0    0    0 -0.00000000000E+00 -0.00000000000E+00 -0.45593999997E+02  0.45594000000E+02  0.51100000000E-03 0. -1.
    9900012    2    1    2    0    0 -0.16848181366E+02  0.48213813368E+01 -0.66014592499E+01  0.72461382645E+02  0.69999755551E+02 0.  0.
        -12    1    1    2    0    0  0.16848181366E+02 -0.48213813368E+01  0.66014592499E+01  0.18726617355E+02  0.00000000000E+00 0.  1.
         11    1    3    3    0    0 -0.20571216551E+02 -0.27542956903E+02 -0.79897431038E+01  0.35293418940E+02  0.51100000000E-03 0. -1.
        -11    1    3    3    0    0 -0.48804812712E+01  0.17822908042E+01  0.14662704212E+01  0.53986671650E+01  0.51100000000E-03 0.  1.
        -12    1    3    3    0    0  0.86035164562E+01  0.30582047435E+02 -0.77986567262E-01  0.31769296540E+02  0.00000000000E+00 0.  1.
</event>
<event>
 7    1  0.2655561E-013  0.7246156E+02  0.7816164E-02  0.1226708E+00
        -11   -1    0    0    0    0  0.00000000000E+00  0.00000000000E+00  0.45593999997E+02  0.45594000000E+02  0.51100000000E-03 0.  1.
         11   -1    0    0    0    0 -0.00000000000E+00 -0.00000000000E+00 -0.45593999997E+02  0.45594000000E+02  0.51100000000E-03 0. -1.
    9900012    2    1    2    0    0 -0.25175049259E+01  0.98513901555E+01 -0.15725511281E+02  0.72461563497E+02  0.69999991146E+02 0.  0.
        -12    1    1    2    0    0  0.25175049259E+01 -0.98513901555E+01  0.15725511281E+02  0.18726436503E+02  0.00000000000E+00 0.  1.
         11    1    3    3    0    0 -0.15265069188E+02 -0.16639922334E+02  0.13641458914E+02  0.26381788305E+02  0.51100000000E-03 0. -1.
        -11    1    3    3    0    0  0.73856839869E+01  0.46393932972E+01  0.44106348277E+00  0.87330885360E+01  0.51100000000E-03 0.  1.
        -12    1    3    3    0    0  0.53618802751E+01  0.21851919192E+02 -0.29808033678E+02  0.37346686656E+02  0.00000000000E+00 0.  1.
</event>
<event>
 7    1  0.2655561E-013  0.7246157E+02  0.7816164E-02  0.1226708E+00
        -11   -1    0    0    0    0  0.00000000000E+00  0.00000000000E+00  0.45593999997E+02  0.45594000000E+02  0.51100000000E-03 0. -1.
         11   -1    0    0    0    0 -0.00000000000E+00 -0.00000000000E+00 -0.45593999997E+02  0.45594000000E+02  0.51100000000E-03 0.  1.
    9900012    2    1    2    0    0  0.16071515262E+02  0.54493319191E+01  0.79177195464E+01  0.72461572044E+02  0.70000002279E+02 0.  0.
        -12    1    1    2    0    0 -0.16071515262E+02 -0.54493319191E+01 -0.79177195464E+01  0.18726427956E+02  0.00000000000E+00 0.  1.
         11    1    3    3    0    0  0.21350204298E+02 -0.15893122805E+02  0.11093427916E+02  0.28835511427E+02  0.51100000000E-03 0. -1.
        -11    1    3    3    0    0 -0.38411026433E+01 -0.68782514798E+01  0.97648642008E+01  0.12546592607E+02  0.51100000000E-03 0.  1.
         12    1    3    3    0    0 -0.14375863929E+01  0.28220706204E+02 -0.12940572570E+02  0.31079468009E+02  0.00000000000E+00 0. -1.
</event>
<event>
 7    1  0.2655561E-013  0.7246157E+02  0.7816164E-02  0.1226708E+00
        -11   -1    0    0    0    0  0.00000000000E+00  0.00000000000E+00  0.45593999997E+02  0.45594000000E+02  0.51100000000E-03 0. -1.
         11   -1    0    0    0    0 -0.00000000000E+00 -0.00000000000E+00 -0.45593999997E+02  0.45594000000E+02  0.51100000000E-03 0.  1.
    9900012    2    1    2    0    0  0.40320173516E+01 -0.18041276306E+02 -0.29890113715E+01  0.72461574723E+02  0.70000005769E+02 0.  0.
        -12    1    1    2    0    0 -0.40320173516E+01  0.18041276306E+02  0.29890113715E+01  0.18726425277E+02  0.00000000000E+00 0.  1.
         11    1    3    3    0    0 -0.18727913438E+00 -0.12994712587E+02  0.15289142939E+02  0.20066278199E+02  0.51100000000E-03 0. -1.
        -11    1    3    3    0    0 -0.45285319279E+01 -0.65977034379E+01  0.15513191073E+02  0.17455554692E+02  0.51100000000E-03 0.  1.
        -12    1    3    3    0    0  0.87478284139E+01  0.15511397188E+01 -0.33791345384E+02  0.34939741831E+02  0.00000000000E+00 0.  1.
</event>
<event>
 7    1  0.2655561E-013  0.7246154E+02  0.7816164E-02  0.1226708E+00
        -11   -1    0    0    0    0  0.00000000000E+00  0.00000000000E+00  0.45593999997E+02  0.45594000000E+02  0.51100000000E-03 0. -1.
         11   -1    0    0    0    0 -0.00000000000E+00 -0.00000000000E+00 -0.45593999997E+02  0.45594000000E+02  0.51100000000E-03 0.  1.
    9900012    2    1    2    0    0 -0.50456769242E+01  0.18014092144E+02  0.84491691521E+00  0.72461541285E+02  0.69999962210E+02 0.  0.
        -12    1    1    2    0    0  0.50456769242E+01 -0.18014092144E+02 -0.84491691521E+00  0.18726458715E+02  0.00000000000E+00 0.  1.
         11    1    3    3    0    0  0.54637590022E+01 -0.13878501102E+02 -0.13668288452E+01  0.14977772752E+02  0.51100000000E-03 0. -1.
        -11    1    3    3    0    0  0.29064580680E+01 -0.46762651840E+01 -0.14188909913E+02  0.15219727966E+02  0.51100000000E-03 0.  1.
         12    1    3    3    0    0 -0.13415893994E+02  0.36568858430E+02  0.16400655674E+02  0.42264040567E+02  0.00000000000E+00 0. -1.
</event>
<event>
 7    1  0.2655561E-013  0.7246169E+02  0.7816164E-02  0.1226708E+00
        -11   -1    0    0    0    0  0.00000000000E+00  0.00000000000E+00  0.45593999997E+02  0.45594000000E+02  0.51100000000E-03 0.  1.
         11   -1    0    0    0    0 -0.00000000000E+00 -0.00000000000E+00 -0.45593999997E+02  0.45594000000E+02  0.51100000000E-03 0. -1.
    9900012    2    1    2    0    0  0.12387096180E+02  0.13175984863E+01 -0.13982076846E+02  0.72461689887E+02  0.70000155791E+02 0.  0.
        -12    1    1    2    0    0 -0.12387096180E+02 -0.13175984863E+01  0.13982076846E+02  0.18726310113E+02  0.00000000000E+00 0.  1.
         11    1    3    3    0    0  0.34284636625E+02 -0.35251269339E+01  0.76953587171E+01  0.35314039339E+02  0.51100000000E-03 0. -1.
        -11    1    3    3    0    0  0.32848084521E+01 -0.10388953874E+01 -0.65629069602E-01  0.34458058026E+01  0.51100000000E-03 0.  1.
        -12    1    3    3    0    0 -0.25182348897E+02  0.58816208076E+01 -0.21611806493E+02  0.33701844745E+02  0.00000000000E+00 0.  1.
</event>
<event>
 7    1  0.2655561E-013  0.7246162E+02  0.7816164E-02  0.1226708E+00
        -11   -1    0    0    0    0  0.00000000000E+00  0.00000000000E+00  0.45593999997E+02  0.45594000000E+02  0.51100000000E-03 0. -1.
         11   -1    0    0    0    0 -0.00000000000E+00 -0.00000000000E+00 -0.45593999997E+02  0.45594000000E+02  0.51100000000E-03 0.  1.
    9900012    2    1    2    0    0 -0.26548328111E+01 -0.18491689865E+02  0.12987334447E+01  0.72461616476E+02  0.70000060160E+02 0.  0.
        -12    1    1    2    0    0  0.26548328111E+01  0.18491689865E+02 -0.12987334447E+01  0.18726383524E+02  0.00000000000E+00 0.  1.
         11    1    3    3    0    0  0.54360647206E+01  0.11595874386E+02  0.78101141390E+01  0.15000432846E+02  0.51100000000E-03 0. -1.
        -11    1    3    3    0    0 -0.88468519166E+01  0.70261677765E+01 -0.15582947758E+02  0.19247391604E+02  0.51100000000E-03 0.  1.
        -12    1    3    3    0    0  0.75595438492E+00 -0.37113732028E+02  0.90715670637E+01  0.38213792027E+02  0.00000000000E+00 0.  1.
</event>
<event>
 7    1  0.2655561E-013  0.7246139E+02  0.7816164E-02  0.1226708E+00
        -11   -1    0    0    0    0  0.00000000000E+00  0.00000000000E+00  0.45593999997E+02  0.45594000000E+02  0.51100000000E-03 0.  1.
         11   -1    0    0    0    0 -0.00000000000E+00 -0.00000000000E+00 -0.45593999997E+02  0.45594000000E+02  0.51100000000E-03 0. -1.
    9900012    2    1    2    0    0 -0.30091343397E+01 -0.62587543768E+01 -0.17391349210E+02  0.72461389972E+02  0.69999765096E+02 0.  0.
        -12    1    1    2    0    0  0.30091343397E+01  0.62587543768E+01  0.17391349210E+02  0.18726610028E+02  0.00000000000E+00 0.  1.
         11    1    3    3    0    0 -0.30298992268E+01 -0.12352717912E+02 -0.46052986277E+01  0.13526962144E+02  0.51100000000E-03 0. -1.
        -11    1    3    3    0    0 -0.16545320134E+02 -0.15103483326E+02  0.91728203174E+01  0.24207508334E+02  0.51100000000E-03 0.  1.
         12    1    3    3    0    0  0.16566085021E+02  0.21197446861E+02 -0.21958870899E+02  0.34726919494E+02  0.00000000000E+00 0. -1.
</event>
<event>
 7    1  0.2655561E-013  0.7246143E+02  0.7816164E-02  0.1226708E+00
        -11   -1    0    0    0    0  0.00000000000E+00  0.00000000000E+00  0.45593999997E+02  0.45594000000E+02  0.51100000000E-03 0.  1.
         11   -1    0    0    0    0 -0.00000000000E+00 -0.00000000000E+00 -0.45593999997E+02  0.45594000000E+02  0.51100000000E-03 0. -1.
    9900012    2    1    2    0    0  0.31205343804E+01 -0.91645375174E+01 -0.16029906351E+02  0.72461431165E+02  0.69999818757E+02 0.  0.
        -12    1    1    2    0    0 -0.31205343804E+01  0.91645375174E+01  0.16029906351E+02  0.18726568835E+02  0.00000000000E+00 0.  1.
         11    1    3    3    0    0  0.74124492520E+01 -0.45335753148E+00 -0.80761986631E+00  0.74700861491E+01  0.51100000000E-03 0. -1.
        -11    1    3    3    0    0  0.22467407687E+02 -0.36453641855E+01  0.12635016713E+02  0.26032993216E+02  0.51100000000E-03 0.  1.
         12    1    3    3    0    0 -0.26759322558E+02 -0.50658158005E+01 -0.27857303197E+02  0.38958351799E+02  0.00000000000E+00 0. -1.
</event>
<event>
 7    1  0.2655561E-013  0.7246157E+02  0.7816164E-02  0.1226708E+00
        -11   -1    0    0    0    0  0.00000000000E+00  0.00000000000E+00  0.45593999997E+02  0.45594000000E+02  0.51100000000E-03 0. -1.
         11   -1    0    0    0    0 -0.00000000000E+00 -0.00000000000E+00 -0.45593999997E+02  0.45594000000E+02  0.51100000000E-03 0.  1.
    9900012    2    1    2    0    0  0.10319872805E+02  0.15603923992E+02  0.83485887172E+00  0.72461569267E+02  0.69999998662E+02 0.  0.
        -12    1    1    2    0    0 -0.10319872805E+02 -0.15603923992E+02 -0.83485887172E+00  0.18726430733E+02  0.00000000000E+00 0.  1.
         11    1    3    3    0    0  0.94146579160E+01  0.22602184410E+02 -0.14548591416E+01  0.24527762620E+02  0.51100000000E-03 0. -1.
        -11    1    3    3    0    0  0.95411733443E+01  0.18449345547E+02  0.33548598894E+01  0.21039663140E+02  0.51100000000E-03 0.  1.
        -12    1    3    3    0    0 -0.86359584555E+01 -0.25447605965E+02 -0.10651418761E+01  0.26894143507E+02  0.00000000000E+00 0.  1.
</event>
<event>
 7    1  0.2655561E-013  0.7246156E+02  0.7816164E-02  0.1226708E+00
        -11   -1    0    0    0    0  0.00000000000E+00  0.00000000000E+00  0.45593999997E+02  0.45594000000E+02  0.51100000000E-03 0.  1.
         11   -1    0    0    0    0 -0.00000000000E+00 -0.00000000000E+00 -0.45593999997E+02  0.45594000000E+02  0.51100000000E-03 0. -1.
    9900012    2    1    2    0    0  0.15243825982E+02 -0.10745445215E+02  0.16854113131E+01  0.72461563213E+02  0.69999990776E+02 0.  0.
        -12    1    1    2    0    0 -0.15243825982E+02  0.10745445215E+02 -0.16854113131E+01  0.18726436787E+02  0.00000000000E+00 0.  1.
         11    1    3    3    0    0 -0.60198422099E+01 -0.12166384000E+02 -0.74641261639E+01  0.15491048367E+02  0.51100000000E-03 0. -1.
        -11    1    3    3    0    0 -0.15493252200E+02  0.98328825675E+01  0.51053410113E+01  0.19047071965E+02  0.51100000000E-03 0.  1.
         12    1    3    3    0    0  0.36756920392E+02 -0.84119437826E+01  0.40441964657E+01  0.37923442881E+02  0.00000000000E+00 0. -1.
</event>
<event>
 7    1  0.2655561E-013  0.7246157E+02  0.7816164E-02  0.1226708E+00
        -11   -1    0    0    0    0  0.00000000000E+00  0.00000000000E+00  0.45593999997E+02  0.45594000000E+02  0.51100000000E-03 0. -1.
         11   -1    0    0    0    0 -0.00000000000E+00 -0.00000000000E+00 -0.45593999997E+02  0.45594000000E+02  0.51100000000E-03 0.  1.
    9900012    2    1    2    0    0  0.15113259843E+02  0.21955543508E+01  0.10837346685E+02  0.72461570411E+02  0.70000000152E+02 0.  0.
        -12    1    1    2    0    0 -0.15113259843E+02 -0.21955543508E+01 -0.10837346685E+02  0.18726429589E+02  0.00000000000E+00 0.  1.
         11    1    3    3    0    0  0.23115696379E+02 -0.19251850700E+01  0.38491268517E+01  0.23512922711E+02  0.51100000000E-03 0. -1.
        -11    1    3    3    0    0  0.17987173653E+02 -0.40270038815E+01 -0.51368445571E+01  0.19134846447E+02  0.51100000000E-03 0.  1.
         12    1    3    3    0    0 -0.25989610189E+02  0.81477433023E+01  0.12125064390E+02  0.29813801253E+02  0.00000000000E+00 0. -1.
</event>
<event>
 7    1  0.2655561E-013  0.7246155E+02  0.7816164E-02  0.1226708E+00
        -11   -1    0    0    0    0  0.00000000000E+00  0.00000000000E+00  0.45593999997E+02  0.45594000000E+02  0.51100000000E-03 0.  1.
         11   -1    0    0    0    0 -0.00000000000E+00 -0.00000000000E+00 -0.45593999997E+02  0.45594000000E+02  0.51100000000E-03 0. -1.
    9900012    2    1    2    0    0 -0.51213277230E+01 -0.47515582100E+01 -0.17374541607E+02  0.72461548144E+02  0.69999971145E+02 0.  0.
        -12    1    1    2    0    0  0.51213277230E+01  0.47515582100E+01  0.17374541607E+02  0.18726451856E+02  0.00000000000E+00 0.  1.
         11    1    3    3    0    0  0.10504756344E+02 -0.13272712426E+02 -0.10880109516E+02  0.20121918008E+02  0.51100000000E-03 0. -1.
        -11    1    3    3    0    0  0.69057577205E+01 -0.76145489593E+01 -0.19256670848E+02  0.21828655890E+02  0.51100000000E-03 0.  1.
        -12    1    3    3    0    0 -0.22531841788E+02  0.16135703175E+02  0.12762238758E+02  0.30510974245E+02  0.00000000000E+00 0.  1.
</event>
<event>
 7    1  0.2655561E-013  0.7246157E+02  0.7816164E-02  0.1226708E+00
        -11   -1    0    0    0    0  0.00000000000E+00  0.00000000000E+00  0.45593999997E+02  0.45594000000E+02  0.51100000000E-03 0.  1.
         11   -1    0    0    0    0 -0.00000000000E+00 -0.00000000000E+00 -0.45593999997E+02  0.45594000000E+02  0.51100000000E-03 0. -1.
    9900012    2    1    2    0    0  0.51972077672E+01 -0.21259486985E+01 -0.17864732630E+02  0.72461566854E+02  0.69999995518E+02 0.  0.
        -12    1    1    2    0    0 -0.51972077672E+01  0.21259486985E+01  0.17864732630E+02  0.18726433146E+02  0.00000000000E+00 0.  1.
         11    1    3    3    0    0 -0.13834990732E+02 -0.19237095426E+02 -0.97228644549E+01  0.25612631697E+02  0.51100000000E-03 0. -1.
        -11    1    3    3    0    0  0.59403171632E+01 -0.59055705541E+00  0.14247639504E+02  0.15447697477E+02  0.51100000000E-03 0.  1.
         12    1    3    3    0    0  0.13091881336E+02  0.17701703783E+02 -0.22389507679E+02  0.31401237680E+02  0.00000000000E+00 0. -1.
</event>
<event>
 7    1  0.2655561E-013  0.7246158E+02  0.7816164E-02  0.1226708E+00
        -11   -1    0    0    0    0  0.00000000000E+00  0.00000000000E+00  0.45593999997E+02  0.45594000000E+02  0.51100000000E-03 0.  1.
         11   -1    0    0    0    0 -0.00000000000E+00 -0.00000000000E+00 -0.45593999997E+02  0.45594000000E+02  0.51100000000E-03 0. -1.
    9900012    2    1    2    0    0 -0.16401561864E+02  0.58300603635E+01 -0.69049230627E+01  0.72461580216E+02  0.70000012925E+02 0.  0.
        -12    1    1    2    0    0  0.16401561864E+02 -0.58300603635E+01  0.69049230627E+01  0.18726419784E+02  0.00000000000E+00 0.  1.
         11    1    3    3    0    0 -0.23514141082E+02 -0.73285018608E+01 -0.19423259475E+01  0.24706161189E+02  0.51100000000E-03 0. -1.
        -11    1    3    3    0    0  0.83027358783E+01  0.15109439847E+02  0.17857149549E+02  0.24821530691E+02  0.51100000000E-03 0.  1.
         12    1    3    3    0    0 -0.11901566600E+01 -0.19508776226E+01 -0.22819746664E+02  0.22933888336E+02  0.00000000000E+00 0. -1.
</event>
<event>
 7    1  0.2655561E-013  0.7246159E+02  0.7816164E-02  0.1226708E+00
        -11   -1    0    0    0    0  0.00000000000E+00  0.00000000000E+00  0.45593999997E+02  0.45594000000E+02  0.51100000000E-03 0. -1.
         11   -1    0    0    0    0 -0.00000000000E+00 -0.00000000000E+00 -0.45593999997E+02  0.45594000000E+02  0.51100000000E-03 0.  1.
    9900012    2    1    2    0    0  0.53532662289E+01  0.17639793703E+02 -0.32952268905E+01  0.72461593472E+02  0.70000030193E+02 0.  0.
        -12    1    1    2    0    0 -0.53532662289E+01 -0.17639793703E+02  0.32952268905E+01  0.18726406528E+02  0.00000000000E+00 0.  1.
         11    1    3    3    0    0 -0.50142215671E+01 -0.11706215709E+02  0.12975163047E+02  0.18180559962E+02  0.51100000000E-03 0. -1.
        -11    1    3    3    0    0 -0.36947094964E+01  0.11845256984E+02  0.12616627416E+02  0.17695770085E+02  0.51100000000E-03 0.  1.
        -12    1    3    3    0    0  0.14062197292E+02  0.17500752428E+02 -0.28887017354E+02  0.36585263425E+02  0.00000000000E+00 0.  1.
</event>
<event>
 7    1  0.2655561E-013  0.7246154E+02  0.7816164E-02  0.1226708E+00
        -11   -1    0    0    0    0  0.00000000000E+00  0.00000000000E+00  0.45593999997E+02  0.45594000000E+02  0.51100000000E-03 0. -1.
         11   -1    0    0    0    0 -0.00000000000E+00 -0.00000000000E+00 -0.45593999997E+02  0.45594000000E+02  0.51100000000E-03 0.  1.
    9900012    2    1    2    0    0  0.54603319739E+01 -0.14839264384E+01  0.17851140576E+02  0.72461535229E+02  0.69999954321E+02 0.  0.
        -12    1    1    2    0    0 -0.54603319739E+01  0.14839264384E+01 -0.17851140576E+02  0.18726464771E+02  0.00000000000E+00 0.  1.
         11    1    3    3    0    0 -0.45380877229E+01 -0.23811178207E+02  0.82449168732E+01  0.25603615024E+02  0.51100000000E-03 0. -1.
        -11    1    3    3    0    0 -0.14890989414E+02  0.88600801873E+01  0.59644076529E+01  0.18325303423E+02  0.51100000000E-03 0.  1.
         12    1    3    3    0    0  0.24889409110E+02  0.13467171582E+02  0.36418160500E+01  0.28532616782E+02  0.00000000000E+00 0. -1.
</event>
<event>
 7    1  0.2655561E-013  0.7246149E+02  0.7816164E-02  0.1226708E+00
        -11   -1    0    0    0    0  0.00000000000E+00  0.00000000000E+00  0.45593999997E+02  0.45594000000E+02  0.51100000000E-03 0. -1.
         11   -1    0    0    0    0 -0.00000000000E+00 -0.00000000000E+00 -0.45593999997E+02  0.45594000000E+02  0.51100000000E-03 0.  1.
    9900012    2    1    2    0    0 -0.26528451586E+01  0.32027518696E+01  0.18258885497E+02  0.72461491875E+02  0.69999897844E+02 0.  0.
        -12    1    1    2    0    0  0.26528451586E+01 -0.32027518696E+01 -0.18258885497E+02  0.18726508125E+02  0.00000000000E+00 0.  1.
         11    1    3    3    0    0 -0.13969262904E+02 -0.24364981751E+02  0.42664699814E+01  0.28407664602E+02  0.51100000000E-03 0. -1.
        -11    1    3    3    0    0 -0.17313784218E+01  0.31878095202E+01  0.15926487871E+02  0.16334405925E+02  0.51100000000E-03 0.  1.
        -12    1    3    3    0    0  0.13047796167E+02  0.24379924100E+02 -0.19340723554E+01  0.27719421347E+02  0.00000000000E+00 0.  1.
</event>
<event>
 7    1  0.2655561E-013  0.7246207E+02  0.7816164E-02  0.1226707E+00
        -11   -1    0    0    0    0  0.00000000000E+00  0.00000000000E+00  0.45593999997E+02  0.45594000000E+02  0.51100000000E-03 0.  1.
         11   -1    0    0    0    0 -0.00000000000E+00 -0.00000000000E+00 -0.45593999997E+02  0.45594000000E+02  0.51100000000E-03 0. -1.
    9900012    2    1    2    0    0  0.15939273854E+02 -0.51950908632E+01 -0.83433337197E+01  0.72462065107E+02  0.70000644582E+02 0.  0.
        -12    1    1    2    0    0 -0.15939273854E+02  0.51950908632E+01  0.83433337197E+01  0.18725934893E+02  0.00000000000E+00 0.  1.
         11    1    3    3    0    0  0.69788640401E+01  0.10442956576E+02 -0.60179474851E+01  0.13927511534E+02  0.51100000000E-03 0. -1.
        -11    1    3    3    0    0 -0.14741061041E+02  0.98387682250E+01 -0.13177109109E+02  0.22084755954E+02  0.51100000000E-03 0.  1.
         12    1    3    3    0    0  0.23701470855E+02 -0.25476815665E+02  0.10851722875E+02  0.36449797619E+02  0.00000000000E+00 0. -1.
</event>
<event>
 7    1  0.2655561E-013  0.7246154E+02  0.7816164E-02  0.1226708E+00
        -11   -1    0    0    0    0  0.00000000000E+00  0.00000000000E+00  0.45593999997E+02  0.45594000000E+02  0.51100000000E-03 0. -1.
         11   -1    0    0    0    0 -0.00000000000E+00 -0.00000000000E+00 -0.45593999997E+02  0.45594000000E+02  0.51100000000E-03 0.  1.
    9900012    2    1    2    0    0  0.74613731990E+00 -0.15606896478E+02  0.10322218069E+02  0.72461544797E+02  0.69999966786E+02 0.  0.
        -12    1    1    2    0    0 -0.74613731990E+00  0.15606896478E+02 -0.10322218069E+02  0.18726455203E+02  0.00000000000E+00 0.  1.
         11    1    3    3    0    0 -0.10028569819E+02  0.19191073595E+02 -0.30151852660E+01  0.21862315997E+02  0.51100000000E-03 0. -1.
        -11    1    3    3    0    0  0.95361561949E+01  0.30094762038E+01  0.70921307448E+01  0.12259426608E+02  0.51100000000E-03 0.  1.
        -12    1    3    3    0    0  0.12385509439E+01 -0.37807446277E+02  0.62452725905E+01  0.38339802192E+02  0.00000000000E+00 0.  1.
</event>
<event>
 7    1  0.2655561E-013  0.7246158E+02  0.7816164E-02  0.1226708E+00
        -11   -1    0    0    0    0  0.00000000000E+00  0.00000000000E+00  0.45593999997E+02  0.45594000000E+02  0.51100000000E-03 0.  1.
         11   -1    0    0    0    0 -0.00000000000E+00 -0.00000000000E+00 -0.45593999997E+02  0.45594000000E+02  0.51100000000E-03 0. -1.
    9900012    2    1    2    0    0 -0.64613749100E+01  0.89481874922E+01 -0.15128098753E+02  0.72461580241E+02  0.70000012957E+02 0.  0.
        -12    1    1    2    0    0  0.64613749100E+01 -0.89481874922E+01  0.15128098753E+02  0.18726419759E+02  0.00000000000E+00 0.  1.
         11    1    3    3    0    0  0.39956046026E+01  0.94090706053E+00 -0.17580934790E+02  0.18053792692E+02  0.51100000000E-03 0. -1.
        -11    1    3    3    0    0  0.17760121694E+02 -0.99322107973E+01  0.47372801568E+01  0.20892882938E+02  0.51100000000E-03 0.  1.
        -12    1    3    3    0    0 -0.28217101207E+02  0.17939491229E+02 -0.22844441200E+01  0.33514904610E+02  0.00000000000E+00 0.  1.
</event>
<event>
 7    1  0.2655561E-013  0.7246151E+02  0.7816164E-02  0.1226708E+00
        -11   -1    0    0    0    0  0.00000000000E+00  0.00000000000E+00  0.45593999997E+02  0.45594000000E+02  0.51100000000E-03 0. -1.
         11   -1    0    0    0    0 -0.00000000000E+00 -0.00000000000E+00 -0.45593999997E+02  0.45594000000E+02  0.51100000000E-03 0.  1.
    9900012    2    1    2    0    0 -0.12742864389E+02 -0.78152179330E+01  0.11279320820E+02  0.72461513348E+02  0.69999925816E+02 0.  0.
        -12    1    1    2    0    0  0.12742864389E+02  0.78152179330E+01 -0.11279320820E+02  0.18726486652E+02  0.00000000000E+00 0.  1.
         11    1    3    3    0    0  0.99901234857E+01  0.87834108110E+01 -0.57306495440E+01  0.14484171264E+02  0.51100000000E-03 0. -1.
        -11    1    3    3    0    0 -0.89421773238E+01  0.16942855123E+02  0.61230068958E+01  0.20112535611E+02  0.51100000000E-03 0.  1.
        -12    1    3    3    0    0 -0.13790810551E+02 -0.33541483867E+02  0.10886963469E+02  0.37864806473E+02  0.00000000000E+00 0.  1.
</event>
<event>
 7    1  0.2655561E-013  0.7246155E+02  0.7816164E-02  0.1226708E+00
        -11   -1    0    0    0    0  0.00000000000E+00  0.00000000000E+00  0.45593999997E+02  0.45594000000E+02  0.51100000000E-03 0.  1.
         11   -1    0    0    0    0 -0.00000000000E+00 -0.00000000000E+00 -0.45593999997E+02  0.45594000000E+02  0.51100000000E-03 0. -1.
    9900012    2    1    2    0    0 -0.12531366579E+01  0.12310616643E+02 -0.14055541882E+02  0.72461551025E+02  0.69999974898E+02 0.  0.
        -12    1    1    2    0    0  0.12531366579E+01 -0.12310616643E+02  0.14055541882E+02  0.18726448975E+02  0.00000000000E+00 0.  1.
         11    1    3    3    0    0 -0.86710551248E+01  0.35359576030E+02  0.15430044784E+01  0.36439918730E+02  0.51100000000E-03 0. -1.
        -11    1    3    3    0    0  0.32093482669E+01 -0.61248273225E+01  0.53653571756E+01  0.87521702401E+01  0.51100000000E-03 0.  1.
        -12    1    3    3    0    0  0.42085702000E+01 -0.16924132064E+02 -0.20963903536E+02  0.27269462054E+02  0.00000000000E+00 0.  1.
</event>
<event>
 7    1  0.2655561E-013  0.7246158E+02  0.7816164E-02  0.1226708E+00
        -11   -1    0    0    0    0  0.00000000000E+00  0.00000000000E+00  0.45593999997E+02  0.45594000000E+02  0.51100000000E-03 0.  1.
         11   -1    0    0    0    0 -0.00000000000E+00 -0.00000000000E+00 -0.45593999997E+02  0.45594000000E+02  0.51100000000E-03 0. -1.
    9900012    2    1    2    0    0 -0.24390575995E+01 -0.17860061137E+01 -0.18480796556E+02  0.72461583868E+02  0.70000017682E+02 0.  0.
        -12    1    1    2    0    0  0.24390575995E+01  0.17860061137E+01  0.18480796556E+02  0.18726416132E+02  0.00000000000E+00 0.  1.
         11    1    3    3    0    0  0.38156719543E+01 -0.97461116801E+01 -0.29048760004E+01  0.10862060126E+02  0.51100000000E-03 0. -1.
        -11    1    3    3    0    0 -0.12947707645E+02  0.94580721827E+01  0.19849274743E+02  0.25516503890E+02  0.51100000000E-03 0.  1.
         12    1    3    3    0    0  0.66929780916E+01 -0.14979666162E+01 -0.35425195298E+02  0.36083019852E+02  0.00000000000E+00 0. -1.
</event>
<event>
 7    1  0.2655561E-013  0.7246146E+02  0.7816164E-02  0.1226708E+00
        -11   -1    0    0    0    0  0.00000000000E+00  0.00000000000E+00  0.45593999997E+02  0.45594000000E+02  0.51100000000E-03 0.  1.
         11   -1    0    0    0    0 -0.00000000000E+00 -0.00000000000E+00 -0.45593999997E+02  0.45594000000E+02  0.51100000000E-03 0. -1.
    9900012    2    1    2    0    0 -0.14179880101E+01 -0.15959987645E+02 -0.96928611445E+01  0.72461455931E+02  0.69999851020E+02 0.  0.
        -12    1    1    2    0    0  0.14179880101E+01  0.15959987645E+02  0.96928611445E+01  0.18726544069E+02  0.00000000000E+00 0.  1.
         11    1    3    3    0    0 -0.18507268325E+00 -0.97441956267E+01 -0.21534312000E+02  0.23637051294E+02  0.51100000000E-03 0. -1.
        -11    1    3    3    0    0  0.10990233268E+02 -0.19313805419E+02  0.19286002146E+02  0.29423769066E+02  0.51100000000E-03 0.  1.
         12    1    3    3    0    0 -0.12223148595E+02  0.13098013401E+02 -0.74445512907E+01  0.19400635571E+02  0.00000000000E+00 0. -1.
</event>
<event>
 7    1  0.2655561E-013  0.7246164E+02  0.7816164E-02  0.1226708E+00
        -11   -1    0    0    0    0  0.00000000000E+00  0.00000000000E+00  0.45593999997E+02  0.45594000000E+02  0.51100000000E-03 0.  1.
         11   -1    0    0    0    0 -0.00000000000E+00 -0.00000000000E+00 -0.45593999997E+02  0.45594000000E+02  0.51100000000E-03 0. -1.
    9900012    2    1    2    0    0 -0.69237659430E+01 -0.69213680144E+01 -0.15963480098E+02  0.72461639786E+02  0.70000090526E+02 0.  0.
        -12    1    1    2    0    0  0.69237659430E+01  0.69213680144E+01  0.15963480098E+02  0.18726360214E+02  0.00000000000E+00 0.  1.
         11    1    3    3    0    0 -0.13318626695E+02 -0.59481856268E+01 -0.12355018250E+02  0.19115784198E+02  0.51100000000E-03 0. -1.
        -11    1    3    3    0    0  0.13202744011E+02 -0.96706367961E+00 -0.26414097493E+02  0.29545764641E+02  0.51100000000E-03 0.  1.
        -12    1    3    3    0    0 -0.68078832594E+01 -0.61187079725E-02  0.22805635645E+02  0.23800090947E+02  0.00000000000E+00 0.  1.
</event>
<event>
 7    1  0.2655561E-013  0.7246151E+02  0.7816164E-02  0.1226708E+00
        -11   -1    0    0    0    0  0.00000000000E+00  0.00000000000E+00  0.45593999997E+02  0.45594000000E+02  0.51100000000E-03 0.  1.
         11   -1    0    0    0    0 -0.00000000000E+00 -0.00000000000E+00 -0.45593999997E+02  0.45594000000E+02  0.51100000000E-03 0. -1.
    9900012    2    1    2    0    0  0.10741627550E+02  0.36349301828E+01 -0.14902549861E+02  0.72461514152E+02  0.69999926864E+02 0.  0.
        -12    1    1    2    0    0 -0.10741627550E+02 -0.36349301828E+01  0.14902549861E+02  0.18726485848E+02  0.00000000000E+00 0.  1.
         11    1    3    3    0    0  0.10005665775E+02  0.28915853331E+02 -0.34469775333E+01  0.30791582873E+02  0.51100000000E-03 0. -1.
        -11    1    3    3    0    0  0.13211556138E+02 -0.11529065094E+02  0.34363077984E+01  0.17868205536E+02  0.51100000000E-03 0.  1.
        -12    1    3    3    0    0 -0.12475594363E+02 -0.13751858054E+02 -0.14891880126E+02  0.23801725743E+02  0.00000000000E+00 0.  1.
</event>
<event>
 7    1  0.2655561E-013  0.7246157E+02  0.7816164E-02  0.1226708E+00
        -11   -1    0    0    0    0  0.00000000000E+00  0.00000000000E+00  0.45593999997E+02  0.45594000000E+02  0.51100000000E-03 0.  1.
         11   -1    0    0    0    0 -0.00000000000E+00 -0.00000000000E+00 -0.45593999997E+02  0.45594000000E+02  0.51100000000E-03 0. -1.
    9900012    2    1    2    0    0  0.51506451008E+01  0.13353733870E+02 -0.12075915280E+02  0.72461572602E+02  0.70000003007E+02 0.  0.
        -12    1    1    2    0    0 -0.51506451008E+01 -0.13353733870E+02  0.12075915280E+02  0.18726427398E+02  0.00000000000E+00 0.  1.
         11    1    3    3    0    0  0.10664996950E+02  0.96307620824E+01 -0.31008538055E+02  0.34176353972E+02  0.51100000000E-03 0. -1.
        -11    1    3    3    0    0  0.49945809783E+01  0.16055358014E+02  0.12024075640E+02  0.20671205949E+02  0.51100000000E-03 0.  1.
         12    1    3    3    0    0 -0.10508932828E+02 -0.12332386226E+02  0.69085471351E+01  0.17614012681E+02  0.00000000000E+00 0. -1.
</event>
<event>
 7    1  0.2655561E-013  0.7246146E+02  0.7816164E-02  0.1226708E+00
        -11   -1    0    0    0    0  0.00000000000E+00  0.00000000000E+00  0.45593999997E+02  0.45594000000E+02  0.51100000000E-03 0. -1.
         11   -1    0    0    0    0 -0.00000000000E+00 -0.00000000000E+00 -0.45593999997E+02  0.45594000000E+02  0.51100000000E-03 0.  1.
    9900012    2    1    2    0    0 -0.12910227432E+02 -0.81916883117E+01  0.10812290076E+02  0.72461458770E+02  0.69999854719E+02 0.  0.
        -12    1    1    2    0    0  0.12910227432E+02  0.81916883117E+01 -0.10812290076E+02  0.18726541230E+02  0.00000000000E+00 0.  1.
         11    1    3    3    0    0 -0.16932876932E+02  0.18644671531E+01  0.22914488976E+00  0.17036756341E+02  0.51100000000E-03 0. -1.
        -11    1    3    3    0    0  0.88370093458E+01  0.49922495754E+01 -0.19195793092E+02  0.21713907127E+02  0.51100000000E-03 0.  1.
         12    1    3    3    0    0 -0.48143598461E+01 -0.15048405040E+02  0.29778938278E+02  0.33710795303E+02  0.00000000000E+00 0. -1.
</event>
<event>
 7    1  0.2655561E-013  0.7246160E+02  0.7816164E-02  0.1226708E+00
        -11   -1    0    0    0    0  0.00000000000E+00  0.00000000000E+00  0.45593999997E+02  0.45594000000E+02  0.51100000000E-03 0.  1.
         11   -1    0    0    0    0 -0.00000000000E+00 -0.00000000000E+00 -0.45593999997E+02  0.45594000000E+02  0.51100000000E-03 0. -1.
    9900012    2    1    2    0    0  0.17435850009E+02  0.66815322154E+01 -0.14235261984E+01  0.72461597112E+02  0.70000034935E+02 0.  0.
        -12    1    1    2    0    0 -0.17435850009E+02 -0.66815322154E+01  0.14235261984E+01  0.18726402888E+02  0.00000000000E+00 0.  1.
         11    1    3    3    0    0  0.20723263867E+01 -0.71099080864E+01 -0.48346885756E+01  0.88441813376E+01  0.51100000000E-03 0. -1.
        -11    1    3    3    0    0 -0.19508505059E+02  0.95277947219E+01  0.15264567342E+02  0.26539925740E+02  0.51100000000E-03 0.  1.
         12    1    3    3    0    0  0.34872028681E+02  0.42636455798E+01 -0.11853404965E+02  0.37077490034E+02  0.00000000000E+00 0. -1.
</event>
<event>
 7    1  0.2655561E-013  0.7246154E+02  0.7816164E-02  0.1226708E+00
        -11   -1    0    0    0    0  0.00000000000E+00  0.00000000000E+00  0.45593999997E+02  0.45594000000E+02  0.51100000000E-03 0.  1.
         11   -1    0    0    0    0 -0.00000000000E+00 -0.00000000000E+00 -0.45593999997E+02  0.45594000000E+02  0.51100000000E-03 0. -1.
    9900012    2    1    2    0    0 -0.10974985221E+02 -0.11556362458E+01 -0.15129263162E+02  0.72461537452E+02  0.69999957216E+02 0.  0.
        -12    1    1    2    0    0  0.10974985221E+02  0.11556362458E+01  0.15129263162E+02  0.18726462548E+02  0.00000000000E+00 0.  1.
         11    1    3    3    0    0 -0.68996796475E+01  0.16168347996E+02 -0.29482905707E+02  0.34325832624E+02  0.51100000000E-03 0. -1.
        -11    1    3    3    0    0 -0.54698888940E+00  0.30439594345E+01 -0.74647232849E+01  0.80800358826E+01  0.51100000000E-03 0.  1.
        -12    1    3    3    0    0 -0.35283166842E+01 -0.20367943676E+02  0.21818365830E+02  0.30055668945E+02  0.00000000000E+00 0.  1.
</event>
<event>
 7    1  0.2655561E-013  0.7246146E+02  0.7816164E-02  0.1226708E+00
        -11   -1    0    0    0    0  0.00000000000E+00  0.00000000000E+00  0.45593999997E+02  0.45594000000E+02  0.51100000000E-03 0. -1.
         11   -1    0    0    0    0 -0.00000000000E+00 -0.00000000000E+00 -0.45593999997E+02  0.45594000000E+02  0.51100000000E-03 0.  1.
    9900012    2    1    2    0    0  0.14037971974E+02 -0.10827815556E+02  0.60313254132E+01  0.72461464467E+02  0.69999862139E+02 0.  0.
        -12    1    1    2    0    0 -0.14037971974E+02  0.10827815556E+02 -0.60313254132E+01  0.18726535533E+02  0.00000000000E+00 0.  1.
         11    1    3    3    0    0 -0.35875312623E+01  0.12407861845E+02  0.21560619219E+02  0.25133358659E+02  0.51100000000E-03 0. -1.
        -11    1    3    3    0    0 -0.50378086338E+01  0.47470644110E+01  0.21020915930E+01  0.72341499625E+01  0.51100000000E-03 0.  1.
        -12    1    3    3    0    0  0.22663311870E+02 -0.27982741812E+02 -0.17631385399E+02  0.40093955845E+02  0.00000000000E+00 0.  1.
</event>
<event>
 7    1  0.2655561E-013  0.7246122E+02  0.7816164E-02  0.1226709E+00
        -11   -1    0    0    0    0  0.00000000000E+00  0.00000000000E+00  0.45593999997E+02  0.45594000000E+02  0.51100000000E-03 0.  1.
         11   -1    0    0    0    0 -0.00000000000E+00 -0.00000000000E+00 -0.45593999997E+02  0.45594000000E+02  0.51100000000E-03 0. -1.
    9900012    2    1    2    0    0  0.75245999773E+01  0.12143503401E+02 -0.12108182747E+02  0.72461217866E+02  0.69999540895E+02 0.  0.
        -12    1    1    2    0    0 -0.75245999773E+01 -0.12143503401E+02  0.12108182747E+02  0.18726782134E+02  0.00000000000E+00 0.  1.
         11    1    3    3    0    0 -0.34949613345E+01  0.75872437064E+01 -0.28905577896E+02  0.30088427269E+02  0.51100000000E-03 0. -1.
        -11    1    3    3    0    0  0.70368931041E+00 -0.64887403551E+00 -0.11639109737E+02  0.11678402797E+02  0.51100000000E-03 0.  1.
        -12    1    3    3    0    0  0.10315872001E+02  0.52051337304E+01  0.28436504885E+02  0.30694387800E+02  0.00000000000E+00 0.  1.
</event>
<event>
 7    1  0.2655561E-013  0.7246148E+02  0.7816164E-02  0.1226708E+00
        -11   -1    0    0    0    0  0.00000000000E+00  0.00000000000E+00  0.45593999997E+02  0.45594000000E+02  0.51100000000E-03 0.  1.
         11   -1    0    0    0    0 -0.00000000000E+00 -0.00000000000E+00 -0.45593999997E+02  0.45594000000E+02  0.51100000000E-03 0. -1.
    9900012    2    1    2    0    0 -0.41594192171E+01  0.11015063980E+02  0.14561936090E+02  0.72461484430E+02  0.69999888145E+02 0.  0.
        -12    1    1    2    0    0  0.41594192171E+01 -0.11015063980E+02 -0.14561936090E+02  0.18726515570E+02  0.00000000000E+00 0.  1.
         11    1    3    3    0    0  0.87984985669E+01  0.51874966692E+01  0.24868243664E+02  0.26884070412E+02  0.51100000000E-03 0. -1.
        -11    1    3    3    0    0 -0.14889066920E+02  0.39325384724E+01  0.14184987810E+02  0.20937121388E+02  0.51100000000E-03 0.  1.
         12    1    3    3    0    0  0.19311491357E+01  0.18950288387E+01 -0.24491295384E+02  0.24640292630E+02  0.00000000000E+00 0. -1.
</event>
<event>
 7    1  0.2655561E-013  0.7246170E+02  0.7816164E-02  0.1226708E+00
        -11   -1    0    0    0    0  0.00000000000E+00  0.00000000000E+00  0.45593999997E+02  0.45594000000E+02  0.51100000000E-03 0.  1.
         11   -1    0    0    0    0 -0.00000000000E+00 -0.00000000000E+00 -0.45593999997E+02  0.45594000000E+02  0.51100000000E-03 0. -1.
    9900012    2    1    2    0    0 -0.99193606060E+01  0.97397488878E+01  0.12546626268E+02  0.72461701542E+02  0.70000170974E+02 0.  0.
        -12    1    1    2    0    0  0.99193606060E+01 -0.97397488878E+01 -0.12546626268E+02  0.18726298458E+02  0.00000000000E+00 0.  1.
         11    1    3    3    0    0  0.11171360873E+02 -0.42777365973E+01 -0.87126983268E+01  0.14798967753E+02  0.51100000000E-03 0. -1.
        -11    1    3    3    0    0 -0.13411588631E+02  0.19462632104E+02 -0.95160400529E+01  0.25479791533E+02  0.51100000000E-03 0.  1.
        -12    1    3    3    0    0 -0.76791328481E+01 -0.54451466193E+01  0.30775364648E+02  0.32182942256E+02  0.00000000000E+00 0.  1.
</event>
<event>
 7    1  0.2655561E-013  0.7246164E+02  0.7816164E-02  0.1226708E+00
        -11   -1    0    0    0    0  0.00000000000E+00  0.00000000000E+00  0.45593999997E+02  0.45594000000E+02  0.51100000000E-03 0. -1.
         11   -1    0    0    0    0 -0.00000000000E+00 -0.00000000000E+00 -0.45593999997E+02  0.45594000000E+02  0.51100000000E-03 0.  1.
    9900012    2    1    2    0    0  0.10944812056E+02  0.86464639666E+01  0.12495056799E+02  0.72461636378E+02  0.70000086086E+02 0.  0.
        -12    1    1    2    0    0 -0.10944812056E+02 -0.86464639666E+01 -0.12495056799E+02  0.18726363622E+02  0.00000000000E+00 0.  1.
         11    1    3    3    0    0  0.15043169196E+02  0.55540635181E+01  0.21169848701E+02  0.26557617651E+02  0.51100000000E-03 0. -1.
        -11    1    3    3    0    0  0.12569151964E+02 -0.13694747290E+01  0.13043704575E+02  0.18165827023E+02  0.51100000000E-03 0.  1.
        -12    1    3    3    0    0 -0.16667509104E+02  0.44618751775E+01 -0.21718496476E+02  0.27738191704E+02  0.00000000000E+00 0.  1.
</event>
<event>
 7    1  0.2655561E-013  0.7246154E+02  0.7816164E-02  0.1226708E+00
        -11   -1    0    0    0    0  0.00000000000E+00  0.00000000000E+00  0.45593999997E+02  0.45594000000E+02  0.51100000000E-03 0. -1.
         11   -1    0    0    0    0 -0.00000000000E+00 -0.00000000000E+00 -0.45593999997E+02  0.45594000000E+02  0.51100000000E-03 0.  1.
    9900012    2    1    2    0    0  0.15029241631E+02 -0.52852346524E+00  0.11158978946E+02  0.72461541387E+02  0.69999962343E+02 0.  0.
        -12    1    1    2    0    0 -0.15029241631E+02  0.52852346524E+00 -0.11158978946E+02  0.18726458613E+02  0.00000000000E+00 0.  1.
         11    1    3    3    0    0 -0.99742111653E+01 -0.15117936699E+02 -0.10146881601E+02  0.20760445681E+02  0.51100000000E-03 0. -1.
        -11    1    3    3    0    0  0.70744886101E+01  0.10324415364E+01 -0.10531261153E+02  0.12728777882E+02  0.51100000000E-03 0.  1.
         12    1    3    3    0    0  0.17928964186E+02  0.13556971697E+02  0.31837121701E+02  0.38972317824E+02  0.00000000000E+00 0. -1.
</event>
<event>
 7    1  0.3103160E-013  0.7246156E+02  0.7816164E-02  0.1226708E+00
        -11   -1    0    0    0    0  0.00000000000E+00  0.00000000000E+00  0.45593999997E+02  0.45594000000E+02  0.51100000000E-03 0.  1.
         11   -1    0    0    0    0 -0.00000000000E+00 -0.00000000000E+00 -0.45593999997E+02  0.45594000000E+02  0.51100000000E-03 0. -1.
    9900012    2    1    2    0    0 -0.17851083217E+02  0.51844175425E+01 -0.22671927293E+01  0.72461560933E+02  0.69999987805E+02 0.  0.
        -12    1    1    2    0    0  0.17851083217E+02 -0.51844175425E+01  0.22671927293E+01  0.18726439067E+02  0.00000000000E+00 0.  1.
         11    1    3    3    0    0 -0.11104314079E+02  0.26934783472E+02 -0.18976489166E+02  0.34769174468E+02  0.51100000000E-03 0. -1.
        -11    1    3    3    0    0  0.53356329503E+01  0.29201102901E+01  0.48150551968E+01  0.77576272078E+01  0.51100000000E-03 0.  1.
        -12    1    3    3    0    0 -0.12082402088E+02 -0.24670476219E+02  0.11894241240E+02  0.29934759257E+02  0.00000000000E+00 0.  1.
</event>
<event>
 7    1  0.3179819E-013  0.7246154E+02  0.7816164E-02  0.1226708E+00
        -11   -1    0    0    0    0  0.00000000000E+00  0.00000000000E+00  0.45593999997E+02  0.45594000000E+02  0.51100000000E-03 0.  1.
         11   -1    0    0    0    0 -0.00000000000E+00 -0.00000000000E+00 -0.45593999997E+02  0.45594000000E+02  0.51100000000E-03 0. -1.
    9900012    2    1    2    0    0 -0.72824026256E+00  0.13184299701E+02 -0.13278708264E+02  0.72461543163E+02  0.69999964657E+02 0.  0.
        -12    1    1    2    0    0  0.72824026256E+00 -0.13184299701E+02  0.13278708264E+02  0.18726456837E+02  0.00000000000E+00 0.  1.
         11    1    3    3    0    0  0.97872973351E+01  0.22419829214E+02 -0.20097137120E+02  0.31659672327E+02  0.51100000000E-03 0. -1.
        -11    1    3    3    0    0 -0.73265106776E+01  0.12104504514E+02  0.12066709288E+02  0.18595759235E+02  0.51100000000E-03 0.  1.
        -12    1    3    3    0    0 -0.31890269201E+01 -0.21340034027E+02 -0.52482804318E+01  0.22206111602E+02  0.00000000000E+00 0.  1.
</event>
<event>
 7    1  0.2655561E-013  0.7246159E+02  0.7816164E-02  0.1226708E+00
        -11   -1    0    0    0    0  0.00000000000E+00  0.00000000000E+00  0.45593999997E+02  0.45594000000E+02  0.51100000000E-03 0.  1.
         11   -1    0    0    0    0 -0.00000000000E+00 -0.00000000000E+00 -0.45593999997E+02  0.45594000000E+02  0.51100000000E-03 0. -1.
    9900012    2    1    2    0    0  0.11776956058E+02 -0.80202660354E+01 -0.12151429990E+02  0.72461585178E+02  0.70000019389E+02 0.  0.
        -12    1    1    2    0    0 -0.11776956058E+02  0.80202660354E+01  0.12151429990E+02  0.18726414822E+02  0.00000000000E+00 0.  1.
         11    1    3    3    0    0  0.17589625884E+01 -0.11455834599E+02  0.19202924448E+02  0.22429498509E+02  0.51100000000E-03 0.  1.
        -11    1    3    3    0    0  0.12794210780E+02 -0.14696172325E+02 -0.10067328102E+02  0.21932177409E+02  0.51100000000E-03 0. -1.
        -12    1    3    3    0    0 -0.27762173109E+01  0.18131740889E+02 -0.21287026336E+02  0.28099909261E+02  0.00000000000E+00 0.  1.
</event>
<event>
 7    1  0.2655561E-013  0.7246157E+02  0.7816164E-02  0.1226708E+00
        -11   -1    0    0    0    0  0.00000000000E+00  0.00000000000E+00  0.45593999997E+02  0.45594000000E+02  0.51100000000E-03 0.  1.
         11   -1    0    0    0    0 -0.00000000000E+00 -0.00000000000E+00 -0.45593999997E+02  0.45594000000E+02  0.51100000000E-03 0. -1.
    9900012    2    1    2    0    0 -0.74947493325E+01 -0.15567528792E+02  0.72221775575E+01  0.72461572980E+02  0.70000003499E+02 0.  0.
        -12    1    1    2    0    0  0.74947493325E+01  0.15567528792E+02 -0.72221775575E+01  0.18726427020E+02  0.00000000000E+00 0.  1.
         11    1    3    3    0    0 -0.16756960738E+02 -0.31793743555E+02  0.22067801243E+02  0.42173756228E+02  0.51100000000E-03 0. -1.
        -11    1    3    3    0    0  0.41245945676E+01 -0.28501968879E+01  0.81259951125E+00  0.50789980187E+01  0.51100000000E-03 0.  1.
         12    1    3    3    0    0  0.51376168377E+01  0.19076411651E+02 -0.15658223197E+02  0.25208818733E+02  0.00000000000E+00 0. -1.
</event>
<event>
 7    1  0.2655561E-013  0.7246160E+02  0.7816164E-02  0.1226708E+00
        -11   -1    0    0    0    0  0.00000000000E+00  0.00000000000E+00  0.45593999997E+02  0.45594000000E+02  0.51100000000E-03 0. -1.
         11   -1    0    0    0    0 -0.00000000000E+00 -0.00000000000E+00 -0.45593999997E+02  0.45594000000E+02  0.51100000000E-03 0.  1.
    9900012    2    1    2    0    0  0.38914793816E+01 -0.10172587482E+02  0.15233281420E+02  0.72461601236E+02  0.70000040307E+02 0.  0.
        -12    1    1    2    0    0 -0.38914793816E+01  0.10172587482E+02 -0.15233281420E+02  0.18726398764E+02  0.00000000000E+00 0.  1.
         11    1    3    3    0    0 -0.12062785246E+02 -0.71159196712E-01 -0.16738942878E+02  0.20632693970E+02  0.51100000000E-03 0. -1.
        -11    1    3    3    0    0  0.10400675255E+02 -0.28677701681E+01 -0.62943288664E+01  0.12490665620E+02  0.51100000000E-03 0.  1.
        -12    1    3    3    0    0  0.55535893718E+01 -0.72336581176E+01  0.38266553164E+02  0.39338241645E+02  0.00000000000E+00 0.  1.
</event>
<event>
 7    1  0.2655561E-013  0.7246145E+02  0.7816164E-02  0.1226708E+00
        -11   -1    0    0    0    0  0.00000000000E+00  0.00000000000E+00  0.45593999997E+02  0.45594000000E+02  0.51100000000E-03 0.  1.
         11   -1    0    0    0    0 -0.00000000000E+00 -0.00000000000E+00 -0.45593999997E+02  0.45594000000E+02  0.51100000000E-03 0. -1.
    9900012    2    1    2    0    0 -0.98613505531E+01  0.15590556714E+02  0.32205422808E+01  0.72461452374E+02  0.69999846387E+02 0.  0.
        -12    1    1    2    0    0  0.98613505531E+01 -0.15590556714E+02 -0.32205422808E+01  0.18726547626E+02  0.00000000000E+00 0.  1.
         11    1    3    3    0    0 -0.26715429876E+02  0.27210103290E+02 -0.67824085049E+01  0.38731188723E+02  0.51100000000E-03 0.  1.
        -11    1    3    3    0    0  0.85739240536E+01  0.42686899196E+00 -0.71653110213E+01  0.11181953009E+02  0.51100000000E-03 0. -1.
        -12    1    3    3    0    0  0.82801552695E+01 -0.12046415568E+02  0.17168261807E+02  0.22548310642E+02  0.00000000000E+00 0.  1.
</event>
<event>
 7    1  0.2655561E-013  0.7246167E+02  0.7816164E-02  0.1226708E+00
        -11   -1    0    0    0    0  0.00000000000E+00  0.00000000000E+00  0.45593999997E+02  0.45594000000E+02  0.51100000000E-03 0. -1.
         11   -1    0    0    0    0 -0.00000000000E+00 -0.00000000000E+00 -0.45593999997E+02  0.45594000000E+02  0.51100000000E-03 0.  1.
    9900012    2    1    2    0    0 -0.12467143682E+02 -0.13731970586E+02 -0.25843590082E+01  0.72461665622E+02  0.70000124182E+02 0.  0.
        -12    1    1    2    0    0  0.12467143682E+02  0.13731970586E+02  0.25843590082E+01  0.18726334378E+02  0.00000000000E+00 0.  1.
         11    1    3    3    0    0 -0.14227690292E+02 -0.13062640719E+02  0.64799458464E+01  0.20372762504E+02  0.51100000000E-03 0. -1.
        -11    1    3    3    0    0 -0.20879613317E+02 -0.13444736588E+02 -0.93453171343E+00  0.24851409295E+02  0.51100000000E-03 0.  1.
        -12    1    3    3    0    0  0.22640159927E+02  0.12775406721E+02 -0.81297731411E+01  0.27237493823E+02  0.00000000000E+00 0.  1.
</event>
<event>
 7    1  0.2655561E-013  0.7246157E+02  0.7816164E-02  0.1226708E+00
        -11   -1    0    0    0    0  0.00000000000E+00  0.00000000000E+00  0.45593999997E+02  0.45594000000E+02  0.51100000000E-03 0. -1.
         11   -1    0    0    0    0 -0.00000000000E+00 -0.00000000000E+00 -0.45593999997E+02  0.45594000000E+02  0.51100000000E-03 0.  1.
    9900012    2    1    2    0    0  0.56605630733E+01 -0.12892790561E+02 -0.12345575542E+02  0.72461567926E+02  0.69999996915E+02 0.  0.
        -12    1    1    2    0    0 -0.56605630733E+01  0.12892790561E+02  0.12345575542E+02  0.18726432074E+02  0.00000000000E+00 0.  1.
         11    1    3    3    0    0  0.11188619216E+02 -0.93424708195E+00  0.15331654121E+02  0.19003095430E+02  0.51100000000E-03 0. -1.
        -11    1    3    3    0    0  0.38609073644E+00  0.15987784925E+02 -0.43365617916E+01  0.16569975899E+02  0.51100000000E-03 0.  1.
        -12    1    3    3    0    0 -0.59141468788E+01 -0.27946328404E+02 -0.23340667871E+02  0.36888496598E+02  0.00000000000E+00 0.  1.
</event>
<event>
 7    1  0.2655561E-013  0.7246162E+02  0.7816164E-02  0.1226708E+00
        -11   -1    0    0    0    0  0.00000000000E+00  0.00000000000E+00  0.45593999997E+02  0.45594000000E+02  0.51100000000E-03 0.  1.
         11   -1    0    0    0    0 -0.00000000000E+00 -0.00000000000E+00 -0.45593999997E+02  0.45594000000E+02  0.51100000000E-03 0. -1.
    9900012    2    1    2    0    0 -0.16625436446E+02 -0.24435732922E+01 -0.82644585041E+01  0.72461615891E+02  0.70000059398E+02 0.  0.
        -12    1    1    2    0    0  0.16625436446E+02  0.24435732922E+01  0.82644585041E+01  0.18726384109E+02  0.00000000000E+00 0.  1.
         11    1    3    3    0    0 -0.13825123954E+02 -0.13895534482E+02 -0.62917347671E+00  0.19611623859E+02  0.51100000000E-03 0. -1.
        -11    1    3    3    0    0 -0.14236548159E+02 -0.16676328320E+02 -0.28555086468E+01  0.22111833023E+02  0.51100000000E-03 0.  1.
         12    1    3    3    0    0  0.11436235667E+02  0.28128289510E+02 -0.47797763806E+01  0.30738159009E+02  0.00000000000E+00 0. -1.
</event>
<event>
 7    1  0.2655561E-013  0.7246149E+02  0.7816164E-02  0.1226708E+00
        -11   -1    0    0    0    0  0.00000000000E+00  0.00000000000E+00  0.45593999997E+02  0.45594000000E+02  0.51100000000E-03 0.  1.
         11   -1    0    0    0    0 -0.00000000000E+00 -0.00000000000E+00 -0.45593999997E+02  0.45594000000E+02  0.51100000000E-03 0. -1.
    9900012    2    1    2    0    0  0.16111745434E+02  0.92811240952E+01  0.22258809036E+01  0.72461490683E+02  0.69999896291E+02 0.  0.
        -12    1    1    2    0    0 -0.16111745434E+02 -0.92811240952E+01 -0.22258809036E+01  0.18726509317E+02  0.00000000000E+00 0.  1.
         11    1    3    3    0    0  0.25466910510E+01  0.46629013942E+01  0.56325941940E+01  0.77430228164E+01  0.51100000000E-03 0. -1.
        -11    1    3    3    0    0  0.68181387482E+01  0.33897803260E+02 -0.14144854244E+01  0.34605618779E+02  0.51100000000E-03 0.  1.
         12    1    3    3    0    0  0.67469156351E+01 -0.29279580559E+02 -0.19922278660E+01  0.30112849087E+02  0.00000000000E+00 0. -1.
</event>
<event>
 7    1  0.2655561E-013  0.7246157E+02  0.7816164E-02  0.1226708E+00
        -11   -1    0    0    0    0  0.00000000000E+00  0.00000000000E+00  0.45593999997E+02  0.45594000000E+02  0.51100000000E-03 0.  1.
         11   -1    0    0    0    0 -0.00000000000E+00 -0.00000000000E+00 -0.45593999997E+02  0.45594000000E+02  0.51100000000E-03 0. -1.
    9900012    2    1    2    0    0  0.24144856346E+01 -0.39515777604E+01 -0.18144820610E+02  0.72461568876E+02  0.69999998153E+02 0.  0.
        -12    1    1    2    0    0 -0.24144856346E+01  0.39515777604E+01  0.18144820610E+02  0.18726431124E+02  0.00000000000E+00 0.  1.
         11    1    3    3    0    0  0.61124142951E+01 -0.14756823502E+02 -0.17897780961E+02  0.23988664240E+02  0.51100000000E-03 0. -1.
        -11    1    3    3    0    0  0.55556070484E+00  0.47646280581E+01 -0.23546524212E+02  0.24030171264E+02  0.51100000000E-03 0.  1.
        -12    1    3    3    0    0 -0.42534893654E+01  0.60406176838E+01  0.23299484564E+02  0.24442733373E+02  0.00000000000E+00 0.  1.
</event>
<event>
 7    1  0.2655561E-013  0.7246159E+02  0.7816164E-02  0.1226708E+00
        -11   -1    0    0    0    0  0.00000000000E+00  0.00000000000E+00  0.45593999997E+02  0.45594000000E+02  0.51100000000E-03 0.  1.
         11   -1    0    0    0    0 -0.00000000000E+00 -0.00000000000E+00 -0.45593999997E+02  0.45594000000E+02  0.51100000000E-03 0. -1.
    9900012    2    1    2    0    0  0.79593523050E+01  0.13191711035E+02 -0.10644522285E+02  0.72461591272E+02  0.70000027328E+02 0.  0.
        -12    1    1    2    0    0 -0.79593523050E+01 -0.13191711035E+02  0.10644522285E+02  0.18726408728E+02  0.00000000000E+00 0.  1.
         11    1    3    3    0    0  0.58785717103E+01  0.38479145598E+02  0.63044639326E+01  0.39432835519E+02  0.51100000000E-03 0.  1.
        -11    1    3    3    0    0  0.47250356810E+01 -0.14247574351E+02 -0.34705134105E+01  0.15406615484E+02  0.51100000000E-03 0. -1.
        -12    1    3    3    0    0 -0.26442550864E+01 -0.11039860212E+02 -0.13478472807E+02  0.17622140269E+02  0.00000000000E+00 0.  1.
</event>
<event>
 7    1  0.2655561E-013  0.7246164E+02  0.7816164E-02  0.1226708E+00
        -11   -1    0    0    0    0  0.00000000000E+00  0.00000000000E+00  0.45593999997E+02  0.45594000000E+02  0.51100000000E-03 0. -1.
         11   -1    0    0    0    0 -0.00000000000E+00 -0.00000000000E+00 -0.45593999997E+02  0.45594000000E+02  0.51100000000E-03 0.  1.
    9900012    2    1    2    0    0  0.12329647542E+02 -0.78281292132E+01  0.11720787577E+02  0.72461636848E+02  0.70000086698E+02 0.  0.
        -12    1    1    2    0    0 -0.12329647542E+02  0.78281292132E+01 -0.11720787577E+02  0.18726363152E+02  0.00000000000E+00 0.  1.
         11    1    3    3    0    0  0.45237012655E+01 -0.15688422915E+01 -0.22334177982E+01  0.52833033793E+01  0.51100000000E-03 0. -1.
        -11    1    3    3    0    0 -0.14770301847E+02 -0.26087409571E+02 -0.66983802300E+01  0.30717797003E+02  0.51100000000E-03 0.  1.
         12    1    3    3    0    0  0.22576248123E+02  0.19828122649E+02  0.20652585605E+02  0.36460536465E+02  0.00000000000E+00 0. -1.
</event>
<event>
 7    1  0.2655561E-013  0.7246161E+02  0.7816164E-02  0.1226708E+00
        -11   -1    0    0    0    0  0.00000000000E+00  0.00000000000E+00  0.45593999997E+02  0.45594000000E+02  0.51100000000E-03 0. -1.
         11   -1    0    0    0    0 -0.00000000000E+00 -0.00000000000E+00 -0.45593999997E+02  0.45594000000E+02  0.51100000000E-03 0.  1.
    9900012    2    1    2    0    0  0.30159446394E+01  0.72666746193E+01  0.16993449934E+02  0.72461606254E+02  0.70000046844E+02 0.  0.
        -12    1    1    2    0    0 -0.30159446394E+01 -0.72666746193E+01 -0.16993449934E+02  0.18726393746E+02  0.00000000000E+00 0.  1.
         11    1    3    3    0    0  0.61926239353E+01 -0.23078927181E+02  0.51267325045E+01  0.24439084628E+02  0.51100000000E-03 0. -1.
        -11    1    3    3    0    0  0.15858583845E+02  0.11164022002E+02  0.66314522909E+01  0.20496493080E+02  0.51100000000E-03 0.  1.
         12    1    3    3    0    0 -0.19035263141E+02  0.19181579799E+02  0.52352651383E+01  0.27526028545E+02  0.00000000000E+00 0. -1.
</event>
<event>
 7    1  0.2655561E-013  0.7246157E+02  0.7816164E-02  0.1226708E+00
        -11   -1    0    0    0    0  0.00000000000E+00  0.00000000000E+00  0.45593999997E+02  0.45594000000E+02  0.51100000000E-03 0.  1.
         11   -1    0    0    0    0 -0.00000000000E+00 -0.00000000000E+00 -0.45593999997E+02  0.45594000000E+02  0.51100000000E-03 0. -1.
    9900012    2    1    2    0    0 -0.12021166159E+02  0.59011414973E+01 -0.13089969530E+02  0.72461569238E+02  0.69999998624E+02 0.  0.
        -12    1    1    2    0    0  0.12021166159E+02 -0.59011414973E+01  0.13089969530E+02  0.18726430762E+02  0.00000000000E+00 0.  1.
         11    1    3    3    0    0 -0.14956303312E+02  0.23567318913E+02  0.71654617882E+01  0.28817587901E+02  0.51100000000E-03 0. -1.
        -11    1    3    3    0    0  0.11862561241E+02  0.22917654453E+01  0.22248679116E+01  0.12285055374E+02  0.51100000000E-03 0.  1.
         12    1    3    3    0    0 -0.89274240882E+01 -0.19957942861E+02 -0.22480299230E+02  0.31358925963E+02  0.00000000000E+00 0. -1.
</event>
<event>
 7    1  0.2655561E-013  0.7246159E+02  0.7816164E-02  0.1226708E+00
        -11   -1    0    0    0    0  0.00000000000E+00  0.00000000000E+00  0.45593999997E+02  0.45594000000E+02  0.51100000000E-03 0. -1.
         11   -1    0    0    0    0 -0.00000000000E+00 -0.00000000000E+00 -0.45593999997E+02  0.45594000000E+02  0.51100000000E-03 0.  1.
    9900012    2    1    2    0    0 -0.75404798371E+01 -0.15177801048E+02  0.79658014565E+01  0.72461588874E+02  0.70000024203E+02 0.  0.
        -12    1    1    2    0    0  0.75404798371E+01  0.15177801048E+02 -0.79658014565E+01  0.18726411126E+02  0.00000000000E+00 0.  1.
         11    1    3    3    0    0 -0.13319170407E+02 -0.15402721259E+02 -0.19216618329E+01  0.20453285970E+02  0.51100000000E-03 0. -1.
        -11    1    3    3    0    0 -0.37390933503E+01 -0.14242731949E+02 -0.15433702661E+02  0.21331559028E+02  0.51100000000E-03 0.  1.
         12    1    3    3    0    0  0.95177839199E+01  0.14467652160E+02  0.25321165950E+02  0.30676743877E+02  0.00000000000E+00 0. -1.
</event>
<event>
 7    1  0.2655561E-013  0.7246158E+02  0.7816164E-02  0.1226708E+00
        -11   -1    0    0    0    0  0.00000000000E+00  0.00000000000E+00  0.45593999997E+02  0.45594000000E+02  0.51100000000E-03 0.  1.
         11   -1    0    0    0    0 -0.00000000000E+00 -0.00000000000E+00 -0.45593999997E+02  0.45594000000E+02  0.51100000000E-03 0. -1.
    9900012    2    1    2    0    0 -0.95852915833E+01 -0.10494048283E+01 -0.16053028215E+02  0.72461580692E+02  0.70000013545E+02 0.  0.
        -12    1    1    2    0    0  0.95852915833E+01  0.10494048283E+01  0.16053028215E+02  0.18726419308E+02  0.00000000000E+00 0.  1.
         11    1    3    3    0    0 -0.30281102746E+02  0.80459282007E+01  0.10571889440E+02  0.33067310002E+02  0.51100000000E-03 0.  1.
        -11    1    3    3    0    0  0.10958222581E+02  0.67484520962E+00 -0.22435890390E+02  0.24978135160E+02  0.51100000000E-03 0. -1.
        -12    1    3    3    0    0  0.97375885823E+01 -0.97701782386E+01 -0.41890272648E+01  0.14416135531E+02  0.00000000000E+00 0.  1.
</event>
<event>
 7    1  0.2655561E-013  0.7246156E+02  0.7816164E-02  0.1226708E+00
        -11   -1    0    0    0    0  0.00000000000E+00  0.00000000000E+00  0.45593999997E+02  0.45594000000E+02  0.51100000000E-03 0.  1.
         11   -1    0    0    0    0 -0.00000000000E+00 -0.00000000000E+00 -0.45593999997E+02  0.45594000000E+02  0.51100000000E-03 0. -1.
    9900012    2    1    2    0    0 -0.13983507601E+02  0.12315684681E+02  0.18614355272E+01  0.72461561038E+02  0.69999987941E+02 0.  0.
        -12    1    1    2    0    0  0.13983507601E+02 -0.12315684681E+02 -0.18614355272E+01  0.18726438962E+02  0.00000000000E+00 0.  1.
         11    1    3    3    0    0  0.79231789582E+00 -0.22533292902E+01  0.29344929997E+01  0.37837164223E+01  0.51100000000E-03 0. -1.
        -11    1    3    3    0    0 -0.72601423427E+01 -0.26084913751E+02  0.24395146556E+01  0.27186092478E+02  0.51100000000E-03 0.  1.
         12    1    3    3    0    0 -0.75156831542E+01  0.40653927722E+02 -0.35125721281E+01  0.41491752137E+02  0.00000000000E+00 0. -1.
</event>
<event>
 7    1  0.2655561E-013  0.7246155E+02  0.7816164E-02  0.1226708E+00
        -11   -1    0    0    0    0  0.00000000000E+00  0.00000000000E+00  0.45593999997E+02  0.45594000000E+02  0.51100000000E-03 0.  1.
         11   -1    0    0    0    0 -0.00000000000E+00 -0.00000000000E+00 -0.45593999997E+02  0.45594000000E+02  0.51100000000E-03 0. -1.
    9900012    2    1    2    0    0  0.13722459010E+02 -0.77705041297E+01 -0.10099168882E+02  0.72461552718E+02  0.69999977104E+02 0.  0.
        -12    1    1    2    0    0 -0.13722459010E+02  0.77705041297E+01  0.10099168882E+02  0.18726447282E+02  0.00000000000E+00 0.  1.
         11    1    3    3    0    0  0.28479264532E+02 -0.88240680877E+01  0.56293670590E+01  0.30341760985E+02  0.51100000000E-03 0. -1.
        -11    1    3    3    0    0  0.27520766746E+01  0.10799290600E+02 -0.18792439521E+02  0.21848441292E+02  0.51100000000E-03 0.  1.
         12    1    3    3    0    0 -0.17508882197E+02 -0.97457266416E+01  0.30639035807E+01  0.20271350441E+02  0.00000000000E+00 0. -1.
</event>
<event>
 7    1  0.2655561E-013  0.7246165E+02  0.7816164E-02  0.1226708E+00
        -11   -1    0    0    0    0  0.00000000000E+00  0.00000000000E+00  0.45593999997E+02  0.45594000000E+02  0.51100000000E-03 0.  1.
         11   -1    0    0    0    0 -0.00000000000E+00 -0.00000000000E+00 -0.45593999997E+02  0.45594000000E+02  0.51100000000E-03 0. -1.
    9900012    2    1    2    0    0  0.68771850237E+01  0.16282993519E+02 -0.61842218905E+01  0.72461650858E+02  0.70000104949E+02 0.  0.
        -12    1    1    2    0    0 -0.68771850237E+01 -0.16282993519E+02  0.61842218905E+01  0.18726349142E+02  0.00000000000E+00 0.  1.
         11    1    3    3    0    0  0.15936128604E+01  0.74672718115E+01 -0.22158852578E+02  0.23437459292E+02  0.51100000000E-03 0. -1.
        -11    1    3    3    0    0  0.12520718150E+02  0.24163420810E+02  0.24490450020E+01  0.27324661205E+02  0.51100000000E-03 0.  1.
        -12    1    3    3    0    0 -0.72371459868E+01 -0.15347699103E+02  0.13525585685E+02  0.21699530361E+02  0.00000000000E+00 0.  1.
</event>
<event>
 7    1  0.2655561E-013  0.7246154E+02  0.7816164E-02  0.1226708E+00
        -11   -1    0    0    0    0  0.00000000000E+00  0.00000000000E+00  0.45593999997E+02  0.45594000000E+02  0.51100000000E-03 0.  1.
         11   -1    0    0    0    0 -0.00000000000E+00 -0.00000000000E+00 -0.45593999997E+02  0.45594000000E+02  0.51100000000E-03 0. -1.
    9900012    2    1    2    0    0 -0.85185867571E+01 -0.14323452602E+02 -0.85412344265E+01  0.72461540102E+02  0.69999960669E+02 0.  0.
        -12    1    1    2    0    0  0.85185867571E+01  0.14323452602E+02  0.85412344265E+01  0.18726459898E+02  0.00000000000E+00 0.  1.
         11    1    3    3    0    0  0.24228415873E+02 -0.13673371568E+00 -0.13061502982E+02  0.27525219204E+02  0.51100000000E-03 0. -1.
        -11    1    3    3    0    0 -0.29267846168E+01 -0.12919937932E+02 -0.41035779722E+01  0.13868317014E+02  0.51100000000E-03 0.  1.
        -12    1    3    3    0    0 -0.29820218014E+02 -0.12667809541E+01  0.86238465277E+01  0.31068003884E+02  0.00000000000E+00 0.  1.
</event>
<event>
 7    1  0.2655561E-013  0.7246156E+02  0.7816164E-02  0.1226708E+00
        -11   -1    0    0    0    0  0.00000000000E+00  0.00000000000E+00  0.45593999997E+02  0.45594000000E+02  0.51100000000E-03 0.  1.
         11   -1    0    0    0    0 -0.00000000000E+00 -0.00000000000E+00 -0.45593999997E+02  0.45594000000E+02  0.51100000000E-03 0. -1.
    9900012    2    1    2    0    0 -0.40987807530E+01 -0.12229317552E+02 -0.13576570437E+02  0.72461562104E+02  0.69999989331E+02 0.  0.
        -12    1    1    2    0    0  0.40987807530E+01  0.12229317552E+02  0.13576570437E+02  0.18726437896E+02  0.00000000000E+00 0.  1.
         11    1    3    3    0    0  0.20822644955E+01 -0.15332070333E+02  0.87286886317E+01  0.17765084059E+02  0.51100000000E-03 0. -1.
        -11    1    3    3    0    0 -0.18553914389E+02  0.13737700118E+02  0.43036655697E+01  0.23483902599E+02  0.51100000000E-03 0.  1.
        -12    1    3    3    0    0  0.12372869140E+02 -0.10634947337E+02 -0.26608924638E+02  0.31212575447E+02  0.00000000000E+00 0.  1.
</event>
<event>
 7    1  0.2655561E-013  0.7246155E+02  0.7816164E-02  0.1226708E+00
        -11   -1    0    0    0    0  0.00000000000E+00  0.00000000000E+00  0.45593999997E+02  0.45594000000E+02  0.51100000000E-03 0.  1.
         11   -1    0    0    0    0 -0.00000000000E+00 -0.00000000000E+00 -0.45593999997E+02  0.45594000000E+02  0.51100000000E-03 0. -1.
    9900012    2    1    2    0    0  0.14800168736E+02  0.99359367166E+01 -0.57369224234E+01  0.72461545132E+02  0.69999967221E+02 0.  0.
        -12    1    1    2    0    0 -0.14800168736E+02 -0.99359367166E+01  0.57369224234E+01  0.18726454868E+02  0.00000000000E+00 0.  1.
         11    1    3    3    0    0 -0.76971539669E+01 -0.13731625069E+02  0.37214928808E+01  0.16175698308E+02  0.51100000000E-03 0. -1.
        -11    1    3    3    0    0  0.30874369208E+02  0.21021608953E+02 -0.20156379653E+02  0.42443071966E+02  0.51100000000E-03 0.  1.
         12    1    3    3    0    0 -0.83770465048E+01  0.26459528325E+01  0.10697964349E+02  0.13842774857E+02  0.00000000000E+00 0. -1.
</event>
<event>
 7    1  0.2655561E-013  0.7246156E+02  0.7816164E-02  0.1226708E+00
        -11   -1    0    0    0    0  0.00000000000E+00  0.00000000000E+00  0.45593999997E+02  0.45594000000E+02  0.51100000000E-03 0. -1.
         11   -1    0    0    0    0 -0.00000000000E+00 -0.00000000000E+00 -0.45593999997E+02  0.45594000000E+02  0.51100000000E-03 0.  1.
    9900012    2    1    2    0    0 -0.30022160348E+01  0.13105940477E+01  0.18437696494E+02  0.72461558537E+02  0.69999984684E+02 0.  0.
        -12    1    1    2    0    0  0.30022160348E+01 -0.13105940477E+01 -0.18437696494E+02  0.18726441463E+02  0.00000000000E+00 0.  1.
         11    1    3    3    0    0  0.16682391749E+02 -0.82862404366E+01 -0.31871834578E+01  0.18897674823E+02  0.51100000000E-03 0. -1.
        -11    1    3    3    0    0 -0.18127763248E+02  0.51228182637E+01 -0.10177090944E+02  0.21411030981E+02  0.51100000000E-03 0.  1.
         12    1    3    3    0    0 -0.15568445359E+01  0.44740162206E+01  0.31801970895E+02  0.32152852733E+02  0.00000000000E+00 0. -1.
</event>
<event>
 7    1  0.2655561E-013  0.7246156E+02  0.7816164E-02  0.1226708E+00
        -11   -1    0    0    0    0  0.00000000000E+00  0.00000000000E+00  0.45593999997E+02  0.45594000000E+02  0.51100000000E-03 0.  1.
         11   -1    0    0    0    0 -0.00000000000E+00 -0.00000000000E+00 -0.45593999997E+02  0.45594000000E+02  0.51100000000E-03 0. -1.
    9900012    2    1    2    0    0 -0.17740391606E+02 -0.10520620967E+01 -0.59034873971E+01  0.72461561672E+02  0.69999988768E+02 0.  0.
        -12    1    1    2    0    0  0.17740391606E+02  0.10520620967E+01  0.59034873971E+01  0.18726438328E+02  0.00000000000E+00 0.  1.
         11    1    3    3    0    0 -0.10640424739E+02 -0.10925316429E+02  0.11080370626E+02  0.18850883034E+02  0.51100000000E-03 0.  1.
        -11    1    3    3    0    0  0.19605599738E+02  0.12343422680E+02 -0.29900363281E+01  0.23359793279E+02  0.51100000000E-03 0. -1.
         12    1    3    3    0    0 -0.26705566605E+02 -0.24701683479E+01 -0.13993821695E+02  0.30250885359E+02  0.00000000000E+00 0. -1.
</event>
<event>
 7    1  0.2655561E-013  0.7246150E+02  0.7816164E-02  0.1226708E+00
        -11   -1    0    0    0    0  0.00000000000E+00  0.00000000000E+00  0.45593999997E+02  0.45594000000E+02  0.51100000000E-03 0. -1.
         11   -1    0    0    0    0 -0.00000000000E+00 -0.00000000000E+00 -0.45593999997E+02  0.45594000000E+02  0.51100000000E-03 0.  1.
    9900012    2    1    2    0    0  0.12775833733E+02 -0.50769827803E+00  0.13682177679E+02  0.72461503500E+02  0.69999912988E+02 0.  0.
        -12    1    1    2    0    0 -0.12775833733E+02  0.50769827803E+00 -0.13682177679E+02  0.18726496500E+02  0.00000000000E+00 0.  1.
         11    1    3    3    0    0  0.30910197804E+02 -0.34933095385E+01 -0.15621684894E+02  0.34809202504E+02  0.51100000000E-03 0. -1.
        -11    1    3    3    0    0 -0.84742906556E+00  0.60298304020E+01  0.76768152058E+01  0.97984938976E+01  0.51100000000E-03 0.  1.
        -12    1    3    3    0    0 -0.17286935005E+02 -0.30442191415E+01  0.21627047367E+02  0.27853807098E+02  0.00000000000E+00 0.  1.
</event>
<event>
 7    1  0.2655561E-013  0.7246157E+02  0.7816164E-02  0.1226708E+00
        -11   -1    0    0    0    0  0.00000000000E+00  0.00000000000E+00  0.45593999997E+02  0.45594000000E+02  0.51100000000E-03 0.  1.
         11   -1    0    0    0    0 -0.00000000000E+00 -0.00000000000E+00 -0.45593999997E+02  0.45594000000E+02  0.51100000000E-03 0. -1.
    9900012    2    1    2    0    0  0.41750724167E+00 -0.86716823220E+01 -0.16592375636E+02  0.72461566387E+02  0.69999994910E+02 0.  0.
        -12    1    1    2    0    0 -0.41750724167E+00  0.86716823220E+01  0.16592375636E+02  0.18726433613E+02  0.00000000000E+00 0.  1.
         11    1    3    3    0    0  0.11050441685E+02  0.20658457050E+02 -0.44963772365E+01  0.23855848709E+02  0.51100000000E-03 0.  1.
        -11    1    3    3    0    0 -0.82008454215E+01 -0.74368411041E+01 -0.21865613245E+02  0.24508478412E+02  0.51100000000E-03 0. -1.
        -12    1    3    3    0    0 -0.24320890220E+01 -0.21893298267E+02  0.97696148452E+01  0.24097239266E+02  0.00000000000E+00 0.  1.
</event>
<event>
 7    1  0.2655561E-013  0.7246167E+02  0.7816164E-02  0.1226708E+00
        -11   -1    0    0    0    0  0.00000000000E+00  0.00000000000E+00  0.45593999997E+02  0.45594000000E+02  0.51100000000E-03 0. -1.
         11   -1    0    0    0    0 -0.00000000000E+00 -0.00000000000E+00 -0.45593999997E+02  0.45594000000E+02  0.51100000000E-03 0.  1.
    9900012    2    1    2    0    0 -0.18661605741E+02 -0.12105253001E+00  0.15509062996E+01  0.72461668461E+02  0.70000127881E+02 0.  0.
        -12    1    1    2    0    0  0.18661605741E+02  0.12105253001E+00 -0.15509062996E+01  0.18726331539E+02  0.00000000000E+00 0.  1.
         11    1    3    3    0    0 -0.64405901861E+01 -0.99513103420E+00 -0.92757240874E+01  0.11336249174E+02  0.51100000000E-03 0. -1.
        -11    1    3    3    0    0 -0.20152395092E+02  0.55433867283E+01 -0.20015654171E+02  0.28939153002E+02  0.51100000000E-03 0.  1.
         12    1    3    3    0    0  0.79313795368E+01 -0.46693082241E+01  0.30842284558E+02  0.32186266285E+02  0.00000000000E+00 0. -1.
</event>
<event>
 7    1  0.2655561E-013  0.7246163E+02  0.7816164E-02  0.1226708E+00
        -11   -1    0    0    0    0  0.00000000000E+00  0.00000000000E+00  0.45593999997E+02  0.45594000000E+02  0.51100000000E-03 0.  1.
         11   -1    0    0    0    0 -0.00000000000E+00 -0.00000000000E+00 -0.45593999997E+02  0.45594000000E+02  0.51100000000E-03 0. -1.
    9900012    2    1    2    0    0  0.72617271947E+01 -0.10633232354E+02 -0.13597002174E+02  0.72461634089E+02  0.70000083104E+02 0.  0.
        -12    1    1    2    0    0 -0.72617271947E+01  0.10633232354E+02  0.13597002174E+02  0.18726365911E+02  0.00000000000E+00 0.  1.
         11    1    3    3    0    0 -0.13997583584E+02  0.51465669542E+01  0.96938919881E+01  0.17787384286E+02  0.51100000000E-03 0. -1.
        -11    1    3    3    0    0  0.27349179369E+02  0.25549859763E+01 -0.47095460092E+01  0.27869075861E+02  0.51100000000E-03 0.  1.
        -12    1    3    3    0    0 -0.60898685897E+01 -0.18334785284E+02 -0.18581348153E+02  0.26805173941E+02  0.00000000000E+00 0.  1.
</event>
<event>
 7    1  0.2655561E-013  0.7246154E+02  0.7816164E-02  0.1226708E+00
        -11   -1    0    0    0    0  0.00000000000E+00  0.00000000000E+00  0.45593999997E+02  0.45594000000E+02  0.51100000000E-03 0. -1.
         11   -1    0    0    0    0 -0.00000000000E+00 -0.00000000000E+00 -0.45593999997E+02  0.45594000000E+02  0.51100000000E-03 0.  1.
    9900012    2    1    2    0    0 -0.13251949159E+02 -0.13290694457E+01  0.13164337240E+02  0.72461538587E+02  0.69999958695E+02 0.  0.
        -12    1    1    2    0    0  0.13251949159E+02  0.13290694457E+01 -0.13164337240E+02  0.18726461413E+02  0.00000000000E+00 0.  1.
         11    1    3    3    0    0  0.11837332080E+02  0.36872294597E+01  0.16044877349E+02  0.20276986494E+02  0.51100000000E-03 0. -1.
        -11    1    3    3    0    0 -0.29632182211E+02  0.89407785388E+01  0.10133387840E+02  0.32568225202E+02  0.51100000000E-03 0.  1.
        -12    1    3    3    0    0  0.45429009720E+01 -0.13957077444E+02 -0.13013927949E+02  0.19616326891E+02  0.00000000000E+00 0.  1.
</event>
<event>
 7    1  0.2655561E-013  0.7246163E+02  0.7816164E-02  0.1226708E+00
        -11   -1    0    0    0    0  0.00000000000E+00  0.00000000000E+00  0.45593999997E+02  0.45594000000E+02  0.51100000000E-03 0.  1.
         11   -1    0    0    0    0 -0.00000000000E+00 -0.00000000000E+00 -0.45593999997E+02  0.45594000000E+02  0.51100000000E-03 0. -1.
    9900012    2    1    2    0    0 -0.55855105253E+00  0.65625402203E+01 -0.17529915761E+02  0.72461631959E+02  0.70000080330E+02 0.  0.
        -12    1    1    2    0    0  0.55855105253E+00 -0.65625402203E+01  0.17529915761E+02  0.18726368041E+02  0.00000000000E+00 0.  1.
         11    1    3    3    0    0  0.26445318272E+01  0.27944111876E+01 -0.19988339241E+01  0.43356221915E+01  0.51100000000E-03 0. -1.
        -11    1    3    3    0    0  0.13676093360E+02  0.29589566516E+02 -0.17895991479E+02  0.37186617048E+02  0.51100000000E-03 0.  1.
         12    1    3    3    0    0 -0.16879176240E+02 -0.25821437484E+02  0.23649096421E+01  0.30939392720E+02  0.00000000000E+00 0. -1.
</event>
<event>
 7    1  0.2655561E-013  0.7246158E+02  0.7816164E-02  0.1226708E+00
        -11   -1    0    0    0    0  0.00000000000E+00  0.00000000000E+00  0.45593999997E+02  0.45594000000E+02  0.51100000000E-03 0. -1.
         11   -1    0    0    0    0 -0.00000000000E+00 -0.00000000000E+00 -0.45593999997E+02  0.45594000000E+02  0.51100000000E-03 0.  1.
    9900012    2    1    2    0    0 -0.68044949685E+01 -0.11195221693E+02  0.13380761606E+02  0.72461576911E+02  0.70000008620E+02 0.  0.
        -12    1    1    2    0    0  0.68044949685E+01  0.11195221693E+02 -0.13380761606E+02  0.18726423089E+02  0.00000000000E+00 0.  1.
         11    1    3    3    0    0 -0.19973388285E+02  0.14805920660E+02  0.10925399235E+02  0.27157243507E+02  0.51100000000E-03 0. -1.
        -11    1    3    3    0    0 -0.96665156004E+01 -0.14087004121E+02 -0.61352791049E+01  0.18152874674E+02  0.51100000000E-03 0.  1.
         12    1    3    3    0    0  0.22835408917E+02 -0.11914138233E+02  0.85906414757E+01  0.27151458731E+02  0.00000000000E+00 0. -1.
</event>
<event>
 7    1  0.2655561E-013  0.7246152E+02  0.7816164E-02  0.1226708E+00
        -11   -1    0    0    0    0  0.00000000000E+00  0.00000000000E+00  0.45593999997E+02  0.45594000000E+02  0.51100000000E-03 0.  1.
         11   -1    0    0    0    0 -0.00000000000E+00 -0.00000000000E+00 -0.45593999997E+02  0.45594000000E+02  0.51100000000E-03 0. -1.
    9900012    2    1    2    0    0  0.17259910125E+02  0.62991766990E+00 -0.72373812293E+01  0.72461521931E+02  0.69999936998E+02 0.  0.
        -12    1    1    2    0    0 -0.17259910125E+02 -0.62991766990E+00  0.72373812293E+01  0.18726478069E+02  0.00000000000E+00 0.  1.
         11    1    3    3    0    0  0.11061322309E+02 -0.33805007945E+01 -0.12334343517E+02  0.16909070557E+02  0.51100000000E-03 0. -1.
        -11    1    3    3    0    0  0.21605724426E+02  0.21562137037E+02  0.91115675627E+01  0.31855199659E+02  0.51100000000E-03 0.  1.
         12    1    3    3    0    0 -0.15407136610E+02 -0.17551718572E+02 -0.40146052750E+01  0.23697251716E+02  0.00000000000E+00 0. -1.
</event>
<event>
 7    1  0.2655561E-013  0.7246167E+02  0.7816164E-02  0.1226708E+00
        -11   -1    0    0    0    0  0.00000000000E+00  0.00000000000E+00  0.45593999997E+02  0.45594000000E+02  0.51100000000E-03 0. -1.
         11   -1    0    0    0    0 -0.00000000000E+00 -0.00000000000E+00 -0.45593999997E+02  0.45594000000E+02  0.51100000000E-03 0.  1.
    9900012    2    1    2    0    0 -0.60457998035E+01  0.32138758810E+01  0.17429707769E+02  0.72461670772E+02  0.70000130891E+02 0.  0.
        -12    1    1    2    0    0  0.60457998035E+01 -0.32138758810E+01 -0.17429707769E+02  0.18726329228E+02  0.00000000000E+00 0.  1.
         11    1    3    3    0    0 -0.91749518447E+00 -0.62177383321E+00 -0.11553049488E+02  0.11606091196E+02  0.51100000000E-03 0. -1.
        -11    1    3    3    0    0 -0.46269181802E+01 -0.26346322501E+01 -0.15248194823E+02  0.16151071313E+02  0.51100000000E-03 0.  1.
         12    1    3    3    0    0 -0.50138643888E+00  0.64702819642E+01  0.44230952080E+02  0.44704508263E+02  0.00000000000E+00 0. -1.
</event>
<event>
 7    1  0.2655561E-013  0.7246159E+02  0.7816164E-02  0.1226708E+00
        -11   -1    0    0    0    0  0.00000000000E+00  0.00000000000E+00  0.45593999997E+02  0.45594000000E+02  0.51100000000E-03 0. -1.
         11   -1    0    0    0    0 -0.00000000000E+00 -0.00000000000E+00 -0.45593999997E+02  0.45594000000E+02  0.51100000000E-03 0.  1.
    9900012    2    1    2    0    0  0.18300422958E+02  0.23193227108E+01 -0.32239237592E+01  0.72461590235E+02  0.70000025977E+02 0.  0.
        -12    1    1    2    0    0 -0.18300422958E+02 -0.23193227108E+01  0.32239237592E+01  0.18726409765E+02  0.00000000000E+00 0.  1.
         11    1    3    3    0    0 -0.22840382525E+01  0.17026069207E+01 -0.79548156385E-01  0.28499174086E+01  0.51100000000E-03 0. -1.
        -11    1    3    3    0    0 -0.23800190395E+02 -0.35989866152E+01  0.41758974250E+01  0.24430306733E+02  0.51100000000E-03 0.  1.
         12    1    3    3    0    0  0.44384651605E+02  0.42157024053E+01 -0.73202730278E+01  0.45181366094E+02  0.00000000000E+00 0. -1.
</event>
<event>
 7    1  0.2655561E-013  0.7246156E+02  0.7816164E-02  0.1226708E+00
        -11   -1    0    0    0    0  0.00000000000E+00  0.00000000000E+00  0.45593999997E+02  0.45594000000E+02  0.51100000000E-03 0. -1.
         11   -1    0    0    0    0 -0.00000000000E+00 -0.00000000000E+00 -0.45593999997E+02  0.45594000000E+02  0.51100000000E-03 0.  1.
    9900012    2    1    2    0    0 -0.16622192078E+02 -0.35055063492E+01  0.78799543065E+01  0.72461560827E+02  0.69999987667E+02 0.  0.
        -12    1    1    2    0    0  0.16622192078E+02  0.35055063492E+01 -0.78799543065E+01  0.18726439173E+02  0.00000000000E+00 0.  1.
         11    1    3    3    0    0 -0.71435173216E+01  0.14697904580E+02  0.65364942551E+01  0.17600681696E+02  0.51100000000E-03 0. -1.
        -11    1    3    3    0    0  0.19681391629E+02 -0.22351708506E-01  0.49904585107E+01  0.20304244691E+02  0.51100000000E-03 0.  1.
        -12    1    3    3    0    0 -0.29160066386E+02 -0.18181059221E+02 -0.36469984593E+01  0.34556634439E+02  0.00000000000E+00 0.  1.
</event>
<event>
 7    1  0.2655561E-013  0.7246159E+02  0.7816164E-02  0.1226708E+00
        -11   -1    0    0    0    0  0.00000000000E+00  0.00000000000E+00  0.45593999997E+02  0.45594000000E+02  0.51100000000E-03 0. -1.
         11   -1    0    0    0    0 -0.00000000000E+00 -0.00000000000E+00 -0.45593999997E+02  0.45594000000E+02  0.51100000000E-03 0.  1.
    9900012    2    1    2    0    0 -0.84032808937E+01  0.14718324366E+02 -0.79645543640E+01  0.72461592759E+02  0.70000029265E+02 0.  0.
        -12    1    1    2    0    0  0.84032808937E+01 -0.14718324366E+02  0.79645543640E+01  0.18726407241E+02  0.00000000000E+00 0.  1.
         11    1    3    3    0    0 -0.46260074926E+01  0.17865052628E+02  0.12758629017E+02  0.22435299539E+02  0.51100000000E-03 0. -1.
        -11    1    3    3    0    0 -0.30597782518E+01  0.14462048233E+02 -0.27438331819E+02  0.31166891653E+02  0.51100000000E-03 0.  1.
         12    1    3    3    0    0 -0.71749514930E+00 -0.17608776495E+02  0.67151484377E+01  0.18859401568E+02  0.00000000000E+00 0. -1.
</event>
<event>
 7    1  0.2655561E-013  0.7246149E+02  0.7816164E-02  0.1226708E+00
        -11   -1    0    0    0    0  0.00000000000E+00  0.00000000000E+00  0.45593999997E+02  0.45594000000E+02  0.51100000000E-03 0. -1.
         11   -1    0    0    0    0 -0.00000000000E+00 -0.00000000000E+00 -0.45593999997E+02  0.45594000000E+02  0.51100000000E-03 0.  1.
    9900012    2    1    2    0    0 -0.18325932658E+02  0.12722900521E+01  0.36364096120E+01  0.72461494597E+02  0.69999901390E+02 0.  0.
        -12    1    1    2    0    0  0.18325932658E+02 -0.12722900521E+01 -0.36364096120E+01  0.18726505403E+02  0.00000000000E+00 0.  1.
         11    1    3    3    0    0  0.67667147545E+00 -0.20887518995E+02 -0.11568456615E+02  0.23886722729E+02  0.51100000000E-03 0. -1.
        -11    1    3    3    0    0 -0.32813715107E+01 -0.91966136184E+01 -0.12245395042E+01  0.98409653132E+01  0.51100000000E-03 0.  1.
         12    1    3    3    0    0 -0.15721232622E+02  0.31356422665E+02  0.16429405731E+02  0.38733806554E+02  0.00000000000E+00 0. -1.
</event>
<event>
 7    1  0.2655561E-013  0.7246157E+02  0.7816164E-02  0.1226708E+00
        -11   -1    0    0    0    0  0.00000000000E+00  0.00000000000E+00  0.45593999997E+02  0.45594000000E+02  0.51100000000E-03 0. -1.
         11   -1    0    0    0    0 -0.00000000000E+00 -0.00000000000E+00 -0.45593999997E+02  0.45594000000E+02  0.51100000000E-03 0.  1.
    9900012    2    1    2    0    0 -0.17806696256E+02  0.27429439316E+01 -0.51065503313E+01  0.72461574039E+02  0.70000004878E+02 0.  0.
        -12    1    1    2    0    0  0.17806696256E+02 -0.27429439316E+01  0.51065503313E+01  0.18726425961E+02  0.00000000000E+00 0.  1.
         11    1    3    3    0    0 -0.60642826491E+01  0.97936281822E+01 -0.31495337650E+02  0.33535756604E+02  0.51100000000E-03 0. -1.
        -11    1    3    3    0    0 -0.16976259211E+02 -0.15598151988E+01  0.76030902839E+01  0.18666370359E+02  0.51100000000E-03 0.  1.
        -12    1    3    3    0    0  0.52338456039E+01 -0.54908690518E+01  0.18785697035E+02  0.20259447076E+02  0.00000000000E+00 0.  1.
</event>
<event>
 7    1  0.2655561E-013  0.7246157E+02  0.7816164E-02  0.1226708E+00
        -11   -1    0    0    0    0  0.00000000000E+00  0.00000000000E+00  0.45593999997E+02  0.45594000000E+02  0.51100000000E-03 0.  1.
         11   -1    0    0    0    0 -0.00000000000E+00 -0.00000000000E+00 -0.45593999997E+02  0.45594000000E+02  0.51100000000E-03 0. -1.
    9900012    2    1    2    0    0  0.15650124267E+02 -0.10037668267E+02  0.22356483090E+01  0.72461566886E+02  0.69999995560E+02 0.  0.
        -12    1    1    2    0    0 -0.15650124267E+02  0.10037668267E+02 -0.22356483090E+01  0.18726433114E+02  0.00000000000E+00 0.  1.
         11    1    3    3    0    0  0.77130488860E+01 -0.74392506474E+01  0.24458364428E+02  0.26702905536E+02  0.51100000000E-03 0. -1.
        -11    1    3    3    0    0 -0.91946266245E+01 -0.45076304950E+01  0.65941621666E+01  0.12179608630E+02  0.51100000000E-03 0.  1.
         12    1    3    3    0    0  0.17131702006E+02  0.19092128751E+01 -0.28816878286E+02  0.33579052720E+02  0.00000000000E+00 0. -1.
</event>
<event>
 7    1  0.2655561E-013  0.7246119E+02  0.7816164E-02  0.1226709E+00
        -11   -1    0    0    0    0  0.00000000000E+00  0.00000000000E+00  0.45593999997E+02  0.45594000000E+02  0.51100000000E-03 0.  1.
         11   -1    0    0    0    0 -0.00000000000E+00 -0.00000000000E+00 -0.45593999997E+02  0.45594000000E+02  0.51100000000E-03 0. -1.
    9900012    2    1    2    0    0  0.57934277352E+01 -0.11620929261E+02 -0.13493842449E+02  0.72461185379E+02  0.69999498574E+02 0.  0.
        -12    1    1    2    0    0 -0.57934277352E+01  0.11620929261E+02  0.13493842449E+02  0.18726814621E+02  0.00000000000E+00 0.  1.
         11    1    3    3    0    0 -0.12989860762E+01  0.19025333260E+01  0.77784186668E+01  0.81123852904E+01  0.51100000000E-03 0. -1.
        -11    1    3    3    0    0 -0.19745541765E+01  0.13078914400E+02  0.13992279784E+02  0.19254629570E+02  0.51100000000E-03 0.  1.
         12    1    3    3    0    0  0.90669679879E+01 -0.26602376987E+02 -0.35264540900E+02  0.45094170518E+02  0.00000000000E+00 0. -1.
</event>
<event>
 7    1  0.6184700E-013  0.7246223E+02  0.7816164E-02  0.1226706E+00
        -11   -1    0    0    0    0  0.00000000000E+00  0.00000000000E+00  0.45593999997E+02  0.45594000000E+02  0.51100000000E-03 0. -1.
         11   -1    0    0    0    0 -0.00000000000E+00 -0.00000000000E+00 -0.45593999997E+02  0.45594000000E+02  0.51100000000E-03 0.  1.
    9900012    2    1    2    0    0 -0.69118778445E+01  0.63710152479E+01  0.16195391768E+02  0.72462226180E+02  0.70000854408E+02 0.  0.
        -12    1    1    2    0    0  0.69118778445E+01 -0.63710152479E+01 -0.16195391768E+02  0.18725773820E+02  0.00000000000E+00 0.  1.
         11    1    3    3    0    0 -0.46764704868E+01 -0.41703602946E+01  0.34153621583E+02  0.34723639623E+02  0.51100000000E-03 0. -1.
        -11    1    3    3    0    0 -0.88805412713E+01  0.15030468858E+02  0.65616747438E+00  0.17470247949E+02  0.51100000000E-03 0.  1.
        -12    1    3    3    0    0  0.66451339136E+01 -0.44890933157E+01 -0.18614397288E+02  0.20268338608E+02  0.00000000000E+00 0.  1.
</event>
<event>
 7    1  0.2655561E-013  0.7246196E+02  0.7816164E-02  0.1226707E+00
        -11   -1    0    0    0    0  0.00000000000E+00  0.00000000000E+00  0.45593999997E+02  0.45594000000E+02  0.51100000000E-03 0. -1.
         11   -1    0    0    0    0 -0.00000000000E+00 -0.00000000000E+00 -0.45593999997E+02  0.45594000000E+02  0.51100000000E-03 0.  1.
    9900012    2    1    2    0    0 -0.17549525333E+02 -0.56257199246E+01  0.33211444104E+01  0.72461960262E+02  0.70000508003E+02 0.  0.
        -12    1    1    2    0    0  0.17549525333E+02  0.56257199246E+01 -0.33211444104E+01  0.18726039738E+02  0.00000000000E+00 0.  1.
         11    1    3    3    0    0 -0.89609718924E+01  0.81146067647E+01 -0.10047052543E+02  0.15719068842E+02  0.51100000000E-03 0. -1.
        -11    1    3    3    0    0 -0.15595698140E+02  0.14626023641E+02 -0.53529180537E+01  0.22040873394E+02  0.51100000000E-03 0.  1.
         12    1    3    3    0    0  0.70071446996E+01 -0.28366350331E+02  0.18721115007E+02  0.34702018025E+02  0.00000000000E+00 0. -1.
</event>
<event>
 7    1  0.2655561E-013  0.7246148E+02  0.7816164E-02  0.1226708E+00
        -11   -1    0    0    0    0  0.00000000000E+00  0.00000000000E+00  0.45593999997E+02  0.45594000000E+02  0.51100000000E-03 0.  1.
         11   -1    0    0    0    0 -0.00000000000E+00 -0.00000000000E+00 -0.45593999997E+02  0.45594000000E+02  0.51100000000E-03 0. -1.
    9900012    2    1    2    0    0 -0.16246391463E+01 -0.17659395654E+02 -0.60157099964E+01  0.72461482064E+02  0.69999885064E+02 0.  0.
        -12    1    1    2    0    0  0.16246391463E+01  0.17659395654E+02  0.60157099964E+01  0.18726517936E+02  0.00000000000E+00 0.  1.
         11    1    3    3    0    0  0.77212256502E+01 -0.10478814942E+00  0.14415952397E+02  0.16353837160E+02  0.51100000000E-03 0. -1.
        -11    1    3    3    0    0  0.18656049880E+02 -0.14925405149E+02 -0.67237883033E+01  0.24819855870E+02  0.51100000000E-03 0.  1.
         12    1    3    3    0    0 -0.28001914677E+02 -0.26292023564E+01 -0.13707874090E+02  0.31287789034E+02  0.00000000000E+00 0. -1.
</event>
<event>
 7    1  0.2655561E-013  0.7246159E+02  0.7816164E-02  0.1226708E+00
        -11   -1    0    0    0    0  0.00000000000E+00  0.00000000000E+00  0.45593999997E+02  0.45594000000E+02  0.51100000000E-03 0. -1.
         11   -1    0    0    0    0 -0.00000000000E+00 -0.00000000000E+00 -0.45593999997E+02  0.45594000000E+02  0.51100000000E-03 0.  1.
    9900012    2    1    2    0    0  0.34597287381E+01  0.14265571311E+02  0.11627639529E+02  0.72461594878E+02  0.70000032025E+02 0.  0.
        -12    1    1    2    0    0 -0.34597287381E+01 -0.14265571311E+02 -0.11627639529E+02  0.18726405122E+02  0.00000000000E+00 0.  1.
         11    1    3    3    0    0 -0.10277514115E+02  0.95141113113E+01  0.20014493059E+01  0.14147487763E+02  0.51100000000E-03 0. -1.
        -11    1    3    3    0    0 -0.17721230472E+02  0.11025209033E+02 -0.72164096084E+01  0.22083337872E+02  0.51100000000E-03 0.  1.
         12    1    3    3    0    0  0.31458473325E+02 -0.62737490331E+01  0.16842599832E+02  0.36230769243E+02  0.00000000000E+00 0. -1.
</event>
<event>
 7    1  0.2655561E-013  0.7246159E+02  0.7816164E-02  0.1226708E+00
        -11   -1    0    0    0    0  0.00000000000E+00  0.00000000000E+00  0.45593999997E+02  0.45594000000E+02  0.51100000000E-03 0.  1.
         11   -1    0    0    0    0 -0.00000000000E+00 -0.00000000000E+00 -0.45593999997E+02  0.45594000000E+02  0.51100000000E-03 0. -1.
    9900012    2    1    2    0    0  0.11196455571E+02 -0.17568266749E+01 -0.14907423531E+02  0.72461592612E+02  0.70000029073E+02 0.  0.
        -12    1    1    2    0    0 -0.11196455571E+02  0.17568266749E+01  0.14907423531E+02  0.18726407388E+02  0.00000000000E+00 0.  1.
         11    1    3    3    0    0 -0.56444347984E+01 -0.24753330327E+01 -0.36650911423E+02  0.37165524699E+02  0.51100000000E-03 0. -1.
        -11    1    3    3    0    0 -0.48823198278E+01 -0.24297341990E+01  0.69144584527E+01  0.88062699898E+01  0.51100000000E-03 0.  1.
        -12    1    3    3    0    0  0.21723210197E+02  0.31482405567E+01  0.14829029439E+02  0.26489797923E+02  0.00000000000E+00 0.  1.
</event>
<event>
 7    1  0.2655561E-013  0.7246155E+02  0.7816164E-02  0.1226708E+00
        -11   -1    0    0    0    0  0.00000000000E+00  0.00000000000E+00  0.45593999997E+02  0.45594000000E+02  0.51100000000E-03 0.  1.
         11   -1    0    0    0    0 -0.00000000000E+00 -0.00000000000E+00 -0.45593999997E+02  0.45594000000E+02  0.51100000000E-03 0. -1.
    9900012    2    1    2    0    0  0.56576940279E+01  0.64132946122E+01 -0.16659532186E+02  0.72461551801E+02  0.69999975909E+02 0.  0.
        -12    1    1    2    0    0 -0.56576940279E+01 -0.64132946122E+01  0.16659532186E+02  0.18726448199E+02  0.00000000000E+00 0.  1.
         11    1    3    3    0    0 -0.23576511022E+02 -0.12823889760E+02  0.30444379351E+01  0.27010602051E+02  0.51100000000E-03 0. -1.
        -11    1    3    3    0    0  0.17582514200E+01 -0.43330210537E+00  0.38540510561E+01  0.42582753051E+01  0.51100000000E-03 0.  1.
        -12    1    3    3    0    0  0.27475953630E+02  0.19670486478E+02 -0.23558021177E+02  0.41192674445E+02  0.00000000000E+00 0.  1.
</event>
<event>
 7    1  0.3169333E-013  0.7246154E+02  0.7816164E-02  0.1226708E+00
        -11   -1    0    0    0    0  0.00000000000E+00  0.00000000000E+00  0.45593999997E+02  0.45594000000E+02  0.51100000000E-03 0. -1.
         11   -1    0    0    0    0 -0.00000000000E+00 -0.00000000000E+00 -0.45593999997E+02  0.45594000000E+02  0.51100000000E-03 0.  1.
    9900012    2    1    2    0    0  0.43248374234E+01  0.47825279751E+01  0.17581340126E+02  0.72461539758E+02  0.69999960220E+02 0.  0.
        -12    1    1    2    0    0 -0.43248374234E+01 -0.47825279751E+01 -0.17581340126E+02  0.18726460242E+02  0.00000000000E+00 0.  1.
         11    1    3    3    0    0  0.14209644886E+01  0.27555774553E+02  0.16359441253E+02  0.32077580483E+02  0.51100000000E-03 0. -1.
        -11    1    3    3    0    0 -0.66545659090E+01 -0.97649184896E+01  0.15045601713E+02  0.19131309723E+02  0.51100000000E-03 0.  1.
        -12    1    3    3    0    0  0.95584388438E+01 -0.13008328088E+02 -0.13823702839E+02  0.21252649552E+02  0.00000000000E+00 0.  1.
</event>
<event>
 7    1  0.2655561E-013  0.7246155E+02  0.7816164E-02  0.1226708E+00
        -11   -1    0    0    0    0  0.00000000000E+00  0.00000000000E+00  0.45593999997E+02  0.45594000000E+02  0.51100000000E-03 0.  1.
         11   -1    0    0    0    0 -0.00000000000E+00 -0.00000000000E+00 -0.45593999997E+02  0.45594000000E+02  0.51100000000E-03 0. -1.
    9900012    2    1    2    0    0 -0.75068547305E+00  0.17805853471E+02 -0.57504701625E+01  0.72461552029E+02  0.69999976207E+02 0.  0.
        -12    1    1    2    0    0  0.75068547305E+00 -0.17805853471E+02  0.57504701625E+01  0.18726447971E+02  0.00000000000E+00 0.  1.
         11    1    3    3    0    0 -0.66828080655E+01  0.11957853778E+02 -0.91665677227E+01  0.16482601576E+02  0.51100000000E-03 0. -1.
        -11    1    3    3    0    0 -0.17598886026E+02  0.21659707444E+01 -0.17033052618E+02  0.24587336179E+02  0.51100000000E-03 0.  1.
        -12    1    3    3    0    0  0.23531008618E+02  0.36820289481E+01  0.20449150178E+02  0.31391614275E+02  0.00000000000E+00 0.  1.
</event>
<event>
 7    1  0.2655561E-013  0.7246157E+02  0.7816164E-02  0.1226708E+00
        -11   -1    0    0    0    0  0.00000000000E+00  0.00000000000E+00  0.45593999997E+02  0.45594000000E+02  0.51100000000E-03 0.  1.
         11   -1    0    0    0    0 -0.00000000000E+00 -0.00000000000E+00 -0.45593999997E+02  0.45594000000E+02  0.51100000000E-03 0. -1.
    9900012    2    1    2    0    0  0.11402858396E+02 -0.74687099454E+01  0.12840268915E+02  0.72461566446E+02  0.69999994987E+02 0.  0.
        -12    1    1    2    0    0 -0.11402858396E+02  0.74687099454E+01 -0.12840268915E+02  0.18726433554E+02  0.00000000000E+00 0.  1.
         11    1    3    3    0    0  0.72526123696E+01 -0.78198814563E+01 -0.18046651369E+02  0.20962646734E+02  0.51100000000E-03 0. -1.
        -11    1    3    3    0    0 -0.19034597895E+01  0.13844564531E+02 -0.32048191660E+01  0.14337572750E+02  0.51100000000E-03 0.  1.
         12    1    3    3    0    0  0.60537058163E+01 -0.13493393020E+02  0.34091739450E+02  0.37161346962E+02  0.00000000000E+00 0. -1.
</event>
<event>
 7    1  0.2655561E-013  0.7246159E+02  0.7816164E-02  0.1226708E+00
        -11   -1    0    0    0    0  0.00000000000E+00  0.00000000000E+00  0.45593999997E+02  0.45594000000E+02  0.51100000000E-03 0.  1.
         11   -1    0    0    0    0 -0.00000000000E+00 -0.00000000000E+00 -0.45593999997E+02  0.45594000000E+02  0.51100000000E-03 0. -1.
    9900012    2    1    2    0    0  0.11625923263E+02 -0.80373781720E+01 -0.12284821639E+02  0.72461591313E+02  0.70000027381E+02 0.  0.
        -12    1    1    2    0    0 -0.11625923263E+02  0.80373781720E+01  0.12284821639E+02  0.18726408687E+02  0.00000000000E+00 0.  1.
         11    1    3    3    0    0 -0.11626655370E+01  0.26518413640E+01  0.45552240483E+01  0.53976031868E+01  0.51100000000E-03 0. -1.
        -11    1    3    3    0    0  0.26126581373E+02  0.15796321766E+02  0.40389430062E+01  0.30796673464E+02  0.51100000000E-03 0.  1.
         12    1    3    3    0    0 -0.13337992573E+02 -0.26485541302E+02 -0.20878988694E+02  0.36267314662E+02  0.00000000000E+00 0. -1.
</event>
<event>
 7    1  0.2655561E-013  0.7246157E+02  0.7816164E-02  0.1226708E+00
        -11   -1    0    0    0    0  0.00000000000E+00  0.00000000000E+00  0.45593999997E+02  0.45594000000E+02  0.51100000000E-03 0.  1.
         11   -1    0    0    0    0 -0.00000000000E+00 -0.00000000000E+00 -0.45593999997E+02  0.45594000000E+02  0.51100000000E-03 0. -1.
    9900012    2    1    2    0    0  0.10812366479E+02  0.43066045425E+01 -0.14670548004E+02  0.72461572409E+02  0.70000002755E+02 0.  0.
        -12    1    1    2    0    0 -0.10812366479E+02 -0.43066045425E+01  0.14670548004E+02  0.18726427591E+02  0.00000000000E+00 0.  1.
         11    1    3    3    0    0  0.20283173279E+02 -0.14621644939E+02 -0.26807334239E+02  0.36658324952E+02  0.51100000000E-03 0. -1.
        -11    1    3    3    0    0  0.61463793428E+01 -0.10101596835E+01  0.80032968569E+01  0.10141556214E+02  0.51100000000E-03 0.  1.
         12    1    3    3    0    0 -0.15617186143E+02  0.19938409165E+02  0.41334893785E+01  0.25661691243E+02  0.00000000000E+00 0. -1.
</event>
<event>
 7    1  0.2655561E-013  0.7246156E+02  0.7816164E-02  0.1226708E+00
        -11   -1    0    0    0    0  0.00000000000E+00  0.00000000000E+00  0.45593999997E+02  0.45594000000E+02  0.51100000000E-03 0.  1.
         11   -1    0    0    0    0 -0.00000000000E+00 -0.00000000000E+00 -0.45593999997E+02  0.45594000000E+02  0.51100000000E-03 0. -1.
    9900012    2    1    2    0    0 -0.18144398215E+02  0.13286032560E+01  0.44379288809E+01  0.72461559175E+02  0.69999985515E+02 0.  0.
        -12    1    1    2    0    0  0.18144398215E+02 -0.13286032560E+01 -0.44379288809E+01  0.18726440825E+02  0.00000000000E+00 0.  1.
         11    1    3    3    0    0 -0.13479324641E+02  0.17645319761E+01  0.91082063333E+01  0.16363532282E+02  0.51100000000E-03 0. -1.
        -11    1    3    3    0    0 -0.27217734973E+02  0.11159411124E+01  0.10146605134E+02  0.29068952812E+02  0.51100000000E-03 0.  1.
        -12    1    3    3    0    0  0.22552661398E+02 -0.15518698325E+01 -0.14816882586E+02  0.27029074081E+02  0.00000000000E+00 0.  1.
</event>
<event>
 7    1  0.2655561E-013  0.7246151E+02  0.7816164E-02  0.1226708E+00
        -11   -1    0    0    0    0  0.00000000000E+00  0.00000000000E+00  0.45593999997E+02  0.45594000000E+02  0.51100000000E-03 0. -1.
         11   -1    0    0    0    0 -0.00000000000E+00 -0.00000000000E+00 -0.45593999997E+02  0.45594000000E+02  0.51100000000E-03 0.  1.
    9900012    2    1    2    0    0  0.14818482670E+02 -0.10557645874E+02 -0.44306089760E+01  0.72461505108E+02  0.69999915083E+02 0.  0.
        -12    1    1    2    0    0 -0.14818482670E+02  0.10557645874E+02  0.44306089760E+01  0.18726494892E+02  0.00000000000E+00 0.  1.
         11    1    3    3    0    0 -0.48923658026E+01 -0.15885883552E+01  0.56581113689E+01  0.76467692938E+01  0.51100000000E-03 0. -1.
        -11    1    3    3    0    0  0.16250705448E+02 -0.43604321956E+01  0.24515472929E+02  0.29733940366E+02  0.51100000000E-03 0.  1.
        -12    1    3    3    0    0  0.34601430246E+01 -0.46086253228E+01 -0.34604193274E+02  0.35080795448E+02  0.00000000000E+00 0.  1.
</event>
